 Entering Gaussian System, Link 0=g16
 Initial command:
 /opt/software/gaussian/g16.b01/l1.exe "/localscratch/sarashs.37242620.0/Gau-8156.inp" -scrdir="/localscratch/sarashs.37242620.0/"
 Entering Link 1 = /opt/software/gaussian/g16.b01/l1.exe PID=      8160.
  
 Copyright (c) 1988-2017, Gaussian, Inc.  All Rights Reserved.
  
 This is part of the Gaussian(R) 16 program.  It is based on
 the Gaussian(R) 09 system (copyright 2009, Gaussian, Inc.),
 the Gaussian(R) 03 system (copyright 2003, Gaussian, Inc.),
 the Gaussian(R) 98 system (copyright 1998, Gaussian, Inc.),
 the Gaussian(R) 94 system (copyright 1995, Gaussian, Inc.),
 the Gaussian 92(TM) system (copyright 1992, Gaussian, Inc.),
 the Gaussian 90(TM) system (copyright 1990, Gaussian, Inc.),
 the Gaussian 88(TM) system (copyright 1988, Gaussian, Inc.),
 the Gaussian 86(TM) system (copyright 1986, Carnegie Mellon
 University), and the Gaussian 82(TM) system (copyright 1983,
 Carnegie Mellon University). Gaussian is a federally registered
 trademark of Gaussian, Inc.
  
 This software contains proprietary and confidential information,
 including trade secrets, belonging to Gaussian, Inc.
  
 This software is provided under written license and may be
 used, copied, transmitted, or stored only in accord with that
 written license.
  
 The following legend is applicable only to US Government
 contracts under FAR:
  
                    RESTRICTED RIGHTS LEGEND
  
 Use, reproduction and disclosure by the US Government is
 subject to restrictions as set forth in subparagraphs (a)
 and (c) of the Commercial Computer Software - Restricted
 Rights clause in FAR 52.227-19.
  
 Gaussian, Inc.
 340 Quinnipiac St., Bldg. 40, Wallingford CT 06492
  
  
 ---------------------------------------------------------------
 Warning -- This program may not be used in any manner that
 competes with the business of Gaussian, Inc. or will provide
 assistance to any competitor of Gaussian, Inc.  The licensee
 of this program is prohibited from giving any competitor of
 Gaussian, Inc. access to this program.  By using this program,
 the user acknowledges that Gaussian, Inc. is engaged in the
 business of creating and licensing software in the field of
 computational chemistry and represents and warrants to the
 licensee that it is not a competitor of Gaussian, Inc. and that
 it will not use this program in any manner prohibited above.
 ---------------------------------------------------------------
  

 Cite this work as:
 Gaussian 16, Revision B.01,
 M. J. Frisch, G. W. Trucks, H. B. Schlegel, G. E. Scuseria, 
 M. A. Robb, J. R. Cheeseman, G. Scalmani, V. Barone, 
 G. A. Petersson, H. Nakatsuji, X. Li, M. Caricato, A. V. Marenich, 
 J. Bloino, B. G. Janesko, R. Gomperts, B. Mennucci, H. P. Hratchian, 
 J. V. Ortiz, A. F. Izmaylov, J. L. Sonnenberg, D. Williams-Young, 
 F. Ding, F. Lipparini, F. Egidi, J. Goings, B. Peng, A. Petrone, 
 T. Henderson, D. Ranasinghe, V. G. Zakrzewski, J. Gao, N. Rega, 
 G. Zheng, W. Liang, M. Hada, M. Ehara, K. Toyota, R. Fukuda, 
 J. Hasegawa, M. Ishida, T. Nakajima, Y. Honda, O. Kitao, H. Nakai, 
 T. Vreven, K. Throssell, J. A. Montgomery, Jr., J. E. Peralta, 
 F. Ogliaro, M. J. Bearpark, J. J. Heyd, E. N. Brothers, K. N. Kudin, 
 V. N. Staroverov, T. A. Keith, R. Kobayashi, J. Normand, 
 K. Raghavachari, A. P. Rendell, J. C. Burant, S. S. Iyengar, 
 J. Tomasi, M. Cossi, J. M. Millam, M. Klene, C. Adamo, R. Cammi, 
 J. W. Ochterski, R. L. Martin, K. Morokuma, O. Farkas, 
 J. B. Foresman, and D. J. Fox, Gaussian, Inc., Wallingford CT, 2016.
 
 ******************************************
 Gaussian 16:  ES64L-G16RevB.01 20-Dec-2017
                14-Aug-2020 
 ******************************************
 %NProcShared=16
 Will use up to   16 processors via shared memory.
 ------------------------------------------------------------------
 #n B3LYP/Gen Pseudo=cards EmpiricalDispersion=GD3 Opt=modredundant
 ------------------------------------------------------------------
 1/18=120,19=15,26=3,38=1/1,3;
 2/9=110,12=2,17=6,18=5,40=1/2;
 3/5=7,11=2,16=1,17=8,25=1,30=1,71=1,74=-5,124=31/1,2,3;
 4//1;
 5/5=2,38=5/2;
 6/7=2,8=2,9=2,10=2,28=1/1;
 7//1,2,3,16;
 1/18=20,19=15,26=3/3(2);
 2/9=110/2;
 99//99;
 2/9=110/2;
 3/5=7,6=1,11=2,16=1,17=8,25=1,30=1,71=1,74=-5,82=7,124=31/1,2,3;
 4/5=5,16=3,69=1/1;
 5/5=2,38=5/2;
 7//1,2,3,16;
 1/18=20,19=15,26=3/3(-5);
 2/9=110/2;
 6/7=2,8=2,9=2,10=2,19=2,28=1/1;
 99/9=1/99;
 -----
 Title
 -----
 Symbolic Z-matrix:
 Charge =  0 Multiplicity = 1
 Zr                    0.65779  -0.12506  -0.07164 
 O                    -0.22285  -0.90624   1.4773 
 O                     0.10302   1.74748  -0.12299 
 O                    -0.2683   -0.97885  -1.59705 
 O                     2.59206  -0.4363   -0.08284 
 Si                   -1.83119  -1.33244  -1.9536 
 Si                   -1.1155    2.84172  -0.08279 
 Si                   -1.72376  -1.15291   2.11517 
 Si                    4.21617  -0.26208   0.01674 
 O                     4.95781  -0.08661  -1.44775 
 O                     4.8975   -1.61468   0.68998 
 O                     4.44637   1.12003   0.88783 
 O                    -2.31924  -2.624     1.69627 
 O                    -2.72422   0.06508   1.55086 
 O                    -1.59734  -1.01957   3.74439 
 O                    -2.00144  -1.55965  -3.57782 
 O                    -2.82509  -0.18676  -1.30145 
 O                    -2.34448  -2.71439  -1.18277 
 O                    -2.04046   2.43957  -1.43023 
 O                    -0.63565   4.40049  -0.29987 
 O                    -1.96551   2.76086   1.31383 
 H                     5.33364   1.49579   0.88165 
 H                     5.30692  -0.89425  -1.84141 
 H                     4.46123  -1.99305   1.46145 
 H                    -2.40577  -2.80951   0.74392 
 H                    -2.38137  -1.22423   4.26535 
 H                    -3.06034  -0.08306   0.64589 
 H                    -0.52731   4.92728   0.50015 
 H                    -2.26909   1.86932   1.58533 
 H                    -2.64854   3.12676  -1.73014 
 H                    -2.30452  -3.52952  -1.69562 
 H                    -1.27114  -1.26305  -4.13223 
 H                    -2.61026   0.75461  -1.48993 
 
 The following ModRedundant input section has been read:
 A       1       5       9 F                                                   
 D       1       5       9      12 F                                           
 D       3       1       5       9 F                                           
 

 GradGradGradGradGradGradGradGradGradGradGradGradGradGradGradGradGradGrad
 Berny optimization.
 Initialization pass.
                           ----------------------------
                           !    Initial Parameters    !
                           ! (Angstroms and Degrees)  !
 --------------------------                            --------------------------
 ! Name  Definition              Value          Derivative Info.                !
 --------------------------------------------------------------------------------
 ! R1    R(1,2)                  1.9455         estimate D2E/DX2                !
 ! R2    R(1,3)                  1.9537         estimate D2E/DX2                !
 ! R3    R(1,4)                  1.9783         estimate D2E/DX2                !
 ! R4    R(1,5)                  1.9592         estimate D2E/DX2                !
 ! R5    R(2,8)                  1.6494         estimate D2E/DX2                !
 ! R6    R(3,7)                  1.6382         estimate D2E/DX2                !
 ! R7    R(4,6)                  1.6416         estimate D2E/DX2                !
 ! R8    R(5,9)                  1.6365         estimate D2E/DX2                !
 ! R9    R(6,16)                 1.6488         estimate D2E/DX2                !
 ! R10   R(6,17)                 1.651          estimate D2E/DX2                !
 ! R11   R(6,18)                 1.6636         estimate D2E/DX2                !
 ! R12   R(7,19)                 1.6831         estimate D2E/DX2                !
 ! R13   R(7,20)                 1.6453         estimate D2E/DX2                !
 ! R14   R(7,21)                 1.6369         estimate D2E/DX2                !
 ! R15   R(8,13)                 1.6414         estimate D2E/DX2                !
 ! R16   R(8,14)                 1.6742         estimate D2E/DX2                !
 ! R17   R(8,15)                 1.6395         estimate D2E/DX2                !
 ! R18   R(9,10)                 1.6509         estimate D2E/DX2                !
 ! R19   R(9,11)                 1.6574         estimate D2E/DX2                !
 ! R20   R(9,12)                 1.6499         estimate D2E/DX2                !
 ! R21   R(10,23)                0.9639         estimate D2E/DX2                !
 ! R22   R(11,24)                0.9637         estimate D2E/DX2                !
 ! R23   R(12,22)                0.9636         estimate D2E/DX2                !
 ! R24   R(13,25)                0.9741         estimate D2E/DX2                !
 ! R25   R(14,27)                0.9767         estimate D2E/DX2                !
 ! R26   R(15,26)                0.9633         estimate D2E/DX2                !
 ! R27   R(16,32)                0.9637         estimate D2E/DX2                !
 ! R28   R(17,33)                0.9838         estimate D2E/DX2                !
 ! R29   R(18,31)                0.9639         estimate D2E/DX2                !
 ! R30   R(19,30)                0.9654         estimate D2E/DX2                !
 ! R31   R(20,28)                0.964          estimate D2E/DX2                !
 ! R32   R(21,29)                0.9802         estimate D2E/DX2                !
 ! A1    A(2,1,3)              106.0959         estimate D2E/DX2                !
 ! A2    A(2,1,4)              103.2214         estimate D2E/DX2                !
 ! A3    A(2,1,5)              112.8091         estimate D2E/DX2                !
 ! A4    A(3,1,4)              105.0977         estimate D2E/DX2                !
 ! A5    A(3,1,5)              115.6243         estimate D2E/DX2                !
 ! A6    A(4,1,5)              112.9055         estimate D2E/DX2                !
 ! A7    A(1,2,8)              141.2479         estimate D2E/DX2                !
 ! A8    A(1,3,7)              148.2962         estimate D2E/DX2                !
 ! A9    A(1,4,6)              134.9216         estimate D2E/DX2                !
 ! A10   A(1,5,9)              164.2748         Frozen                          !
 ! A11   A(4,6,16)             109.9952         estimate D2E/DX2                !
 ! A12   A(4,6,17)             109.7479         estimate D2E/DX2                !
 ! A13   A(4,6,18)             111.8422         estimate D2E/DX2                !
 ! A14   A(16,6,17)            114.9972         estimate D2E/DX2                !
 ! A15   A(16,6,18)            108.0658         estimate D2E/DX2                !
 ! A16   A(17,6,18)            101.9869         estimate D2E/DX2                !
 ! A17   A(3,7,19)             103.269          estimate D2E/DX2                !
 ! A18   A(3,7,20)             114.3706         estimate D2E/DX2                !
 ! A19   A(3,7,21)             111.9733         estimate D2E/DX2                !
 ! A20   A(19,7,20)            106.3205         estimate D2E/DX2                !
 ! A21   A(19,7,21)            112.6973         estimate D2E/DX2                !
 ! A22   A(20,7,21)            108.1076         estimate D2E/DX2                !
 ! A23   A(2,8,13)             111.4365         estimate D2E/DX2                !
 ! A24   A(2,8,14)             107.7362         estimate D2E/DX2                !
 ! A25   A(2,8,15)             107.5759         estimate D2E/DX2                !
 ! A26   A(13,8,14)            110.4391         estimate D2E/DX2                !
 ! A27   A(13,8,15)            110.7606         estimate D2E/DX2                !
 ! A28   A(14,8,15)            108.7751         estimate D2E/DX2                !
 ! A29   A(5,9,10)             113.7767         estimate D2E/DX2                !
 ! A30   A(5,9,11)             110.2316         estimate D2E/DX2                !
 ! A31   A(5,9,12)             105.0574         estimate D2E/DX2                !
 ! A32   A(10,9,11)            105.2125         estimate D2E/DX2                !
 ! A33   A(10,9,12)            108.4598         estimate D2E/DX2                !
 ! A34   A(11,9,12)            114.32           estimate D2E/DX2                !
 ! A35   A(9,10,23)            115.8442         estimate D2E/DX2                !
 ! A36   A(9,11,24)            117.3554         estimate D2E/DX2                !
 ! A37   A(9,12,22)            116.8573         estimate D2E/DX2                !
 ! A38   A(8,13,25)            116.8991         estimate D2E/DX2                !
 ! A39   A(8,14,27)            114.056          estimate D2E/DX2                !
 ! A40   A(8,15,26)            117.2166         estimate D2E/DX2                !
 ! A41   A(6,16,32)            116.4907         estimate D2E/DX2                !
 ! A42   A(6,17,33)            117.1859         estimate D2E/DX2                !
 ! A43   A(6,18,31)            116.3076         estimate D2E/DX2                !
 ! A44   A(7,19,30)            115.1373         estimate D2E/DX2                !
 ! A45   A(7,20,28)            116.1676         estimate D2E/DX2                !
 ! A46   A(7,21,29)            116.2372         estimate D2E/DX2                !
 ! D1    D(3,1,2,8)             57.7292         estimate D2E/DX2                !
 ! D2    D(4,1,2,8)            -52.5301         estimate D2E/DX2                !
 ! D3    D(5,1,2,8)           -174.7067         estimate D2E/DX2                !
 ! D4    D(2,1,3,7)            -50.098          estimate D2E/DX2                !
 ! D5    D(4,1,3,7)             58.8315         estimate D2E/DX2                !
 ! D6    D(5,1,3,7)           -175.9641         estimate D2E/DX2                !
 ! D7    D(2,1,4,6)             42.7683         estimate D2E/DX2                !
 ! D8    D(3,1,4,6)            -68.2312         estimate D2E/DX2                !
 ! D9    D(5,1,4,6)            164.8802         estimate D2E/DX2                !
 ! D10   D(2,1,5,9)           -106.3638         estimate D2E/DX2                !
 ! D11   D(3,1,5,9)             15.9994         Frozen                          !
 ! D12   D(4,1,5,9)            137.0817         estimate D2E/DX2                !
 ! D13   D(1,2,8,13)            93.5308         estimate D2E/DX2                !
 ! D14   D(1,2,8,14)           -27.7655         estimate D2E/DX2                !
 ! D15   D(1,2,8,15)          -144.8802         estimate D2E/DX2                !
 ! D16   D(1,3,7,19)           -61.1012         estimate D2E/DX2                !
 ! D17   D(1,3,7,20)          -176.1751         estimate D2E/DX2                !
 ! D18   D(1,3,7,21)            60.409          estimate D2E/DX2                !
 ! D19   D(1,4,6,16)           160.167          estimate D2E/DX2                !
 ! D20   D(1,4,6,17)            32.6925         estimate D2E/DX2                !
 ! D21   D(1,4,6,18)           -79.742          estimate D2E/DX2                !
 ! D22   D(1,5,9,10)          -100.1289         estimate D2E/DX2                !
 ! D23   D(1,5,9,11)           141.9688         estimate D2E/DX2                !
 ! D24   D(1,5,9,12)            18.3498         Frozen                          !
 ! D25   D(4,6,16,32)          -14.1998         estimate D2E/DX2                !
 ! D26   D(17,6,16,32)         110.2979         estimate D2E/DX2                !
 ! D27   D(18,6,16,32)        -136.5531         estimate D2E/DX2                !
 ! D28   D(4,6,17,33)           51.0095         estimate D2E/DX2                !
 ! D29   D(16,6,17,33)         -73.6179         estimate D2E/DX2                !
 ! D30   D(18,6,17,33)         169.7166         estimate D2E/DX2                !
 ! D31   D(4,6,18,31)          -96.4424         estimate D2E/DX2                !
 ! D32   D(16,6,18,31)          24.7715         estimate D2E/DX2                !
 ! D33   D(17,6,18,31)         146.349          estimate D2E/DX2                !
 ! D34   D(3,7,19,30)         -162.1837         estimate D2E/DX2                !
 ! D35   D(20,7,19,30)         -41.4662         estimate D2E/DX2                !
 ! D36   D(21,7,19,30)          76.796          estimate D2E/DX2                !
 ! D37   D(3,7,20,28)          -98.427          estimate D2E/DX2                !
 ! D38   D(19,7,20,28)         148.2947         estimate D2E/DX2                !
 ! D39   D(21,7,20,28)          27.0455         estimate D2E/DX2                !
 ! D40   D(3,7,21,29)          -49.8995         estimate D2E/DX2                !
 ! D41   D(19,7,21,29)          66.0156         estimate D2E/DX2                !
 ! D42   D(20,7,21,29)        -176.7753         estimate D2E/DX2                !
 ! D43   D(2,8,13,25)          -58.468          estimate D2E/DX2                !
 ! D44   D(14,8,13,25)          61.2404         estimate D2E/DX2                !
 ! D45   D(15,8,13,25)        -178.1888         estimate D2E/DX2                !
 ! D46   D(2,8,14,27)           80.2918         estimate D2E/DX2                !
 ! D47   D(13,8,14,27)         -41.6247         estimate D2E/DX2                !
 ! D48   D(15,8,14,27)        -163.3756         estimate D2E/DX2                !
 ! D49   D(2,8,15,26)         -174.1994         estimate D2E/DX2                !
 ! D50   D(13,8,15,26)         -52.1897         estimate D2E/DX2                !
 ! D51   D(14,8,15,26)          69.3652         estimate D2E/DX2                !
 ! D52   D(5,9,10,23)          -94.8505         estimate D2E/DX2                !
 ! D53   D(11,9,10,23)          25.9075         estimate D2E/DX2                !
 ! D54   D(12,9,10,23)         148.6398         estimate D2E/DX2                !
 ! D55   D(5,9,11,24)          -43.8204         estimate D2E/DX2                !
 ! D56   D(10,9,11,24)        -166.8798         estimate D2E/DX2                !
 ! D57   D(12,9,11,24)          74.2395         estimate D2E/DX2                !
 ! D58   D(5,9,12,22)         -166.4773         estimate D2E/DX2                !
 ! D59   D(10,9,12,22)         -44.4745         estimate D2E/DX2                !
 ! D60   D(11,9,12,22)          72.5542         estimate D2E/DX2                !
 --------------------------------------------------------------------------------
 Trust Radius=3.00D-01 FncErr=1.00D-07 GrdErr=1.00D-06 EigMax=2.50D+02 EigMin=1.00D-04
 Number of steps in this run=    148 maximum allowed number of steps=    198.
 GradGradGradGradGradGradGradGradGradGradGradGradGradGradGradGradGradGrad

                          Input orientation:                          
 ---------------------------------------------------------------------
 Center     Atomic      Atomic             Coordinates (Angstroms)
 Number     Number       Type             X           Y           Z
 ---------------------------------------------------------------------
      1         40           0        0.657790   -0.125060   -0.071640
      2          8           0       -0.222850   -0.906240    1.477300
      3          8           0        0.103020    1.747480   -0.122990
      4          8           0       -0.268300   -0.978850   -1.597050
      5          8           0        2.592060   -0.436300   -0.082840
      6         14           0       -1.831190   -1.332440   -1.953600
      7         14           0       -1.115500    2.841720   -0.082790
      8         14           0       -1.723760   -1.152910    2.115170
      9         14           0        4.216170   -0.262080    0.016740
     10          8           0        4.957810   -0.086610   -1.447750
     11          8           0        4.897500   -1.614680    0.689980
     12          8           0        4.446370    1.120030    0.887830
     13          8           0       -2.319240   -2.624000    1.696270
     14          8           0       -2.724220    0.065080    1.550860
     15          8           0       -1.597340   -1.019570    3.744390
     16          8           0       -2.001440   -1.559650   -3.577820
     17          8           0       -2.825090   -0.186760   -1.301450
     18          8           0       -2.344480   -2.714390   -1.182770
     19          8           0       -2.040460    2.439570   -1.430230
     20          8           0       -0.635650    4.400490   -0.299870
     21          8           0       -1.965510    2.760860    1.313830
     22          1           0        5.333640    1.495790    0.881650
     23          1           0        5.306920   -0.894250   -1.841410
     24          1           0        4.461230   -1.993050    1.461450
     25          1           0       -2.405770   -2.809510    0.743920
     26          1           0       -2.381370   -1.224230    4.265350
     27          1           0       -3.060340   -0.083060    0.645890
     28          1           0       -0.527310    4.927280    0.500150
     29          1           0       -2.269090    1.869320    1.585330
     30          1           0       -2.648540    3.126760   -1.730140
     31          1           0       -2.304520   -3.529520   -1.695620
     32          1           0       -1.271140   -1.263050   -4.132230
     33          1           0       -2.610260    0.754610   -1.489930
 ---------------------------------------------------------------------
                    Distance matrix (angstroms):
                    1          2          3          4          5
     1  Zr   0.000000
     2  O    1.945504   0.000000
     3  O    1.953666   3.115983   0.000000
     4  O    1.978251   3.075543   3.121475   0.000000
     5  O    1.959183   3.252476   3.311469   3.281593   0.000000
     6  Si   3.345827   3.813067   4.071635   1.641578   4.885484
     7  Si   3.456366   4.156670   1.638221   4.196128   4.948880
     8  Si   3.392697   1.649380   4.093745   3.991145   4.896027
     9  Si   3.562114   4.717317   4.579941   4.819600   1.636460
    10  O    4.515012   6.005576   5.356105   5.303830   2.753550
    11  O    4.557869   5.228742   5.912028   5.685092   2.702015
    12  O    4.101728   5.123950   4.503348   5.727830   2.608223
    13  O    4.270002   2.719099   5.318542   4.214123   5.663226
    14  O    3.755882   2.684348   3.691278   4.126823   5.584191
    15  O    4.521929   2.653632   5.050190   5.504452   5.704294
    16  O    4.628483   5.398571   5.225104   2.695283   5.880225
    17  O    3.694143   3.874372   3.701875   2.692947   5.558129
    18  O    4.117386   3.853141   5.198238   2.737563   5.546978
    19  O    3.962783   4.790812   2.604299   3.854086   5.616612
    20  O    4.712290   5.611606   2.759598   5.545712   5.818913
    21  O    4.138812   4.063399   2.714813   5.033803   5.739683
    22  H    5.039791   6.082691   5.332170   6.606779   3.489910
    23  H    5.033701   6.449212   6.083772   5.581214   3.266918
    24  H    4.506208   4.808535   5.957853   5.722891   2.881336
    25  H    4.154132   2.987545   5.273682   3.660633   5.594101
    26  H    5.408711   3.540275   5.853271   6.236426   6.653014
    27  H    3.786965   3.069237   3.734823   3.691708   5.710118
    28  H    5.220876   5.922624   3.301022   6.272775   6.232041
    29  H    3.910208   3.450000   2.925766   4.716225   5.632890
    30  H    4.925117   5.695325   3.472237   4.747556   6.547739
    31  H    4.796138   4.613282   6.009671   3.265245   6.012118
    32  H    4.637260   5.717784   5.198616   2.741094   5.657331
    33  H    3.669539   4.154829   3.196280   2.915671   5.519266
                    6          7          8          9         10
     6  Si   0.000000
     7  Si   4.629876   0.000000
     8  Si   4.074145   4.599791   0.000000
     9  Si   6.449688   6.170104   6.362370   0.000000
    10  O    6.920874   6.879195   7.646880   1.650924   0.000000
    11  O    7.234877   7.524151   6.788629   1.657404   2.628407
    12  O    7.314102   5.902603   6.689030   1.649854   2.678150
    13  O    3.902290   5.872660   1.641396   7.149201   8.323381
    14  O    3.877087   3.600906   1.674176   7.115446   8.247924
    15  O    5.711363   5.457933   1.639549   6.947378   8.414198
    16  O    1.648848   5.689656   5.714252   7.298166   7.425510
    17  O    1.650975   3.685040   3.717481   7.163982   7.784919
    18  O    1.663560   5.795749   3.701340   7.105968   7.765235
    19  O    3.813892   1.683113   5.057279   6.966926   7.440274
    20  O    6.085279   1.645340   6.152776   6.736465   7.262127
    21  O    5.239203   1.636949   4.002272   7.002412   7.979146
    22  H    8.208064   6.658309   7.638330   2.255419   2.841011
    23  H    7.152427   7.635293   8.071672   2.245461   0.963913
    24  H    7.189821   7.540530   6.275929   2.267928   3.513481
    25  H    3.128657   5.855309   2.256056   7.132200   8.151068
    26  H    6.244177   6.086107   2.249625   7.905944   9.370019
    27  H    3.135141   3.587160   2.256060   7.305852   8.286982
    28  H    6.848729   2.243958   6.403787   7.047251   7.682444
    29  H    4.792395   2.249212   3.116406   7.004423   8.077953
    30  H    4.538993   2.268308   5.827281   7.852393   8.262085
    31  H    2.262246   6.678899   4.528540   7.491845   8.040927
    32  H    2.250533   5.768130   6.264743   6.951724   6.884059
    33  H    2.275460   2.927521   4.173878   7.064266   7.614796
                   11         12         13         14         15
    11  O    0.000000
    12  O    2.778723   0.000000
    13  O    7.356132   7.774626   0.000000
    14  O    7.851963   7.278042   2.723289   0.000000
    15  O    7.201842   7.018850   2.700024   2.694049   0.000000
    16  O    8.112491   8.288363   5.389792   5.428215   7.353213
    17  O    8.102046   7.705503   3.896453   2.865182   5.259415
    18  O    7.560610   8.068817   2.880569   3.916936   5.263795
    19  O    8.310687   7.013811   5.957555   3.872032   6.240088
    20  O    8.232729   6.164331   7.494165   5.155881   6.830662
    21  O    8.163054   6.632195   5.410000   2.810526   4.509415
    22  H    3.146741   0.963578   8.729424   8.211205   7.909539
    23  H    2.663565   3.499517   8.582863   8.770805   8.881761
    24  H    0.963671   3.165522   6.813810   7.474930   6.547194
    25  H    7.400560   7.900242   0.974101   3.002637   3.586121
    26  H    8.118970   7.970021   2.926327   3.024619   0.963321
    27  H    8.104013   7.606356   2.847614   0.976674   3.552200
    28  H    8.500696   6.275583   7.852614   5.437959   6.858213
    29  H    8.018723   6.793036   4.494969   1.861079   3.668579
    30  H    9.234769   7.824224   6.702236   4.488271   6.947485
    31  H    7.824755   8.594594   3.510712   4.861783   6.032716
    32  H    7.837696   7.973079   6.076357   6.014390   7.887131
    33  H    8.168966   7.455421   4.653125   3.120071   5.618881
                   16         17         18         19         20
    16  O    0.000000
    17  O    2.783000   0.000000
    18  O    2.680926   2.575652   0.000000
    19  O    4.539540   2.744055   5.168846   0.000000
    20  O    6.937839   5.180702   7.370287   2.663909   0.000000
    21  O    6.526587   4.033241   6.029510   2.763822   2.657243
    22  H    9.111860   8.611723   8.996720   7.785426   6.742825
    23  H    7.541220   8.180568   7.892442   8.078825   8.107081
    24  H    8.206594   7.999172   7.336888   8.383430   8.364077
    25  H    4.516976   3.352340   1.930010   5.693261   7.497128
    26  H    7.859527   5.680008   5.648358   6.780802   7.451594
    27  H    4.597968   1.964238   3.283344   3.422586   5.184188
    28  H    7.802766   5.888884   8.033022   3.493521   0.963990
    29  H    6.203837   3.587492   5.355227   3.077509   3.553720
    30  H    5.078888   3.345797   5.874615   0.965369   2.778450
    31  H    2.741336   3.405937   0.963872   5.980819   8.223035
    32  H    0.963680   3.403891   3.458000   4.647801   6.867788
    33  H    3.175806   0.983796   3.492699   1.779698   4.313672
                   21         22         23         24         25
    21  O    0.000000
    22  H    7.420564   0.000000
    23  H    8.729468   3.623267   0.000000
    24  H    7.995276   3.642701   3.582100   0.000000
    25  H    5.616729   8.857372   8.356898   6.952492   0.000000
    26  H    4.976480   8.852644   9.824012   7.434656   3.861888
    27  H    3.119724   8.544428   8.766740   7.803026   2.805637
    28  H    2.724678   6.802308   8.568043   8.584905   7.965297
    29  H    0.980162   7.644357   8.762180   7.760828   4.755849
    30  H    3.141045   8.555507   8.914609   9.324566   6.435776
    31  H    6.981447   9.499345   8.056049   7.622546   2.545589
    32  H    6.806877   8.739182   6.975295   8.042526   5.239825
    33  H    3.507394   8.323418   8.094691   8.140408   4.211277
                   26         27         28         29         30
    26  H    0.000000
    27  H    3.855355   0.000000
    28  H    7.446835   5.616136   0.000000
    29  H    4.094529   2.306602   3.682734   0.000000
    30  H    7.412718   4.014728   3.565906   3.566157   0.000000
    31  H    6.391669   4.234622   8.916129   6.317702   6.665254
    32  H    8.470742   5.236797   7.767394   6.595312   5.190154
    33  H    6.090275   2.337946   5.070530   3.288799   2.384588
                   31         32         33
    31  H    0.000000
    32  H    3.484513   0.000000
    33  H    4.299948   3.584124   0.000000
 Stoichiometry    H12O16Si4Zr
 Framework group  C1[X(H12O16Si4Zr)]
 Deg. of freedom    93
 Full point group                 C1      NOp   1
 Largest Abelian subgroup         C1      NOp   1
 Largest concise Abelian subgroup C1      NOp   1
                         Standard orientation:                         
 ---------------------------------------------------------------------
 Center     Atomic      Atomic             Coordinates (Angstroms)
 Number     Number       Type             X           Y           Z
 ---------------------------------------------------------------------
      1         40           0        0.657783   -0.124641   -0.073192
      2          8           0       -0.221097   -0.906280    1.476515
      3          8           0        0.102445    1.747753   -0.123729
      4          8           0       -0.269590   -0.978475   -1.597798
      5          8           0        2.592127   -0.435345   -0.086363
      6         14           0       -1.832737   -1.332447   -1.952840
      7         14           0       -1.116336    2.841650   -0.082163
      8         14           0       -1.721303   -1.153453    2.115846
      9         14           0        4.216287   -0.260690    0.011623
     10          8           0        4.956419   -0.084812   -1.453580
     11          8           0        4.898661   -1.613195    0.683996
     12          8           0        4.446973    1.121362    0.882676
     13          8           0       -2.316794   -2.624649    1.697335
     14          8           0       -2.722661    0.064339    1.552703
     15          8           0       -1.593296   -1.020304    3.744958
     16          8           0       -2.004542   -1.559479   -3.576921
     17          8           0       -2.826303   -0.187133   -1.299540
     18          8           0       -2.344877   -2.714646   -1.181691
     19          8           0       -2.042527    2.439432   -1.428737
     20          8           0       -0.637133    4.400583   -0.299504
     21          8           0       -1.964932    2.760361    1.315292
     22          1           0        5.334133    1.497368    0.875664
     23          1           0        5.305360   -0.892301   -1.847700
     24          1           0        4.463265   -1.991793    1.455848
     25          1           0       -2.404221   -2.810051    0.745046
     26          1           0       -2.376750   -1.225253    4.266670
     27          1           0       -3.059641   -0.083768    0.648047
     28          1           0       -0.528142    4.927292    0.500481
     29          1           0       -2.267995    1.868700    1.586970
     30          1           0       -2.651095    3.126496   -1.727945
     31          1           0       -2.305203   -3.529694   -1.694694
     32          1           0       -1.274877   -1.262600   -4.132017
     33          1           0       -2.611921    0.754323   -1.488103
 ---------------------------------------------------------------------
 Rotational constants (GHZ):           0.2123989           0.1338473           0.1240704
 General basis read from cards:  (5D, 7F)
 ======================================================================================================
                                       Pseudopotential Parameters
 ======================================================================================================
  Center     Atomic      Valence      Angular      Power
  Number     Number     Electrons     Momentum     of R      Exponent        Coefficient   SO-Coeffient
 ======================================================================================================
    1         40           12
                                      G and up 
                                                     2        1.0000000        0.00000000    0.00000000
                                      S - G
                                                     2        8.6365280      150.24299400    0.00000000
                                                     2        3.7176390       18.78003600    0.00000000
                                      P - G
                                                     2        7.6267280       33.19279100    0.00000000
                                                     2        7.4532070       66.38903900    0.00000000
                                                     2        3.3583890        4.62072600    0.00000000
                                                     2        3.2297380        9.26027000    0.00000000
                                      D - G
                                                     2        5.9380860       13.99338300    0.00000000
                                                     2        5.8255440       20.99588200    0.00000000
                                                     2        2.2050190        2.28516600    0.00000000
                                                     2        2.2062920        3.44126000    0.00000000
                                      F - G
                                                     2        4.8002150       -5.23932000    0.00000000
                                                     2        4.7989920       -6.98742400    0.00000000
    2          8
                                   No pseudopotential on this center.
    3          8
                                   No pseudopotential on this center.
    4          8
                                   No pseudopotential on this center.
    5          8
                                   No pseudopotential on this center.
    6         14
                                   No pseudopotential on this center.
    7         14
                                   No pseudopotential on this center.
    8         14
                                   No pseudopotential on this center.
    9         14
                                   No pseudopotential on this center.
   10          8
                                   No pseudopotential on this center.
   11          8
                                   No pseudopotential on this center.
   12          8
                                   No pseudopotential on this center.
   13          8
                                   No pseudopotential on this center.
   14          8
                                   No pseudopotential on this center.
   15          8
                                   No pseudopotential on this center.
   16          8
                                   No pseudopotential on this center.
   17          8
                                   No pseudopotential on this center.
   18          8
                                   No pseudopotential on this center.
   19          8
                                   No pseudopotential on this center.
   20          8
                                   No pseudopotential on this center.
   21          8
                                   No pseudopotential on this center.
   22          1
                                   No pseudopotential on this center.
   23          1
                                   No pseudopotential on this center.
   24          1
                                   No pseudopotential on this center.
   25          1
                                   No pseudopotential on this center.
   26          1
                                   No pseudopotential on this center.
   27          1
                                   No pseudopotential on this center.
   28          1
                                   No pseudopotential on this center.
   29          1
                                   No pseudopotential on this center.
   30          1
                                   No pseudopotential on this center.
   31          1
                                   No pseudopotential on this center.
   32          1
                                   No pseudopotential on this center.
   33          1
                                   No pseudopotential on this center.
 ======================================================================================================
 There are   570 symmetry adapted cartesian basis functions of A   symmetry.
 There are   524 symmetry adapted basis functions of A   symmetry.
   524 basis functions,  1074 primitive gaussians,   570 cartesian basis functions
   104 alpha electrons      104 beta electrons
       nuclear repulsion energy      2832.8964506632 Hartrees.
 NAtoms=   33 NActive=   33 NUniq=   33 SFac= 1.00D+00 NAtFMM=   60 NAOKFM=F Big=F
 Integral buffers will be    131072 words long.
 Raffenetti 2 integral format.
 Two-electron integral symmetry is turned on.
 Nuclear repulsion after empirical dispersion term =     2832.8556473378 Hartrees.
 One-electron integrals computed using PRISM.
 PrsmSu:  requested number of processors reduced to:   4 ShMem   1 Linda.
   1 Symmetry operations used in ECPInt.
 ECPInt:  NShTT=   13203 NPrTT=   78401 LenC2=   11522 LenP2D=   44633.
 LDataN:  DoStor=T MaxTD1= 8 Len=  415
 Number of processors reduced to  13 by ecpmxn.
 NBasis=   524 RedAO= T EigKep=  3.17D-05  NBF=   524
 NBsUse=   524 1.00D-06 EigRej= -1.00D+00 NBFU=   524
 Defaulting to unpruned grid for atomic number  40.
 ExpMin= 1.01D-02 ExpMax= 1.61D+04 ExpMxC= 2.43D+03 IAcc=3 IRadAn=         5 AccDes= 0.00D+00
 Harris functional with IExCor=  402 and IRadAn=       5 diagonalized for initial guess.
 HarFok:  IExCor=  402 AccDes= 0.00D+00 IRadAn=         5 IDoV= 1 UseB2=F ITyADJ=14
 ICtDFT=  3500011 ScaDFX=  1.000000  1.000000  1.000000  1.000000
 Defaulting to unpruned grid for atomic number  40.
 FoFCou: FMM=F IPFlag=           0 FMFlag=      100000 FMFlg1=           0
         NFxFlg=           0 DoJE=T BraDBF=F KetDBF=T FulRan=T
         wScrn=  0.000000 ICntrl=       500 IOpCl=  0 I1Cent=   200000004 NGrid=           0
         NMat0=    1 NMatS0=      1 NMatT0=    0 NMatD0=    1 NMtDS0=    0 NMtDT0=    0
 Petite list used in FoFCou.
 Requested convergence on RMS density matrix=1.00D-08 within 128 cycles.
 Requested convergence on MAX density matrix=1.00D-06.
 Requested convergence on             energy=1.00D-06.
 No special actions if energy rises.
 Defaulting to unpruned grid for atomic number  40.
 Defaulting to unpruned grid for atomic number  40.
 Defaulting to unpruned grid for atomic number  40.
 Defaulting to unpruned grid for atomic number  40.
 Defaulting to unpruned grid for atomic number  40.
 Defaulting to unpruned grid for atomic number  40.
 Defaulting to unpruned grid for atomic number  40.
 Defaulting to unpruned grid for atomic number  40.
 Defaulting to unpruned grid for atomic number  40.
 Defaulting to unpruned grid for atomic number  40.
 Defaulting to unpruned grid for atomic number  40.
 Defaulting to unpruned grid for atomic number  40.
 Defaulting to unpruned grid for atomic number  40.
 Defaulting to unpruned grid for atomic number  40.
 Defaulting to unpruned grid for atomic number  40.
 Defaulting to unpruned grid for atomic number  40.
 SCF Done:  E(RB3LYP) =  -2416.94685679     A.U. after   14 cycles
            NFock= 14  Conv=0.25D-08     -V/T= 2.0185

 **********************************************************************

            Population analysis using the SCF Density.

 **********************************************************************

 Orbital symmetries:
       Occupied  (A) (A) (A) (A) (A) (A) (A) (A) (A) (A) (A) (A)
                 (A) (A) (A) (A) (A) (A) (A) (A) (A) (A) (A) (A)
                 (A) (A) (A) (A) (A) (A) (A) (A) (A) (A) (A) (A)
                 (A) (A) (A) (A) (A) (A) (A) (A) (A) (A) (A) (A)
                 (A) (A) (A) (A) (A) (A) (A) (A) (A) (A) (A) (A)
                 (A) (A) (A) (A) (A) (A) (A) (A) (A) (A) (A) (A)
                 (A) (A) (A) (A) (A) (A) (A) (A) (A) (A) (A) (A)
                 (A) (A) (A) (A) (A) (A) (A) (A) (A) (A) (A) (A)
                 (A) (A) (A) (A) (A) (A) (A) (A)
       Virtual   (A) (A) (A) (A) (A) (A) (A) (A) (A) (A) (A) (A)
                 (A) (A) (A) (A) (A) (A) (A) (A) (A) (A) (A) (A)
                 (A) (A) (A) (A) (A) (A) (A) (A) (A) (A) (A) (A)
                 (A) (A) (A) (A) (A) (A) (A) (A) (A) (A) (A) (A)
                 (A) (A) (A) (A) (A) (A) (A) (A) (A) (A) (A) (A)
                 (A) (A) (A) (A) (A) (A) (A) (A) (A) (A) (A) (A)
                 (A) (A) (A) (A) (A) (A) (A) (A) (A) (A) (A) (A)
                 (A) (A) (A) (A) (A) (A) (A) (A) (A) (A) (A) (A)
                 (A) (A) (A) (A) (A) (A) (A) (A) (A) (A) (A) (A)
                 (A) (A) (A) (A) (A) (A) (A) (A) (A) (A) (A) (A)
                 (A) (A) (A) (A) (A) (A) (A) (A) (A) (A) (A) (A)
                 (A) (A) (A) (A) (A) (A) (A) (A) (A) (A) (A) (A)
                 (A) (A) (A) (A) (A) (A) (A) (A) (A) (A) (A) (A)
                 (A) (A) (A) (A) (A) (A) (A) (A) (A) (A) (A) (A)
                 (A) (A) (A) (A) (A) (A) (A) (A) (A) (A) (A) (A)
                 (A) (A) (A) (A) (A) (A) (A) (A) (A) (A) (A) (A)
                 (A) (A) (A) (A) (A) (A) (A) (A) (A) (A) (A) (A)
                 (A) (A) (A) (A) (A) (A) (A) (A) (A) (A) (A) (A)
                 (A) (A) (A) (A) (A) (A) (A) (A) (A) (A) (A) (A)
                 (A) (A) (A) (A) (A) (A) (A) (A) (A) (A) (A) (A)
                 (A) (A) (A) (A) (A) (A) (A) (A) (A) (A) (A) (A)
                 (A) (A) (A) (A) (A) (A) (A) (A) (A) (A) (A) (A)
                 (A) (A) (A) (A) (A) (A) (A) (A) (A) (A) (A) (A)
                 (A) (A) (A) (A) (A) (A) (A) (A) (A) (A) (A) (A)
                 (A) (A) (A) (A) (A) (A) (A) (A) (A) (A) (A) (A)
                 (A) (A) (A) (A) (A) (A) (A) (A) (A) (A) (A) (A)
                 (A) (A) (A) (A) (A) (A) (A) (A) (A) (A) (A) (A)
                 (A) (A) (A) (A) (A) (A) (A) (A) (A) (A) (A) (A)
                 (A) (A) (A) (A) (A) (A) (A) (A) (A) (A) (A) (A)
                 (A) (A) (A) (A) (A) (A) (A) (A) (A) (A) (A) (A)
                 (A) (A) (A) (A) (A) (A) (A) (A) (A) (A) (A) (A)
                 (A) (A) (A) (A) (A) (A) (A) (A) (A) (A) (A) (A)
                 (A) (A) (A) (A) (A) (A) (A) (A) (A) (A) (A) (A)
                 (A) (A) (A) (A) (A) (A) (A) (A) (A) (A) (A) (A)
                 (A) (A) (A) (A) (A) (A) (A) (A) (A) (A) (A) (A)
 The electronic state is 1-A.
 Alpha  occ. eigenvalues --  -66.22806 -66.21755 -66.21491 -66.21037 -19.18591
 Alpha  occ. eigenvalues --  -19.18352 -19.17789 -19.17027 -19.16734 -19.16537
 Alpha  occ. eigenvalues --  -19.16441 -19.16221 -19.16184 -19.16013 -19.15996
 Alpha  occ. eigenvalues --  -19.15502 -19.15334 -19.15253 -19.14896 -19.14707
 Alpha  occ. eigenvalues --   -5.36866  -5.35836  -5.35566  -5.35097  -3.72850
 Alpha  occ. eigenvalues --   -3.72823  -3.72777  -3.71828  -3.71781  -3.71746
 Alpha  occ. eigenvalues --   -3.71535  -3.71527  -3.71487  -3.71062  -3.71053
 Alpha  occ. eigenvalues --   -3.71028  -2.13364  -1.29607  -1.29523  -1.29366
 Alpha  occ. eigenvalues --   -1.05682  -1.04776  -1.04152  -1.03497  -1.02566
 Alpha  occ. eigenvalues --   -1.02171  -1.01472  -1.00920  -1.00762  -1.00664
 Alpha  occ. eigenvalues --   -0.99832  -0.99305  -0.97372  -0.96283  -0.95726
 Alpha  occ. eigenvalues --   -0.95403  -0.60992  -0.59160  -0.58975  -0.58489
 Alpha  occ. eigenvalues --   -0.55542  -0.54532  -0.53866  -0.53041  -0.52989
 Alpha  occ. eigenvalues --   -0.52492  -0.52148  -0.51709  -0.48780  -0.47603
 Alpha  occ. eigenvalues --   -0.47203  -0.46720  -0.43376  -0.42652  -0.41862
 Alpha  occ. eigenvalues --   -0.41396  -0.41111  -0.40528  -0.39832  -0.39330
 Alpha  occ. eigenvalues --   -0.38806  -0.38679  -0.38652  -0.38144  -0.38018
 Alpha  occ. eigenvalues --   -0.37626  -0.37487  -0.37184  -0.36535  -0.36412
 Alpha  occ. eigenvalues --   -0.36087  -0.35632  -0.35468  -0.35090  -0.34901
 Alpha  occ. eigenvalues --   -0.34606  -0.33999  -0.33698  -0.33478  -0.33263
 Alpha  occ. eigenvalues --   -0.32813  -0.32178  -0.32054  -0.31302
 Alpha virt. eigenvalues --   -0.04328  -0.03159  -0.03038  -0.02754  -0.02093
 Alpha virt. eigenvalues --   -0.01172  -0.00556  -0.00134   0.00129   0.00286
 Alpha virt. eigenvalues --    0.00762   0.00931   0.01025   0.01950   0.02345
 Alpha virt. eigenvalues --    0.03234   0.03334   0.03852   0.03940   0.04069
 Alpha virt. eigenvalues --    0.04151   0.04724   0.05573   0.05845   0.06176
 Alpha virt. eigenvalues --    0.06476   0.07093   0.07458   0.07714   0.08663
 Alpha virt. eigenvalues --    0.08796   0.09044   0.09185   0.09679   0.09959
 Alpha virt. eigenvalues --    0.10375   0.10654   0.10858   0.11240   0.11690
 Alpha virt. eigenvalues --    0.11822   0.12554   0.13273   0.13333   0.13653
 Alpha virt. eigenvalues --    0.14036   0.14411   0.14884   0.15080   0.15287
 Alpha virt. eigenvalues --    0.15368   0.15746   0.16182   0.16712   0.16936
 Alpha virt. eigenvalues --    0.17383   0.17510   0.17689   0.18131   0.18400
 Alpha virt. eigenvalues --    0.18517   0.18747   0.19216   0.19690   0.19744
 Alpha virt. eigenvalues --    0.20121   0.20326   0.20647   0.20971   0.21197
 Alpha virt. eigenvalues --    0.21751   0.21943   0.22304   0.22448   0.22773
 Alpha virt. eigenvalues --    0.23351   0.23759   0.24042   0.24168   0.24476
 Alpha virt. eigenvalues --    0.24867   0.25095   0.25588   0.25813   0.26152
 Alpha virt. eigenvalues --    0.26580   0.26690   0.26908   0.27241   0.27436
 Alpha virt. eigenvalues --    0.27946   0.28258   0.28532   0.28832   0.29031
 Alpha virt. eigenvalues --    0.29454   0.29716   0.30058   0.30410   0.30634
 Alpha virt. eigenvalues --    0.30820   0.31349   0.31483   0.31566   0.32152
 Alpha virt. eigenvalues --    0.32346   0.32791   0.33082   0.33573   0.34030
 Alpha virt. eigenvalues --    0.34472   0.34617   0.35334   0.35724   0.36271
 Alpha virt. eigenvalues --    0.36978   0.37544   0.38015   0.38441   0.38807
 Alpha virt. eigenvalues --    0.39325   0.39960   0.40007   0.41127   0.41603
 Alpha virt. eigenvalues --    0.42682   0.43138   0.43900   0.44335   0.44943
 Alpha virt. eigenvalues --    0.45303   0.45662   0.45934   0.46651   0.47469
 Alpha virt. eigenvalues --    0.47885   0.48551   0.48859   0.49408   0.49565
 Alpha virt. eigenvalues --    0.50028   0.50842   0.51069   0.51339   0.53148
 Alpha virt. eigenvalues --    0.54120   0.54437   0.55166   0.56790   0.57293
 Alpha virt. eigenvalues --    0.58244   0.58710   0.59094   0.59373   0.60350
 Alpha virt. eigenvalues --    0.61210   0.61691   0.62131   0.64084   0.65884
 Alpha virt. eigenvalues --    0.66899   0.67941   0.68444   0.68822   0.69473
 Alpha virt. eigenvalues --    0.70083   0.70499   0.72972   0.74424   0.75139
 Alpha virt. eigenvalues --    0.75485   0.77378   0.78568   0.79002   0.80391
 Alpha virt. eigenvalues --    0.81145   0.81507   0.82588   0.84132   0.85418
 Alpha virt. eigenvalues --    0.86715   0.87662   0.89838   0.90584   0.91198
 Alpha virt. eigenvalues --    0.94354   0.95714   0.96281   0.96887   0.97481
 Alpha virt. eigenvalues --    0.98125   0.98799   0.99246   0.99788   1.00364
 Alpha virt. eigenvalues --    1.00729   1.01463   1.02076   1.03224   1.04065
 Alpha virt. eigenvalues --    1.04283   1.05573   1.06372   1.06703   1.07945
 Alpha virt. eigenvalues --    1.09765   1.12338   1.15236   1.16191   1.16453
 Alpha virt. eigenvalues --    1.18705   1.19066   1.19864   1.20606   1.21017
 Alpha virt. eigenvalues --    1.21376   1.21773   1.22350   1.22835   1.22960
 Alpha virt. eigenvalues --    1.23476   1.23968   1.24276   1.25217   1.25712
 Alpha virt. eigenvalues --    1.26032   1.27153   1.27528   1.28123   1.28440
 Alpha virt. eigenvalues --    1.28978   1.29816   1.30118   1.30892   1.31418
 Alpha virt. eigenvalues --    1.32449   1.32654   1.33019   1.33419   1.34473
 Alpha virt. eigenvalues --    1.35255   1.36053   1.36500   1.36878   1.37781
 Alpha virt. eigenvalues --    1.39172   1.39741   1.40218   1.41219   1.41500
 Alpha virt. eigenvalues --    1.42761   1.43685   1.44225   1.45261   1.46368
 Alpha virt. eigenvalues --    1.46973   1.48843   1.51122   1.51420   1.52774
 Alpha virt. eigenvalues --    1.56742   1.57269   1.57744   1.59293   1.59766
 Alpha virt. eigenvalues --    1.60068   1.61192   1.61931   1.62494   1.63063
 Alpha virt. eigenvalues --    1.63226   1.63818   1.65216   1.65395   1.66602
 Alpha virt. eigenvalues --    1.67321   1.68008   1.69275   1.69554   1.70102
 Alpha virt. eigenvalues --    1.71370   1.71471   1.71631   1.72653   1.73253
 Alpha virt. eigenvalues --    1.74083   1.74989   1.75640   1.76071   1.76627
 Alpha virt. eigenvalues --    1.77184   1.77359   1.78498   1.78775   1.79653
 Alpha virt. eigenvalues --    1.80547   1.81443   1.82206   1.82519   1.83050
 Alpha virt. eigenvalues --    1.83346   1.84807   1.85084   1.85914   1.86605
 Alpha virt. eigenvalues --    1.87186   1.88081   1.88666   1.89791   1.90477
 Alpha virt. eigenvalues --    1.91227   1.91411   1.92536   1.92800   1.93934
 Alpha virt. eigenvalues --    1.94767   1.94969   1.95898   1.97267   1.98365
 Alpha virt. eigenvalues --    1.98886   2.00501   2.01163   2.02784   2.03665
 Alpha virt. eigenvalues --    2.05888   2.06543   2.07689   2.09794   2.10409
 Alpha virt. eigenvalues --    2.11230   2.13023   2.14321   2.16160   2.16302
 Alpha virt. eigenvalues --    2.17787   2.18834   2.19076   2.20830   2.26479
 Alpha virt. eigenvalues --    2.32532   2.33465   2.35468   2.39476   2.40436
 Alpha virt. eigenvalues --    2.41170   2.41356   2.41710   2.42745   2.43744
 Alpha virt. eigenvalues --    2.44017   2.45694   2.46691   2.47617   2.49019
 Alpha virt. eigenvalues --    2.50215   2.50310   2.51672   2.52737   2.53330
 Alpha virt. eigenvalues --    2.55443   2.58360   2.59215   2.60066   2.60698
 Alpha virt. eigenvalues --    2.61123   2.61780   2.62077   2.62446   2.62792
 Alpha virt. eigenvalues --    2.63162   2.64032   2.64623   2.64988   2.65965
 Alpha virt. eigenvalues --    2.66297   2.66623   2.67330   2.67562   2.69378
 Alpha virt. eigenvalues --    2.69702   2.70309   2.71219   2.71676   2.72391
 Alpha virt. eigenvalues --    2.72871   2.74351   2.75562   2.76757   2.77477
 Alpha virt. eigenvalues --    2.78942   2.80556   2.81473   2.82459   2.83481
 Alpha virt. eigenvalues --    2.83724   2.84702   2.86671   2.87790   2.88140
 Alpha virt. eigenvalues --    3.14782   3.20408   3.35834   3.41116   3.46767
 Alpha virt. eigenvalues --    3.47849   3.48600   3.48634   3.51090   3.51107
 Alpha virt. eigenvalues --    3.52878   3.54105   3.60309   3.61075   3.62062
 Alpha virt. eigenvalues --    3.66198   4.32956   4.59699   7.90089  31.29240
          Condensed to atoms (all electrons):
               1          2          3          4          5          6
     1  Zr  15.084142  -0.123007  -0.001922  -0.134017  -0.191762  -0.600620
     2  O   -0.123007   9.063106   0.019473  -0.042558  -0.057450   0.088192
     3  O   -0.001922   0.019473   8.828654   0.015952  -0.044071  -0.003988
     4  O   -0.134017  -0.042558   0.015952   8.810829  -0.060221  -0.675634
     5  O   -0.191762  -0.057450  -0.044071  -0.060221   9.428817  -0.007240
     6  Si  -0.600620   0.088192  -0.003988  -0.675634  -0.007240  13.991720
     7  Si  -0.614608  -0.028320  -0.875869  -0.007178  -0.033933   0.084238
     8  Si  -0.592112  -0.999440  -0.020105   0.071281  -0.014302  -0.016025
     9  Si  -0.320538  -0.040685  -0.026507  -0.033031  -1.232140   0.038754
    10  O   -0.014594   0.001029  -0.002016   0.000939   0.129865  -0.002385
    11  O   -0.064815   0.003400   0.002989   0.001236   0.314113  -0.000799
    12  O    0.042925  -0.000005   0.004689   0.002073   0.153130  -0.002992
    13  O   -0.035389   0.186094   0.001650  -0.015585  -0.000670   0.035248
    14  O   -0.016835   0.263018  -0.017694  -0.008803   0.001887   0.028843
    15  O   -0.083612   0.292978  -0.000689   0.001238   0.000582  -0.000020
    16  O   -0.124875   0.004689  -0.000493   0.345119   0.003218  -0.424017
    17  O   -0.081244  -0.039826   0.008082   0.218117   0.001324  -0.452563
    18  O   -0.026298  -0.014510   0.003735   0.198273  -0.000614  -0.451262
    19  O    0.001682   0.008957   0.265131   0.010241   0.002133  -0.007640
    20  O   -0.145798  -0.000577   0.163836  -0.000861   0.001479   0.009052
    21  O    0.036161   0.010258   0.146247   0.003420   0.000205  -0.011918
    22  H   -0.008967  -0.000017  -0.000013  -0.000009   0.005780   0.000086
    23  H   -0.007684  -0.000013  -0.000006  -0.000055  -0.025269   0.000087
    24  H   -0.005229  -0.000189  -0.000012   0.000003  -0.005332   0.000074
    25  H    0.016898  -0.019991  -0.000111  -0.000310   0.000019   0.002643
    26  H    0.007276   0.000614   0.000014  -0.000011  -0.000004  -0.000149
    27  H    0.004134  -0.019158   0.000844  -0.001713   0.000011   0.008853
    28  H    0.005070  -0.000011  -0.018405  -0.000014  -0.000015  -0.000282
    29  H    0.004108  -0.007059  -0.020277  -0.000140  -0.000073   0.000142
    30  H    0.000723  -0.000012   0.000057  -0.000454  -0.000008  -0.000654
    31  H   -0.000121   0.000176  -0.000020  -0.018438  -0.000010   0.063734
    32  H    0.002113  -0.000024   0.000040   0.010445   0.000001   0.022760
    33  H   -0.016003   0.001018  -0.010116  -0.009593  -0.000101   0.053254
               7          8          9         10         11         12
     1  Zr  -0.614608  -0.592112  -0.320538  -0.014594  -0.064815   0.042925
     2  O   -0.028320  -0.999440  -0.040685   0.001029   0.003400  -0.000005
     3  O   -0.875869  -0.020105  -0.026507  -0.002016   0.002989   0.004689
     4  O   -0.007178   0.071281  -0.033031   0.000939   0.001236   0.002073
     5  O   -0.033933  -0.014302  -1.232140   0.129865   0.314113   0.153130
     6  Si   0.084238  -0.016025   0.038754  -0.002385  -0.000799  -0.002992
     7  Si  13.795709   0.182346   0.019972  -0.000238  -0.000884   0.003970
     8  Si   0.182346  13.807666   0.026237  -0.000998   0.001204  -0.000866
     9  Si   0.019972   0.026237  14.257090  -0.068370  -0.181824  -0.211577
    10  O   -0.000238  -0.000998  -0.068370   8.525132   0.014683   0.031425
    11  O   -0.000884   0.001204  -0.181824   0.014683   8.517474  -0.050571
    12  O    0.003970  -0.000866  -0.211577   0.031425  -0.050571   8.600875
    13  O    0.007290  -0.095524   0.000217   0.000000   0.000018   0.000008
    14  O    0.009378  -0.368165  -0.001490  -0.000002   0.000002   0.000017
    15  O   -0.002589  -0.304951  -0.000621   0.000000  -0.000024  -0.000016
    16  O    0.003806  -0.010314  -0.001029   0.000005  -0.000003  -0.000001
    17  O   -0.000743   0.096683   0.002556  -0.000001   0.000002  -0.000006
    18  O   -0.000744   0.074745   0.004166  -0.000002  -0.000000  -0.000001
    19  O   -0.409503  -0.016099   0.001039   0.000007  -0.000002  -0.000023
    20  O   -0.108862   0.009642   0.003148   0.000003  -0.000003  -0.000030
    21  O    0.024514  -0.040147  -0.001797   0.000001   0.000001   0.000023
    22  H   -0.000182   0.000090   0.047291  -0.006507  -0.005067   0.219649
    23  H    0.000060   0.000062   0.081086   0.228565  -0.006128   0.005873
    24  H    0.000053  -0.000089   0.037054   0.007363   0.242512  -0.007424
    25  H   -0.000459   0.057418  -0.000210   0.000000  -0.000000  -0.000000
    26  H   -0.000382   0.046138  -0.000043  -0.000000   0.000000  -0.000000
    27  H    0.001344   0.068449  -0.000007   0.000000  -0.000000  -0.000000
    28  H    0.056616  -0.000066  -0.000136  -0.000000  -0.000000  -0.000003
    29  H    0.048171   0.021939  -0.000057   0.000000   0.000000  -0.000001
    30  H    0.040297   0.000111   0.000022  -0.000000   0.000000   0.000000
    31  H    0.000154  -0.001978  -0.000052   0.000000  -0.000000   0.000000
    32  H   -0.000661   0.000053   0.000009  -0.000000   0.000000  -0.000000
    33  H    0.020636   0.000103   0.000077  -0.000000   0.000000   0.000000
              13         14         15         16         17         18
     1  Zr  -0.035389  -0.016835  -0.083612  -0.124875  -0.081244  -0.026298
     2  O    0.186094   0.263018   0.292978   0.004689  -0.039826  -0.014510
     3  O    0.001650  -0.017694  -0.000689  -0.000493   0.008082   0.003735
     4  O   -0.015585  -0.008803   0.001238   0.345119   0.218117   0.198273
     5  O   -0.000670   0.001887   0.000582   0.003218   0.001324  -0.000614
     6  Si   0.035248   0.028843  -0.000020  -0.424017  -0.452563  -0.451262
     7  Si   0.007290   0.009378  -0.002589   0.003806  -0.000743  -0.000744
     8  Si  -0.095524  -0.368165  -0.304951  -0.010314   0.096683   0.074745
     9  Si   0.000217  -0.001490  -0.000621  -0.001029   0.002556   0.004166
    10  O    0.000000  -0.000002   0.000000   0.000005  -0.000001  -0.000002
    11  O    0.000018   0.000002  -0.000024  -0.000003   0.000002  -0.000000
    12  O    0.000008   0.000017  -0.000016  -0.000001  -0.000006  -0.000001
    13  O    8.628181   0.087045  -0.090607   0.003734  -0.030892  -0.045594
    14  O    0.087045   8.674421   0.055537   0.003666  -0.035856  -0.026861
    15  O   -0.090607   0.055537   8.777355  -0.000175   0.003602   0.001675
    16  O    0.003734   0.003666  -0.000175   8.902259  -0.091660  -0.114904
    17  O   -0.030892  -0.035856   0.003602  -0.091660   8.935537   0.227470
    18  O   -0.045594  -0.026861   0.001675  -0.114904   0.227470   9.012960
    19  O    0.000179  -0.000440   0.000141  -0.001536  -0.030014   0.000161
    20  O    0.000008  -0.000248   0.000038   0.000065  -0.000981   0.000015
    21  O   -0.000253   0.015982  -0.000614  -0.000213  -0.005566   0.000477
    22  H   -0.000000  -0.000000  -0.000000   0.000000   0.000000  -0.000000
    23  H    0.000000   0.000000  -0.000000  -0.000000   0.000000  -0.000000
    24  H   -0.000000   0.000000   0.000002   0.000000  -0.000000  -0.000000
    25  H    0.218394  -0.011953   0.008914  -0.000054   0.000634   0.014935
    26  H   -0.005121  -0.010087   0.216978   0.000000  -0.000003   0.000006
    27  H   -0.009724   0.219320   0.004630   0.000184   0.017928  -0.000257
    28  H    0.000000  -0.000006  -0.000001  -0.000000   0.000004  -0.000000
    29  H    0.000797   0.017582  -0.002571  -0.000004  -0.000395   0.000006
    30  H    0.000001   0.000001   0.000000   0.000115  -0.000399  -0.000007
    31  H    0.002361   0.000167  -0.000018   0.003778  -0.000751   0.218149
    32  H   -0.000008  -0.000006   0.000000   0.233454  -0.003635   0.003883
    33  H    0.000230   0.002089  -0.000035  -0.000108   0.231007   0.002104
              19         20         21         22         23         24
     1  Zr   0.001682  -0.145798   0.036161  -0.008967  -0.007684  -0.005229
     2  O    0.008957  -0.000577   0.010258  -0.000017  -0.000013  -0.000189
     3  O    0.265131   0.163836   0.146247  -0.000013  -0.000006  -0.000012
     4  O    0.010241  -0.000861   0.003420  -0.000009  -0.000055   0.000003
     5  O    0.002133   0.001479   0.000205   0.005780  -0.025269  -0.005332
     6  Si  -0.007640   0.009052  -0.011918   0.000086   0.000087   0.000074
     7  Si  -0.409503  -0.108862   0.024514  -0.000182   0.000060   0.000053
     8  Si  -0.016099   0.009642  -0.040147   0.000090   0.000062  -0.000089
     9  Si   0.001039   0.003148  -0.001797   0.047291   0.081086   0.037054
    10  O    0.000007   0.000003   0.000001  -0.006507   0.228565   0.007363
    11  O   -0.000002  -0.000003   0.000001  -0.005067  -0.006128   0.242512
    12  O   -0.000023  -0.000030   0.000023   0.219649   0.005873  -0.007424
    13  O    0.000179   0.000008  -0.000253  -0.000000   0.000000  -0.000000
    14  O   -0.000440  -0.000248   0.015982  -0.000000   0.000000   0.000000
    15  O    0.000141   0.000038  -0.000614  -0.000000  -0.000000   0.000002
    16  O   -0.001536   0.000065  -0.000213   0.000000  -0.000000   0.000000
    17  O   -0.030014  -0.000981  -0.005566   0.000000   0.000000  -0.000000
    18  O    0.000161   0.000015   0.000477  -0.000000  -0.000000  -0.000000
    19  O    8.872861   0.032197   0.023417  -0.000000   0.000000  -0.000000
    20  O    0.032197   8.657102  -0.050468   0.000000   0.000000  -0.000000
    21  O    0.023417  -0.050468   8.485494  -0.000000   0.000000   0.000000
    22  H   -0.000000   0.000000  -0.000000   0.361742   0.000057   0.000122
    23  H    0.000000   0.000000   0.000000   0.000057   0.351019   0.000014
    24  H   -0.000000  -0.000000   0.000000   0.000122   0.000014   0.365175
    25  H   -0.000024   0.000000  -0.000019   0.000000   0.000000   0.000000
    26  H    0.000001  -0.000000   0.000039  -0.000000  -0.000000  -0.000000
    27  H    0.000034   0.000192  -0.004016  -0.000000  -0.000000   0.000000
    28  H    0.004619   0.229584  -0.002065  -0.000000   0.000000  -0.000000
    29  H   -0.008571   0.007668   0.206471   0.000000   0.000000  -0.000000
    30  H    0.224173  -0.001482  -0.007147   0.000000   0.000000  -0.000000
    31  H    0.000004  -0.000000  -0.000000  -0.000000  -0.000000   0.000000
    32  H    0.000097  -0.000000   0.000001  -0.000000  -0.000000  -0.000000
    33  H    0.014831  -0.000081   0.001474  -0.000000  -0.000000  -0.000000
              25         26         27         28         29         30
     1  Zr   0.016898   0.007276   0.004134   0.005070   0.004108   0.000723
     2  O   -0.019991   0.000614  -0.019158  -0.000011  -0.007059  -0.000012
     3  O   -0.000111   0.000014   0.000844  -0.018405  -0.020277   0.000057
     4  O   -0.000310  -0.000011  -0.001713  -0.000014  -0.000140  -0.000454
     5  O    0.000019  -0.000004   0.000011  -0.000015  -0.000073  -0.000008
     6  Si   0.002643  -0.000149   0.008853  -0.000282   0.000142  -0.000654
     7  Si  -0.000459  -0.000382   0.001344   0.056616   0.048171   0.040297
     8  Si   0.057418   0.046138   0.068449  -0.000066   0.021939   0.000111
     9  Si  -0.000210  -0.000043  -0.000007  -0.000136  -0.000057   0.000022
    10  O    0.000000  -0.000000   0.000000  -0.000000   0.000000  -0.000000
    11  O   -0.000000   0.000000  -0.000000  -0.000000   0.000000   0.000000
    12  O   -0.000000  -0.000000  -0.000000  -0.000003  -0.000001   0.000000
    13  O    0.218394  -0.005121  -0.009724   0.000000   0.000797   0.000001
    14  O   -0.011953  -0.010087   0.219320  -0.000006   0.017582   0.000001
    15  O    0.008914   0.216978   0.004630  -0.000001  -0.002571   0.000000
    16  O   -0.000054   0.000000   0.000184  -0.000000  -0.000004   0.000115
    17  O    0.000634  -0.000003   0.017928   0.000004  -0.000395  -0.000399
    18  O    0.014935   0.000006  -0.000257  -0.000000   0.000006  -0.000007
    19  O   -0.000024   0.000001   0.000034   0.004619  -0.008571   0.224173
    20  O    0.000000  -0.000000   0.000192   0.229584   0.007668  -0.001482
    21  O   -0.000019   0.000039  -0.004016  -0.002065   0.206471  -0.007147
    22  H    0.000000  -0.000000  -0.000000  -0.000000   0.000000   0.000000
    23  H    0.000000  -0.000000  -0.000000   0.000000   0.000000   0.000000
    24  H    0.000000  -0.000000   0.000000  -0.000000  -0.000000  -0.000000
    25  H    0.298889  -0.000012   0.000113   0.000000   0.000001   0.000000
    26  H   -0.000012   0.366018   0.000036   0.000000   0.000021  -0.000000
    27  H    0.000113   0.000036   0.283361  -0.000000  -0.001497   0.000009
    28  H    0.000000   0.000000  -0.000000   0.349176  -0.000017  -0.000016
    29  H    0.000001   0.000021  -0.001497  -0.000017   0.285938   0.000156
    30  H    0.000000  -0.000000   0.000009  -0.000016   0.000156   0.334256
    31  H   -0.000494   0.000000   0.000013  -0.000000   0.000000  -0.000000
    32  H   -0.000001   0.000000  -0.000000   0.000000  -0.000000  -0.000000
    33  H    0.000006  -0.000000  -0.002410  -0.000002   0.000100  -0.001158
              31         32         33
     1  Zr  -0.000121   0.002113  -0.016003
     2  O    0.000176  -0.000024   0.001018
     3  O   -0.000020   0.000040  -0.010116
     4  O   -0.018438   0.010445  -0.009593
     5  O   -0.000010   0.000001  -0.000101
     6  Si   0.063734   0.022760   0.053254
     7  Si   0.000154  -0.000661   0.020636
     8  Si  -0.001978   0.000053   0.000103
     9  Si  -0.000052   0.000009   0.000077
    10  O    0.000000  -0.000000  -0.000000
    11  O   -0.000000   0.000000   0.000000
    12  O    0.000000  -0.000000   0.000000
    13  O    0.002361  -0.000008   0.000230
    14  O    0.000167  -0.000006   0.002089
    15  O   -0.000018   0.000000  -0.000035
    16  O    0.003778   0.233454  -0.000108
    17  O   -0.000751  -0.003635   0.231007
    18  O    0.218149   0.003883   0.002104
    19  O    0.000004   0.000097   0.014831
    20  O   -0.000000  -0.000000  -0.000081
    21  O   -0.000000   0.000001   0.001474
    22  H   -0.000000  -0.000000  -0.000000
    23  H   -0.000000  -0.000000  -0.000000
    24  H    0.000000  -0.000000  -0.000000
    25  H   -0.000494  -0.000001   0.000006
    26  H    0.000000   0.000000  -0.000000
    27  H    0.000013  -0.000000  -0.002410
    28  H   -0.000000   0.000000  -0.000002
    29  H    0.000000  -0.000000   0.000100
    30  H   -0.000000  -0.000000  -0.001158
    31  H    0.331394   0.000001  -0.000038
    32  H    0.000001   0.349967   0.000157
    33  H   -0.000038   0.000157   0.269257
 Mulliken charges:
               1
     1  Zr   0.004818
     2  O   -0.550149
     3  O   -0.419084
     4  O   -0.680542
     5  O   -0.369345
     6  Si   2.230507
     7  Si   1.786600
     8  Si   2.017016
     9  Si   1.601396
    10  O   -0.843901
    11  O   -0.787513
    12  O   -0.791142
    13  O   -0.842091
    14  O   -0.880508
    15  O   -0.877127
    16  O   -0.734708
    17  O   -0.968411
    18  O   -1.081704
    19  O   -0.988053
    20  O   -0.804640
    21  O   -0.829965
    22  H    0.385944
    23  H    0.372331
    24  H    0.365903
    25  H    0.414772
    26  H    0.378671
    27  H    0.429328
    28  H    0.375969
    29  H    0.447561
    30  H    0.411416
    31  H    0.401990
    32  H    0.381355
    33  H    0.443305
 Sum of Mulliken charges =  -0.00000
 Mulliken charges with hydrogens summed into heavy atoms:
               1
     1  Zr   0.004818
     2  O   -0.550149
     3  O   -0.419084
     4  O   -0.680542
     5  O   -0.369345
     6  Si   2.230507
     7  Si   1.786600
     8  Si   2.017016
     9  Si   1.601396
    10  O   -0.471570
    11  O   -0.421609
    12  O   -0.405198
    13  O   -0.427319
    14  O   -0.451180
    15  O   -0.498456
    16  O   -0.353353
    17  O   -0.525106
    18  O   -0.679714
    19  O   -0.576637
    20  O   -0.428670
    21  O   -0.382403
 Electronic spatial extent (au):  <R**2>=           9868.9390
 Charge=              0.0000 electrons
 Dipole moment (field-independent basis, Debye):
    X=              1.0747    Y=             -0.7829    Z=             -2.4207  Tot=              2.7618
 Quadrupole moment (field-independent basis, Debye-Ang):
   XX=           -160.2082   YY=           -154.6579   ZZ=           -157.7880
   XY=             -4.9393   XZ=              2.2122   YZ=              5.7242
 Traceless Quadrupole moment (field-independent basis, Debye-Ang):
   XX=             -2.6569   YY=              2.8935   ZZ=             -0.2366
   XY=             -4.9393   XZ=              2.2122   YZ=              5.7242
 Octapole moment (field-independent basis, Debye-Ang**2):
  XXX=             74.3137  YYY=              6.6400  ZZZ=            -18.9992  XYY=             -2.2924
  XXY=             20.1941  XXZ=             19.1097  XZZ=              5.4515  YZZ=            -17.2358
  YYZ=            -15.4251  XYZ=             28.0934
 Hexadecapole moment (field-independent basis, Debye-Ang**3):
 XXXX=          -6031.4514 YYYY=          -2835.0075 ZZZZ=          -2260.7153 XXXY=             56.3996
 XXXZ=            -23.1342 YYYX=              4.3438 YYYZ=            217.3043 ZZZX=           -185.3965
 ZZZY=            -54.8131 XXYY=          -1483.9467 XXZZ=          -1361.3758 YYZZ=           -924.8293
 XXYZ=             -7.2684 YYXZ=            131.3063 ZZXY=            -59.7915
 N-N= 2.832855647338D+03 E-N=-1.137831227232D+04  KE= 2.373154964725D+03
 PrsmSu:  requested number of processors reduced to:   2 ShMem   1 Linda.
 PrsmSu:  requested number of processors reduced to:  10 ShMem   1 Linda.
   1 Symmetry operations used in ECPInt.
 ECPInt:  NShTT=   13203 NPrTT=   78401 LenC2=   11522 LenP2D=   44633.
 LDataN:  DoStor=T MaxTD1= 9 Len=  602
 Number of processors reduced to  14 by ecpmxn.
 Calling FoFJK, ICntrl=      2127 FMM=F ISym2X=0 I1Cent= 0 IOpClX= 0 NMat=1 NMatS=1 NMatT=0.
 CoulSu:  requested number of processors reduced to:  10 ShMem   1 Linda.
 Defaulting to unpruned grid for atomic number  40.
 Defaulting to unpruned grid for atomic number  40.
 Defaulting to unpruned grid for atomic number  40.
 Defaulting to unpruned grid for atomic number  40.
 Defaulting to unpruned grid for atomic number  40.
 Defaulting to unpruned grid for atomic number  40.
 Defaulting to unpruned grid for atomic number  40.
 Defaulting to unpruned grid for atomic number  40.
 Defaulting to unpruned grid for atomic number  40.
 Defaulting to unpruned grid for atomic number  40.
 Defaulting to unpruned grid for atomic number  40.
 Defaulting to unpruned grid for atomic number  40.
 Defaulting to unpruned grid for atomic number  40.
 Defaulting to unpruned grid for atomic number  40.
 Defaulting to unpruned grid for atomic number  40.
 Defaulting to unpruned grid for atomic number  40.
 ***** Axes restored to original set *****
 -------------------------------------------------------------------
 Center     Atomic                   Forces (Hartrees/Bohr)
 Number     Number              X              Y              Z
 -------------------------------------------------------------------
      1       40          -0.000004230   -0.000008293    0.000031864
      2        8          -0.000008762    0.000001031   -0.000017682
      3        8           0.000011307    0.000010928   -0.000004949
      4        8           0.000009824   -0.000010332   -0.000001746
      5        8           0.000006727   -0.000002335   -0.000019810
      6       14          -0.000020146    0.000013847    0.000005274
      7       14           0.000007283   -0.000007494    0.000003117
      8       14           0.000001458    0.000000681    0.000016947
      9       14          -0.000015663    0.000021714    0.000008988
     10        8           0.000013033   -0.000005048   -0.000007730
     11        8           0.000004641   -0.000028992   -0.000004716
     12        8           0.000001232    0.000000960    0.000001653
     13        8          -0.000002857    0.000000138   -0.000001063
     14        8           0.000000376   -0.000000781   -0.000001457
     15        8          -0.000004346   -0.000004021   -0.000013780
     16        8           0.000004536   -0.000002119   -0.000003370
     17        8           0.000011061   -0.000004670   -0.000007296
     18        8          -0.000005524    0.000003125    0.000002472
     19        8          -0.000000262    0.000002338   -0.000001762
     20        8           0.000002829    0.000002404    0.000002248
     21        8          -0.000005139    0.000003927   -0.000004040
     22        1          -0.000004180   -0.000005109    0.000000200
     23        1          -0.000009526   -0.000001195    0.000001867
     24        1           0.000004092    0.000012787    0.000006285
     25        1           0.000000417    0.000000942   -0.000001724
     26        1           0.000000377    0.000004049    0.000003289
     27        1          -0.000002029    0.000002231   -0.000001261
     28        1           0.000001904   -0.000000143   -0.000000303
     29        1           0.000003681   -0.000000805    0.000003746
     30        1           0.000001311    0.000001154    0.000000750
     31        1           0.000003704   -0.000003358   -0.000002405
     32        1          -0.000005760    0.000001169    0.000001703
     33        1          -0.000001368    0.000001271    0.000004694
 -------------------------------------------------------------------
 Cartesian Forces:  Max     0.000031864 RMS     0.000008117

 GradGradGradGradGradGradGradGradGradGradGradGradGradGradGradGradGradGrad
 Berny optimization.
 FormGI is forming the generalized inverse of G from B-inverse, IUseBI=4.
 Internal  Forces:  Max     0.000030367 RMS     0.000006852
 Search for a local minimum.
 Step number   1 out of a maximum of  148
 All quantities printed in internal units (Hartrees-Bohrs-Radians)
 Mixed Optimization -- En-DIIS/RFO-DIIS
 Second derivative matrix not updated -- first step.
 ITU=  0
     Eigenvalues ---    0.00230   0.00230   0.00230   0.03240   0.03358
     Eigenvalues ---    0.03498   0.03580   0.03665   0.03666   0.03680
     Eigenvalues ---    0.03686   0.03693   0.03739   0.03789   0.03792
     Eigenvalues ---    0.03816   0.03834   0.03850   0.05521   0.09402
     Eigenvalues ---    0.09687   0.11077   0.11224   0.11833   0.11884
     Eigenvalues ---    0.11890   0.12177   0.12239   0.12299   0.12782
     Eigenvalues ---    0.12895   0.13099   0.13313   0.16000   0.16000
     Eigenvalues ---    0.16000   0.16000   0.16000   0.16000   0.16000
     Eigenvalues ---    0.16000   0.16000   0.16000   0.16000   0.16000
     Eigenvalues ---    0.19173   0.19314   0.19332   0.20013   0.20203
     Eigenvalues ---    0.20204   0.20208   0.20515   0.20653   0.20795
     Eigenvalues ---    0.20989   0.21175   0.21186   0.21227   0.25000
     Eigenvalues ---    0.25000   0.25000   0.38002   0.39187   0.40659
     Eigenvalues ---    0.41547   0.42502   0.42510   0.42671   0.42743
     Eigenvalues ---    0.42824   0.43363   0.43951   0.43980   0.44273
     Eigenvalues ---    0.44485   0.44689   0.44768   0.50655   0.51353
     Eigenvalues ---    0.52036   0.52548   0.54334   0.54624   0.54640
     Eigenvalues ---    0.54649   0.54689   0.54691   0.54711   0.54765
     Eigenvalues --- 1000.000001000.000001000.000001000.000001000.00000
     Eigenvalues --- 1000.000001000.000001000.000001000.000001000.00000
     Eigenvalues --- 1000.000001000.000001000.000001000.000001000.00000
     Eigenvalues --- 1000.000001000.000001000.000001000.000001000.00000
     Eigenvalues --- 1000.000001000.000001000.000001000.000001000.00000
     Eigenvalues --- 1000.000001000.000001000.000001000.000001000.00000
     Eigenvalues --- 1000.000001000.000001000.000001000.000001000.00000
     Eigenvalues --- 1000.000001000.000001000.000001000.000001000.00000
     Eigenvalues --- 1000.000001000.000001000.000001000.000001000.00000
     Eigenvalues --- 1000.000001000.000001000.00000
 RFO step:  Lambda=-5.16764380D-08 EMin= 2.30000000D-03
 Linear search not attempted -- first point.
 Iteration  1 RMS(Cart)=  0.00112134 RMS(Int)=  0.00000023
 Iteration  2 RMS(Cart)=  0.00000040 RMS(Int)=  0.00000000
 Iteration  1 RMS(Cart)=  0.00000000 RMS(Int)=  0.00000000
 Variable       Old X    -DE/DX   Delta X   Delta X   Delta X     New X
                                 (Linear)    (Quad)   (Total)
    R1        3.67647  -0.00001   0.00000  -0.00003  -0.00003   3.67643
    R2        3.69189   0.00000   0.00000   0.00002   0.00002   3.69192
    R3        3.73835   0.00000   0.00000   0.00002   0.00002   3.73837
    R4        3.70232   0.00000   0.00000   0.00000   0.00000   3.70232
    R5        3.11688   0.00000   0.00000   0.00001   0.00001   3.11688
    R6        3.09579  -0.00000   0.00000  -0.00001  -0.00001   3.09578
    R7        3.10213   0.00001   0.00000   0.00002   0.00002   3.10215
    R8        3.09246  -0.00000   0.00000  -0.00001  -0.00001   3.09245
    R9        3.11587   0.00000   0.00000   0.00000   0.00000   3.11588
   R10        3.11989  -0.00001   0.00000  -0.00002  -0.00002   3.11987
   R11        3.14367   0.00000   0.00000   0.00000   0.00000   3.14368
   R12        3.18062   0.00000   0.00000   0.00000   0.00000   3.18063
   R13        3.10924   0.00000   0.00000   0.00000   0.00000   3.10925
   R14        3.09339   0.00000   0.00000   0.00000   0.00000   3.09339
   R15        3.10179   0.00000   0.00000   0.00000   0.00000   3.10179
   R16        3.16373   0.00000   0.00000   0.00000   0.00000   3.16374
   R17        3.09830  -0.00001   0.00000  -0.00002  -0.00002   3.09827
   R18        3.11979   0.00001   0.00000   0.00002   0.00002   3.11981
   R19        3.13204   0.00001   0.00000   0.00004   0.00004   3.13208
   R20        3.11777   0.00000   0.00000   0.00000   0.00000   3.11777
   R21        1.82153  -0.00000   0.00000  -0.00001  -0.00001   1.82152
   R22        1.82107  -0.00000   0.00000  -0.00001  -0.00001   1.82107
   R23        1.82090  -0.00001   0.00000  -0.00001  -0.00001   1.82089
   R24        1.84078   0.00000   0.00000   0.00000   0.00000   1.84079
   R25        1.84565   0.00000   0.00000   0.00000   0.00000   1.84565
   R26        1.82041   0.00000   0.00000   0.00000   0.00000   1.82041
   R27        1.82109  -0.00000   0.00000  -0.00001  -0.00001   1.82108
   R28        1.85910  -0.00000   0.00000  -0.00000  -0.00000   1.85910
   R29        1.82145   0.00001   0.00000   0.00001   0.00001   1.82146
   R30        1.82428  -0.00000   0.00000  -0.00000  -0.00000   1.82428
   R31        1.82168  -0.00000   0.00000  -0.00000  -0.00000   1.82168
   R32        1.85224   0.00000   0.00000   0.00000   0.00000   1.85224
    A1        1.85172   0.00001   0.00000   0.00010   0.00010   1.85182
    A2        1.80155  -0.00002   0.00000  -0.00011  -0.00011   1.80144
    A3        1.96889   0.00003   0.00000   0.00021   0.00021   1.96910
    A4        1.83430   0.00002   0.00000  -0.00000  -0.00000   1.83430
    A5        2.01802  -0.00003   0.00000  -0.00015  -0.00015   2.01787
    A6        1.97057   0.00000   0.00000  -0.00004  -0.00004   1.97053
    A7        2.46524  -0.00000   0.00000  -0.00001  -0.00001   2.46523
    A8        2.58826   0.00000   0.00000   0.00000   0.00000   2.58826
    A9        2.35483  -0.00002   0.00000  -0.00007  -0.00007   2.35476
   A10        2.86714  -0.00002   0.00000   0.00000  -0.00000   2.86714
   A11        1.91978   0.00000   0.00000   0.00001   0.00001   1.91979
   A12        1.91546  -0.00000   0.00000  -0.00001  -0.00001   1.91546
   A13        1.95201  -0.00000   0.00000  -0.00003  -0.00003   1.95199
   A14        2.00708   0.00000   0.00000   0.00002   0.00002   2.00710
   A15        1.88610  -0.00000   0.00000  -0.00001  -0.00001   1.88609
   A16        1.78001   0.00000   0.00000   0.00001   0.00001   1.78002
[...]
 Alpha virt. eigenvalues --    3.14783   3.20406   3.35836   3.41116   3.46768
 Alpha virt. eigenvalues --    3.47849   3.48601   3.48634   3.51084   3.51106
 Alpha virt. eigenvalues --    3.52871   3.54106   3.60308   3.61076   3.62058
 Alpha virt. eigenvalues --    3.66208   4.32912   4.59747   7.90088  31.29241
          Condensed to atoms (all electrons):
               1          2          3          4          5          6
     1  Zr  15.084467  -0.124113  -0.001558  -0.133946  -0.192182  -0.600135
     2  O   -0.124113   9.063295   0.019516  -0.042546  -0.057450   0.088392
     3  O   -0.001558   0.019516   8.828462   0.015929  -0.044073  -0.004042
     4  O   -0.133946  -0.042546   0.015929   8.810565  -0.060191  -0.675328
     5  O   -0.192182  -0.057450  -0.044073  -0.060191   9.428687  -0.007223
     6  Si  -0.600135   0.088392  -0.004042  -0.675328  -0.007223  13.990642
     7  Si  -0.614618  -0.028228  -0.875881  -0.007161  -0.033937   0.084274
     8  Si  -0.591046  -0.999100  -0.020178   0.071309  -0.014291  -0.016405
     9  Si  -0.320277  -0.040536  -0.026544  -0.033058  -1.231523   0.038740
    10  O   -0.014611   0.001025  -0.002017   0.000937   0.129753  -0.002389
    11  O   -0.064754   0.003393   0.002992   0.001236   0.313873  -0.000798
    12  O    0.042830  -0.000012   0.004692   0.002074   0.153099  -0.002989
    13  O   -0.035605   0.186137   0.001648  -0.015584  -0.000672   0.035298
    14  O   -0.017193   0.263047  -0.017679  -0.008833   0.001888   0.028959
    15  O   -0.083629   0.292990  -0.000683   0.001239   0.000582  -0.000016
    16  O   -0.124840   0.004694  -0.000495   0.345027   0.003223  -0.423884
    17  O   -0.081194  -0.039863   0.008044   0.218050   0.001314  -0.452537
    18  O   -0.026547  -0.014492   0.003733   0.198321  -0.000613  -0.451066
    19  O    0.001434   0.008963   0.265140   0.010246   0.002132  -0.007586
    20  O   -0.145836  -0.000576   0.163774  -0.000860   0.001482   0.009051
    21  O    0.036195   0.010266   0.146277   0.003419   0.000207  -0.011917
    22  H   -0.008957  -0.000017  -0.000013  -0.000009   0.005783   0.000086
    23  H   -0.007670  -0.000013  -0.000006  -0.000055  -0.025277   0.000087
    24  H   -0.005238  -0.000188  -0.000012   0.000003  -0.005355   0.000073
    25  H    0.016943  -0.019995  -0.000110  -0.000310   0.000019   0.002633
    26  H    0.007275   0.000612   0.000014  -0.000011  -0.000004  -0.000149
    27  H    0.004176  -0.019163   0.000843  -0.001713   0.000011   0.008854
    28  H    0.005073  -0.000011  -0.018401  -0.000014  -0.000015  -0.000282
    29  H    0.004119  -0.007068  -0.020274  -0.000140  -0.000073   0.000143
    30  H    0.000738  -0.000012   0.000057  -0.000454  -0.000008  -0.000660
    31  H   -0.000117   0.000175  -0.000020  -0.018444  -0.000010   0.063742
    32  H    0.002109  -0.000024   0.000040   0.010434   0.000001   0.022783
    33  H   -0.015993   0.001019  -0.010113  -0.009579  -0.000101   0.053231
               7          8          9         10         11         12
     1  Zr  -0.614618  -0.591046  -0.320277  -0.014611  -0.064754   0.042830
     2  O   -0.028228  -0.999100  -0.040536   0.001025   0.003393  -0.000012
     3  O   -0.875881  -0.020178  -0.026544  -0.002017   0.002992   0.004692
     4  O   -0.007161   0.071309  -0.033058   0.000937   0.001236   0.002074
     5  O   -0.033937  -0.014291  -1.231523   0.129753   0.313873   0.153099
     6  Si   0.084274  -0.016405   0.038740  -0.002389  -0.000798  -0.002989
     7  Si  13.795627   0.182240   0.019970  -0.000239  -0.000884   0.003973
     8  Si   0.182240  13.806428   0.026224  -0.000998   0.001200  -0.000862
     9  Si   0.019970   0.026224  14.255538  -0.068021  -0.181368  -0.211361
    10  O   -0.000239  -0.000998  -0.068021   8.524891   0.014668   0.031362
    11  O   -0.000884   0.001200  -0.181368   0.014668   8.517250  -0.050687
    12  O    0.003973  -0.000862  -0.211361   0.031362  -0.050687   8.600805
    13  O    0.007294  -0.095480   0.000223   0.000000   0.000018   0.000008
    14  O    0.009387  -0.367943  -0.001487  -0.000002   0.000002   0.000017
    15  O   -0.002581  -0.305045  -0.000623   0.000000  -0.000024  -0.000016
    16  O    0.003800  -0.010319  -0.001028   0.000005  -0.000003  -0.000001
    17  O   -0.000689   0.096758   0.002550  -0.000001   0.000002  -0.000006
    18  O   -0.000741   0.074789   0.004167  -0.000002  -0.000000  -0.000001
    19  O   -0.409269  -0.016075   0.001043   0.000007  -0.000002  -0.000023
    20  O   -0.108824   0.009649   0.003153   0.000003  -0.000003  -0.000029
    21  O    0.024427  -0.040160  -0.001798   0.000001   0.000001   0.000024
    22  H   -0.000182   0.000090   0.047274  -0.006512  -0.005070   0.219672
    23  H    0.000060   0.000062   0.081083   0.228580  -0.006138   0.005878
    24  H    0.000053  -0.000088   0.037116   0.007368   0.242490  -0.007436
    25  H   -0.000459   0.057411  -0.000210   0.000000  -0.000000  -0.000000
    26  H   -0.000382   0.046140  -0.000043  -0.000000   0.000000  -0.000000
    27  H    0.001340   0.068430  -0.000007   0.000000  -0.000000  -0.000000
    28  H    0.056613  -0.000067  -0.000136  -0.000000  -0.000000  -0.000003
    29  H    0.048163   0.021949  -0.000057   0.000000   0.000000  -0.000001
    30  H    0.040275   0.000111   0.000023  -0.000000   0.000000   0.000000
    31  H    0.000154  -0.001981  -0.000052   0.000000  -0.000000   0.000000
    32  H   -0.000662   0.000053   0.000008  -0.000000   0.000000  -0.000000
    33  H    0.020619   0.000102   0.000077  -0.000000   0.000000   0.000000
              13         14         15         16         17         18
     1  Zr  -0.035605  -0.017193  -0.083629  -0.124840  -0.081194  -0.026547
     2  O    0.186137   0.263047   0.292990   0.004694  -0.039863  -0.014492
     3  O    0.001648  -0.017679  -0.000683  -0.000495   0.008044   0.003733
     4  O   -0.015584  -0.008833   0.001239   0.345027   0.218050   0.198321
     5  O   -0.000672   0.001888   0.000582   0.003223   0.001314  -0.000613
     6  Si   0.035298   0.028959  -0.000016  -0.423884  -0.452537  -0.451066
     7  Si   0.007294   0.009387  -0.002581   0.003800  -0.000689  -0.000741
     8  Si  -0.095480  -0.367943  -0.305045  -0.010319   0.096758   0.074789
     9  Si   0.000223  -0.001487  -0.000623  -0.001028   0.002550   0.004167
    10  O    0.000000  -0.000002   0.000000   0.000005  -0.000001  -0.000002
    11  O    0.000018   0.000002  -0.000024  -0.000003   0.000002  -0.000000
    12  O    0.000008   0.000017  -0.000016  -0.000001  -0.000006  -0.000001
    13  O    8.628260   0.087038  -0.090712   0.003732  -0.030895  -0.045579
    14  O    0.087038   8.674435   0.055549   0.003669  -0.035919  -0.026877
    15  O   -0.090712   0.055549   8.777588  -0.000174   0.003603   0.001675
    16  O    0.003732   0.003669  -0.000174   8.902311  -0.091717  -0.114931
    17  O   -0.030895  -0.035919   0.003603  -0.091717   8.935616   0.227487
    18  O   -0.045579  -0.026877   0.001675  -0.114931   0.227487   9.012854
    19  O    0.000180  -0.000439   0.000141  -0.001537  -0.030030   0.000162
    20  O    0.000008  -0.000248   0.000038   0.000065  -0.000982   0.000015
    21  O   -0.000252   0.015988  -0.000615  -0.000214  -0.005574   0.000478
    22  H   -0.000000  -0.000000  -0.000000   0.000000   0.000000  -0.000000
    23  H    0.000000   0.000000  -0.000000  -0.000000   0.000000  -0.000000
    24  H   -0.000000   0.000000   0.000002   0.000000  -0.000000  -0.000000
    25  H    0.218378  -0.011955   0.008915  -0.000053   0.000632   0.014932
    26  H   -0.005117  -0.010088   0.216981   0.000000  -0.000003   0.000006
    27  H   -0.009724   0.219317   0.004631   0.000184   0.017923  -0.000257
    28  H    0.000000  -0.000006  -0.000001  -0.000000   0.000004  -0.000000
    29  H    0.000797   0.017565  -0.002573  -0.000004  -0.000394   0.000006
    30  H    0.000001   0.000001   0.000000   0.000115  -0.000398  -0.000007
    31  H    0.002360   0.000167  -0.000018   0.003772  -0.000747   0.218150
    32  H   -0.000008  -0.000006   0.000000   0.233445  -0.003637   0.003885
    33  H    0.000230   0.002090  -0.000035  -0.000104   0.231017   0.002102
              19         20         21         22         23         24
     1  Zr   0.001434  -0.145836   0.036195  -0.008957  -0.007670  -0.005238
     2  O    0.008963  -0.000576   0.010266  -0.000017  -0.000013  -0.000188
     3  O    0.265140   0.163774   0.146277  -0.000013  -0.000006  -0.000012
     4  O    0.010246  -0.000860   0.003419  -0.000009  -0.000055   0.000003
     5  O    0.002132   0.001482   0.000207   0.005783  -0.025277  -0.005355
     6  Si  -0.007586   0.009051  -0.011917   0.000086   0.000087   0.000073
     7  Si  -0.409269  -0.108824   0.024427  -0.000182   0.000060   0.000053
     8  Si  -0.016075   0.009649  -0.040160   0.000090   0.000062  -0.000088
     9  Si   0.001043   0.003153  -0.001798   0.047274   0.081083   0.037116
    10  O    0.000007   0.000003   0.000001  -0.006512   0.228580   0.007368
    11  O   -0.000002  -0.000003   0.000001  -0.005070  -0.006138   0.242490
    12  O   -0.000023  -0.000029   0.000024   0.219672   0.005878  -0.007436
    13  O    0.000180   0.000008  -0.000252  -0.000000   0.000000  -0.000000
    14  O   -0.000439  -0.000248   0.015988  -0.000000   0.000000   0.000000
    15  O    0.000141   0.000038  -0.000615  -0.000000  -0.000000   0.000002
    16  O   -0.001537   0.000065  -0.000214   0.000000  -0.000000   0.000000
    17  O   -0.030030  -0.000982  -0.005574   0.000000   0.000000  -0.000000
    18  O    0.000162   0.000015   0.000478  -0.000000  -0.000000  -0.000000
    19  O    8.872795   0.032140   0.023437  -0.000000   0.000000  -0.000000
    20  O    0.032140   8.657170  -0.050451   0.000000   0.000000  -0.000000
    21  O    0.023437  -0.050451   8.485577  -0.000000   0.000000   0.000000
    22  H   -0.000000   0.000000  -0.000000   0.361724   0.000057   0.000123
    23  H    0.000000   0.000000   0.000000   0.000057   0.351017   0.000014
    24  H   -0.000000  -0.000000   0.000000   0.000123   0.000014   0.365220
    25  H   -0.000024   0.000000  -0.000019   0.000000   0.000000   0.000000
    26  H    0.000001  -0.000000   0.000039  -0.000000  -0.000000  -0.000000
    27  H    0.000032   0.000192  -0.004017  -0.000000  -0.000000   0.000000
    28  H    0.004618   0.229581  -0.002064  -0.000000   0.000000  -0.000000
    29  H   -0.008568   0.007667   0.206461   0.000000   0.000000  -0.000000
    30  H    0.224198  -0.001482  -0.007148   0.000000   0.000000  -0.000000
    31  H    0.000004  -0.000000  -0.000000  -0.000000  -0.000000   0.000000
    32  H    0.000097  -0.000000   0.000001  -0.000000  -0.000000  -0.000000
    33  H    0.014847  -0.000081   0.001477  -0.000000  -0.000000  -0.000000
              25         26         27         28         29         30
     1  Zr   0.016943   0.007275   0.004176   0.005073   0.004119   0.000738
     2  O   -0.019995   0.000612  -0.019163  -0.000011  -0.007068  -0.000012
     3  O   -0.000110   0.000014   0.000843  -0.018401  -0.020274   0.000057
     4  O   -0.000310  -0.000011  -0.001713  -0.000014  -0.000140  -0.000454
     5  O    0.000019  -0.000004   0.000011  -0.000015  -0.000073  -0.000008
     6  Si   0.002633  -0.000149   0.008854  -0.000282   0.000143  -0.000660
     7  Si  -0.000459  -0.000382   0.001340   0.056613   0.048163   0.040275
     8  Si   0.057411   0.046140   0.068430  -0.000067   0.021949   0.000111
     9  Si  -0.000210  -0.000043  -0.000007  -0.000136  -0.000057   0.000023
    10  O    0.000000  -0.000000   0.000000  -0.000000   0.000000  -0.000000
    11  O   -0.000000   0.000000  -0.000000  -0.000000   0.000000   0.000000
    12  O   -0.000000  -0.000000  -0.000000  -0.000003  -0.000001   0.000000
    13  O    0.218378  -0.005117  -0.009724   0.000000   0.000797   0.000001
    14  O   -0.011955  -0.010088   0.219317  -0.000006   0.017565   0.000001
    15  O    0.008915   0.216981   0.004631  -0.000001  -0.002573   0.000000
    16  O   -0.000053   0.000000   0.000184  -0.000000  -0.000004   0.000115
    17  O    0.000632  -0.000003   0.017923   0.000004  -0.000394  -0.000398
    18  O    0.014932   0.000006  -0.000257  -0.000000   0.000006  -0.000007
    19  O   -0.000024   0.000001   0.000032   0.004618  -0.008568   0.224198
    20  O    0.000000  -0.000000   0.000192   0.229581   0.007667  -0.001482
    21  O   -0.000019   0.000039  -0.004017  -0.002064   0.206461  -0.007148
    22  H    0.000000  -0.000000  -0.000000  -0.000000   0.000000   0.000000
    23  H    0.000000  -0.000000  -0.000000   0.000000   0.000000   0.000000
    24  H    0.000000  -0.000000   0.000000  -0.000000  -0.000000  -0.000000
    25  H    0.298906  -0.000012   0.000113   0.000000   0.000001   0.000000
    26  H   -0.000012   0.365999   0.000036   0.000000   0.000021  -0.000000
    27  H    0.000113   0.000036   0.283346  -0.000000  -0.001494   0.000009
    28  H    0.000000   0.000000  -0.000000   0.349177  -0.000017  -0.000016
    29  H    0.000001   0.000021  -0.001494  -0.000017   0.285925   0.000155
    30  H    0.000000  -0.000000   0.000009  -0.000016   0.000155   0.334255
    31  H   -0.000496   0.000000   0.000013  -0.000000   0.000000  -0.000000
    32  H   -0.000001   0.000000  -0.000000   0.000000  -0.000000  -0.000000
    33  H    0.000006  -0.000000  -0.002410  -0.000002   0.000100  -0.001161
              31         32         33
     1  Zr  -0.000117   0.002109  -0.015993
     2  O    0.000175  -0.000024   0.001019
     3  O   -0.000020   0.000040  -0.010113
     4  O   -0.018444   0.010434  -0.009579
     5  O   -0.000010   0.000001  -0.000101
     6  Si   0.063742   0.022783   0.053231
     7  Si   0.000154  -0.000662   0.020619
     8  Si  -0.001981   0.000053   0.000102
     9  Si  -0.000052   0.000008   0.000077
    10  O    0.000000  -0.000000  -0.000000
    11  O   -0.000000   0.000000   0.000000
    12  O    0.000000  -0.000000   0.000000
    13  O    0.002360  -0.000008   0.000230
    14  O    0.000167  -0.000006   0.002090
    15  O   -0.000018   0.000000  -0.000035
    16  O    0.003772   0.233445  -0.000104
    17  O   -0.000747  -0.003637   0.231017
    18  O    0.218150   0.003885   0.002102
    19  O    0.000004   0.000097   0.014847
    20  O   -0.000000  -0.000000  -0.000081
    21  O   -0.000000   0.000001   0.001477
    22  H   -0.000000  -0.000000  -0.000000
    23  H   -0.000000  -0.000000  -0.000000
    24  H    0.000000  -0.000000  -0.000000
    25  H   -0.000496  -0.000001   0.000006
    26  H    0.000000   0.000000  -0.000000
    27  H    0.000013  -0.000000  -0.002410
    28  H   -0.000000   0.000000  -0.000002
    29  H    0.000000  -0.000000   0.000100
    30  H   -0.000000  -0.000000  -0.001161
    31  H    0.331418   0.000001  -0.000038
    32  H    0.000001   0.349974   0.000157
    33  H   -0.000038   0.000157   0.269212
 Mulliken charges:
               1
     1  Zr   0.004700
     2  O   -0.550119
     3  O   -0.419065
     4  O   -0.680552
     5  O   -0.369053
     6  Si   2.230419
     7  Si   1.786467
     8  Si   2.017093
     9  Si   1.600939
    10  O   -0.843807
    11  O   -0.787396
    12  O   -0.791006
    13  O   -0.841983
    14  O   -0.880444
    15  O   -0.877189
    16  O   -0.734737
    17  O   -0.968416
    18  O   -1.081645
    19  O   -0.988062
    20  O   -0.804615
    21  O   -0.830045
    22  H    0.385952
    23  H    0.372320
    24  H    0.365854
    25  H    0.414755
    26  H    0.378686
    27  H    0.429336
    28  H    0.375968
    29  H    0.447590
    30  H    0.411407
    31  H    0.401966
    32  H    0.381350
    33  H    0.443331
 Sum of Mulliken charges =  -0.00000
 Mulliken charges with hydrogens summed into heavy atoms:
               1
     1  Zr   0.004700
     2  O   -0.550119
     3  O   -0.419065
     4  O   -0.680552
     5  O   -0.369053
     6  Si   2.230419
     7  Si   1.786467
     8  Si   2.017093
     9  Si   1.600939
    10  O   -0.471487
    11  O   -0.421541
    12  O   -0.405054
    13  O   -0.427228
    14  O   -0.451108
    15  O   -0.498504
    16  O   -0.353387
    17  O   -0.525084
    18  O   -0.679678
    19  O   -0.576655
    20  O   -0.428647
    21  O   -0.382455
 Electronic spatial extent (au):  <R**2>=           9868.8550
 Charge=             -0.0000 electrons
 Dipole moment (field-independent basis, Debye):
    X=              1.0757    Y=             -0.7829    Z=             -2.4159  Tot=              2.7580
 Quadrupole moment (field-independent basis, Debye-Ang):
   XX=           -160.2193   YY=           -154.6604   ZZ=           -157.7825
   XY=             -4.9348   XZ=              2.2217   YZ=              5.7236
 Traceless Quadrupole moment (field-independent basis, Debye-Ang):
   XX=             -2.6652   YY=              2.8936   ZZ=             -0.2284
   XY=             -4.9348   XZ=              2.2217   YZ=              5.7236
 Octapole moment (field-independent basis, Debye-Ang**2):
  XXX=             74.2774  YYY=              6.6448  ZZZ=            -18.9340  XYY=             -2.2881
  XXY=             20.1753  XXZ=             19.2087  XZZ=              5.4644  YZZ=            -17.2072
  YYZ=            -15.4664  XYZ=             28.0816
 Hexadecapole moment (field-independent basis, Debye-Ang**3):
 XXXX=          -6032.2538 YYYY=          -2834.7196 ZZZZ=          -2260.8683 XXXY=             56.7222
 XXXZ=            -23.0690 YYYX=              4.3870 YYYZ=            217.1550 ZZZX=           -185.3964
 ZZZY=            -54.6996 XXYY=          -1484.0810 XXZZ=          -1361.2286 YYZZ=           -924.6875
 XXYZ=             -7.1906 YYXZ=            131.4142 ZZXY=            -59.9738
 N-N= 2.832873899240D+03 E-N=-1.137834835275D+04  KE= 2.373155006624D+03
 1\1\GINC-GRA338\FOpt\RB3LYP\Gen\H12O16Si4Zr1\SARASHS\14-Aug-2020\0\\#n
  B3LYP/Gen Pseudo=cards EmpiricalDispersion=GD3 Opt=modredundant\\Titl
 e\\0,1\Zr,0.6577379047,-0.1257352763,-0.0708612083\O,-0.223513331,-0.9
 068291479,1.4777405615\O,0.1035018441,1.7469646458,-0.1224532711\O,-0.
 2681523733,-0.9794230086,-1.5964764276\O,2.5921056055,-0.4363765367,-0
 .0826886233\Si,-1.8311076134,-1.3324509547,-1.9534530217\Si,-1.1148817
 875,2.8413336139,-0.082515832\Si,-1.7246373207,-1.1531389606,2.1152907
 018\Si,4.2161816236,-0.2616304212,0.0162662001\O,4.9571490474,-0.08655
 65648,-1.4486376586\O,4.8982892242,-1.6138254695,0.689696671\O,4.44632
 2383,1.1207380608,0.8869584757\O,-2.3203450605,-2.6241170749,1.6963362
 871\O,-2.7246231846,0.0650628638,1.5505807425\O,-1.5985773284,-1.01964
 75952,3.7444860117\O,-2.0009873024,-1.5596603701,-3.5777161715\O,-2.82
 47913798,-0.1865084571,-1.301557813\O,-2.3449890572,-2.7143166004,-1.1
 828447528\O,-2.0394617442,2.4395169384,-1.4303200223\O,-0.6347930678,4
 .4000943337,-0.2991727844\O,-1.9654343793,2.7603731067,1.3137835421\H,
 5.3334859552,1.4967171595,0.8803751726\H,5.3058801695,-0.8944050805,-1
 .8421875093\H,4.4628199314,-1.9913508609,1.4620312649\H,-2.4065680051,
 -2.8096865461,0.7439609751\H,-2.3827410984,-1.2238736464,4.265410064\H
 ,-3.0605966783,-0.0831065547,0.6455627439\H,-0.526681644,4.9267438016,
 0.5009688853\H,-2.2690321884,1.8688210307,1.5852223552\H,-2.6473760918
 ,3.1268270829,-1.7302911412\H,-2.304811477,-3.5294497691,-1.6956943789
 \H,-1.2705461247,-1.2631623288,-4.131976585\H,-2.6096854509,0.75483858
 65,-1.4898434535\\Version=ES64L-G16RevB.01\State=1-A\HF=-2416.9468569\
 RMSD=6.912e-09\RMSF=7.994e-06\Dipole=0.4239462,-0.308021,-0.9501648\Qu
 adrupole=-1.983659,2.1511066,-0.1674476,-3.6722836,1.6502756,4.2526326
 \PG=C01 [X(H12O16Si4Zr1)]\\@


 THERE IS NO SCIENCE WITHOUT FANCY, NOR ART WITHOUT FACTS.
     -- VLADIMIR NABAKOV
 Job cpu time:       0 days  7 hours 24 minutes 58.5 seconds.
 Elapsed time:       0 days  0 hours 33 minutes 32.4 seconds.
 File lengths (MBytes):  RWF=    167 Int=      0 D2E=      0 Chk=     21 Scr=      1
 Normal termination of Gaussian 16 at Fri Aug 14 03:27:20 2020.
