 Entering Gaussian System, Link 0=g16
 Initial command:
 /opt/software/gaussian/g16.b01/l1.exe "/localscratch/sarashs.37242625.0/Gau-178241.inp" -scrdir="/localscratch/sarashs.37242625.0/"
 Entering Link 1 = /opt/software/gaussian/g16.b01/l1.exe PID=    178242.
  
 Copyright (c) 1988-2017, Gaussian, Inc.  All Rights Reserved.
  
 This is part of the Gaussian(R) 16 program.  It is based on
 the Gaussian(R) 09 system (copyright 2009, Gaussian, Inc.),
 the Gaussian(R) 03 system (copyright 2003, Gaussian, Inc.),
 the Gaussian(R) 98 system (copyright 1998, Gaussian, Inc.),
 the Gaussian(R) 94 system (copyright 1995, Gaussian, Inc.),
 the Gaussian 92(TM) system (copyright 1992, Gaussian, Inc.),
 the Gaussian 90(TM) system (copyright 1990, Gaussian, Inc.),
 the Gaussian 88(TM) system (copyright 1988, Gaussian, Inc.),
 the Gaussian 86(TM) system (copyright 1986, Carnegie Mellon
 University), and the Gaussian 82(TM) system (copyright 1983,
 Carnegie Mellon University). Gaussian is a federally registered
 trademark of Gaussian, Inc.
  
 This software contains proprietary and confidential information,
 including trade secrets, belonging to Gaussian, Inc.
  
 This software is provided under written license and may be
 used, copied, transmitted, or stored only in accord with that
 written license.
  
 The following legend is applicable only to US Government
 contracts under FAR:
  
                    RESTRICTED RIGHTS LEGEND
  
 Use, reproduction and disclosure by the US Government is
 subject to restrictions as set forth in subparagraphs (a)
 and (c) of the Commercial Computer Software - Restricted
 Rights clause in FAR 52.227-19.
  
 Gaussian, Inc.
 340 Quinnipiac St., Bldg. 40, Wallingford CT 06492
  
  
 ---------------------------------------------------------------
 Warning -- This program may not be used in any manner that
 competes with the business of Gaussian, Inc. or will provide
 assistance to any competitor of Gaussian, Inc.  The licensee
 of this program is prohibited from giving any competitor of
 Gaussian, Inc. access to this program.  By using this program,
 the user acknowledges that Gaussian, Inc. is engaged in the
 business of creating and licensing software in the field of
 computational chemistry and represents and warrants to the
 licensee that it is not a competitor of Gaussian, Inc. and that
 it will not use this program in any manner prohibited above.
 ---------------------------------------------------------------
  

 Cite this work as:
 Gaussian 16, Revision B.01,
 M. J. Frisch, G. W. Trucks, H. B. Schlegel, G. E. Scuseria, 
 M. A. Robb, J. R. Cheeseman, G. Scalmani, V. Barone, 
 G. A. Petersson, H. Nakatsuji, X. Li, M. Caricato, A. V. Marenich, 
 J. Bloino, B. G. Janesko, R. Gomperts, B. Mennucci, H. P. Hratchian, 
 J. V. Ortiz, A. F. Izmaylov, J. L. Sonnenberg, D. Williams-Young, 
 F. Ding, F. Lipparini, F. Egidi, J. Goings, B. Peng, A. Petrone, 
 T. Henderson, D. Ranasinghe, V. G. Zakrzewski, J. Gao, N. Rega, 
 G. Zheng, W. Liang, M. Hada, M. Ehara, K. Toyota, R. Fukuda, 
 J. Hasegawa, M. Ishida, T. Nakajima, Y. Honda, O. Kitao, H. Nakai, 
 T. Vreven, K. Throssell, J. A. Montgomery, Jr., J. E. Peralta, 
 F. Ogliaro, M. J. Bearpark, J. J. Heyd, E. N. Brothers, K. N. Kudin, 
 V. N. Staroverov, T. A. Keith, R. Kobayashi, J. Normand, 
 K. Raghavachari, A. P. Rendell, J. C. Burant, S. S. Iyengar, 
 J. Tomasi, M. Cossi, J. M. Millam, M. Klene, C. Adamo, R. Cammi, 
 J. W. Ochterski, R. L. Martin, K. Morokuma, O. Farkas, 
 J. B. Foresman, and D. J. Fox, Gaussian, Inc., Wallingford CT, 2016.
 
 ******************************************
 Gaussian 16:  ES64L-G16RevB.01 20-Dec-2017
                14-Aug-2020 
 ******************************************
 %NProcShared=16
 Will use up to   16 processors via shared memory.
 ------------------------------------------------------------------
 #n B3LYP/Gen Pseudo=cards EmpiricalDispersion=GD3 Opt=modredundant
 ------------------------------------------------------------------
 1/18=120,19=15,26=3,38=1/1,3;
 2/9=110,12=2,17=6,18=5,40=1/2;
 3/5=7,11=2,16=1,17=8,25=1,30=1,71=1,74=-5,124=31/1,2,3;
 4//1;
 5/5=2,38=5/2;
 6/7=2,8=2,9=2,10=2,28=1/1;
 7//1,2,3,16;
 1/18=20,19=15,26=3/3(2);
 2/9=110/2;
 99//99;
 2/9=110/2;
 3/5=7,6=1,11=2,16=1,17=8,25=1,30=1,71=1,74=-5,82=7,124=31/1,2,3;
 4/5=5,16=3,69=1/1;
 5/5=2,38=5/2;
 7//1,2,3,16;
 1/18=20,19=15,26=3/3(-5);
 2/9=110/2;
 6/7=2,8=2,9=2,10=2,19=2,28=1/1;
 99/9=1/99;
 -----
 Title
 -----
 Symbolic Z-matrix:
 Charge =  0 Multiplicity = 1
 Zr                    0.65779  -0.12506  -0.07164 
 O                    -0.22285  -0.90624   1.4773 
 O                     0.10302   1.74748  -0.12299 
 O                    -0.2683   -0.97885  -1.59705 
 O                     2.59206  -0.4363   -0.08284 
 Si                   -1.83119  -1.33244  -1.9536 
 Si                   -1.1155    2.84172  -0.08279 
 Si                   -1.72376  -1.15291   2.11517 
 Si                    4.21343  -0.28119   0.07553 
 O                     4.98723   0.09211  -1.33424 
 O                     4.88067  -1.71504   0.57138 
 O                     4.42326   0.9676    1.13314 
 O                    -2.31924  -2.624     1.69627 
 O                    -2.72422   0.06508   1.55086 
 O                    -1.59734  -1.01957   3.74439 
 O                    -2.00144  -1.55965  -3.57782 
 O                    -2.82509  -0.18676  -1.30145 
 O                    -2.34448  -2.71439  -1.18277 
 O                    -2.04046   2.43957  -1.43023 
 O                    -0.63565   4.40049  -0.29987 
 O                    -1.96551   2.76086   1.31383 
 H                     5.31017   1.33858   1.19822 
 H                     5.34556  -0.65459  -1.82735 
 H                     4.42768  -2.1948    1.27373 
 H                    -2.40577  -2.80951   0.74392 
 H                    -2.38137  -1.22423   4.26535 
 H                    -3.06034  -0.08306   0.64589 
 H                    -0.52731   4.92728   0.50015 
 H                    -2.26909   1.86932   1.58533 
 H                    -2.64854   3.12676  -1.73014 
 H                    -2.30452  -3.52952  -1.69562 
 H                    -1.27114  -1.26305  -4.13223 
 H                    -2.61026   0.75461  -1.48993 
 
 The following ModRedundant input section has been read:
 A       1       5       9 F                                                   
 D       1       5       9      12 F                                           
 D       3       1       5       9 F                                           
 

 GradGradGradGradGradGradGradGradGradGradGradGradGradGradGradGradGradGrad
 Berny optimization.
 Initialization pass.
                           ----------------------------
                           !    Initial Parameters    !
                           ! (Angstroms and Degrees)  !
 --------------------------                            --------------------------
 ! Name  Definition              Value          Derivative Info.                !
 --------------------------------------------------------------------------------
 ! R1    R(1,2)                  1.9455         estimate D2E/DX2                !
 ! R2    R(1,3)                  1.9537         estimate D2E/DX2                !
 ! R3    R(1,4)                  1.9783         estimate D2E/DX2                !
 ! R4    R(1,5)                  1.9592         estimate D2E/DX2                !
 ! R5    R(2,8)                  1.6494         estimate D2E/DX2                !
 ! R6    R(3,7)                  1.6382         estimate D2E/DX2                !
 ! R7    R(4,6)                  1.6416         estimate D2E/DX2                !
 ! R8    R(5,9)                  1.6365         estimate D2E/DX2                !
 ! R9    R(6,16)                 1.6488         estimate D2E/DX2                !
 ! R10   R(6,17)                 1.651          estimate D2E/DX2                !
 ! R11   R(6,18)                 1.6636         estimate D2E/DX2                !
 ! R12   R(7,19)                 1.6831         estimate D2E/DX2                !
 ! R13   R(7,20)                 1.6453         estimate D2E/DX2                !
 ! R14   R(7,21)                 1.6369         estimate D2E/DX2                !
 ! R15   R(8,13)                 1.6414         estimate D2E/DX2                !
 ! R16   R(8,14)                 1.6742         estimate D2E/DX2                !
 ! R17   R(8,15)                 1.6395         estimate D2E/DX2                !
 ! R18   R(9,10)                 1.6509         estimate D2E/DX2                !
 ! R19   R(9,11)                 1.6574         estimate D2E/DX2                !
 ! R20   R(9,12)                 1.6499         estimate D2E/DX2                !
 ! R21   R(10,23)                0.9639         estimate D2E/DX2                !
 ! R22   R(11,24)                0.9637         estimate D2E/DX2                !
 ! R23   R(12,22)                0.9636         estimate D2E/DX2                !
 ! R24   R(13,25)                0.9741         estimate D2E/DX2                !
 ! R25   R(14,27)                0.9767         estimate D2E/DX2                !
 ! R26   R(15,26)                0.9633         estimate D2E/DX2                !
 ! R27   R(16,32)                0.9637         estimate D2E/DX2                !
 ! R28   R(17,33)                0.9838         estimate D2E/DX2                !
 ! R29   R(18,31)                0.9639         estimate D2E/DX2                !
 ! R30   R(19,30)                0.9654         estimate D2E/DX2                !
 ! R31   R(20,28)                0.964          estimate D2E/DX2                !
 ! R32   R(21,29)                0.9802         estimate D2E/DX2                !
 ! A1    A(2,1,3)              106.0959         estimate D2E/DX2                !
 ! A2    A(2,1,4)              103.2214         estimate D2E/DX2                !
 ! A3    A(2,1,5)              112.8091         estimate D2E/DX2                !
 ! A4    A(3,1,4)              105.0977         estimate D2E/DX2                !
 ! A5    A(3,1,5)              115.6243         estimate D2E/DX2                !
 ! A6    A(4,1,5)              112.9055         estimate D2E/DX2                !
 ! A7    A(1,2,8)              141.2479         estimate D2E/DX2                !
 ! A8    A(1,3,7)              148.2962         estimate D2E/DX2                !
 ! A9    A(1,4,6)              134.9216         estimate D2E/DX2                !
 ! A10   A(1,5,9)              164.2749         Frozen                          !
 ! A11   A(4,6,16)             109.9952         estimate D2E/DX2                !
 ! A12   A(4,6,17)             109.7479         estimate D2E/DX2                !
 ! A13   A(4,6,18)             111.8422         estimate D2E/DX2                !
 ! A14   A(16,6,17)            114.9972         estimate D2E/DX2                !
 ! A15   A(16,6,18)            108.0658         estimate D2E/DX2                !
 ! A16   A(17,6,18)            101.9869         estimate D2E/DX2                !
 ! A17   A(3,7,19)             103.269          estimate D2E/DX2                !
 ! A18   A(3,7,20)             114.3706         estimate D2E/DX2                !
 ! A19   A(3,7,21)             111.9733         estimate D2E/DX2                !
 ! A20   A(19,7,20)            106.3205         estimate D2E/DX2                !
 ! A21   A(19,7,21)            112.6973         estimate D2E/DX2                !
 ! A22   A(20,7,21)            108.1076         estimate D2E/DX2                !
 ! A23   A(2,8,13)             111.4365         estimate D2E/DX2                !
 ! A24   A(2,8,14)             107.7362         estimate D2E/DX2                !
 ! A25   A(2,8,15)             107.5759         estimate D2E/DX2                !
 ! A26   A(13,8,14)            110.4391         estimate D2E/DX2                !
 ! A27   A(13,8,15)            110.7606         estimate D2E/DX2                !
 ! A28   A(14,8,15)            108.7751         estimate D2E/DX2                !
 ! A29   A(5,9,10)             113.777          estimate D2E/DX2                !
 ! A30   A(5,9,11)             110.232          estimate D2E/DX2                !
 ! A31   A(5,9,12)             105.0574         estimate D2E/DX2                !
 ! A32   A(10,9,11)            105.2122         estimate D2E/DX2                !
 ! A33   A(10,9,12)            108.4594         estimate D2E/DX2                !
 ! A34   A(11,9,12)            114.32           estimate D2E/DX2                !
 ! A35   A(9,10,23)            115.8441         estimate D2E/DX2                !
 ! A36   A(9,11,24)            117.3548         estimate D2E/DX2                !
 ! A37   A(9,12,22)            116.8573         estimate D2E/DX2                !
 ! A38   A(8,13,25)            116.8991         estimate D2E/DX2                !
 ! A39   A(8,14,27)            114.056          estimate D2E/DX2                !
 ! A40   A(8,15,26)            117.2166         estimate D2E/DX2                !
 ! A41   A(6,16,32)            116.4907         estimate D2E/DX2                !
 ! A42   A(6,17,33)            117.1859         estimate D2E/DX2                !
 ! A43   A(6,18,31)            116.3076         estimate D2E/DX2                !
 ! A44   A(7,19,30)            115.1373         estimate D2E/DX2                !
 ! A45   A(7,20,28)            116.1676         estimate D2E/DX2                !
 ! A46   A(7,21,29)            116.2372         estimate D2E/DX2                !
 ! D1    D(3,1,2,8)             57.7292         estimate D2E/DX2                !
 ! D2    D(4,1,2,8)            -52.5301         estimate D2E/DX2                !
 ! D3    D(5,1,2,8)           -174.7067         estimate D2E/DX2                !
 ! D4    D(2,1,3,7)            -50.098          estimate D2E/DX2                !
 ! D5    D(4,1,3,7)             58.8315         estimate D2E/DX2                !
 ! D6    D(5,1,3,7)           -175.9641         estimate D2E/DX2                !
 ! D7    D(2,1,4,6)             42.7683         estimate D2E/DX2                !
 ! D8    D(3,1,4,6)            -68.2312         estimate D2E/DX2                !
 ! D9    D(5,1,4,6)            164.8802         estimate D2E/DX2                !
 ! D10   D(2,1,5,9)            -98.3635         estimate D2E/DX2                !
 ! D11   D(3,1,5,9)             23.9997         Frozen                          !
 ! D12   D(4,1,5,9)            145.082          estimate D2E/DX2                !
 ! D13   D(1,2,8,13)            93.5308         estimate D2E/DX2                !
 ! D14   D(1,2,8,14)           -27.7655         estimate D2E/DX2                !
 ! D15   D(1,2,8,15)          -144.8802         estimate D2E/DX2                !
 ! D16   D(1,3,7,19)           -61.1012         estimate D2E/DX2                !
 ! D17   D(1,3,7,20)          -176.1751         estimate D2E/DX2                !
 ! D18   D(1,3,7,21)            60.409          estimate D2E/DX2                !
 ! D19   D(1,4,6,16)           160.167          estimate D2E/DX2                !
 ! D20   D(1,4,6,17)            32.6925         estimate D2E/DX2                !
 ! D21   D(1,4,6,18)           -79.742          estimate D2E/DX2                !
 ! D22   D(1,5,9,10)          -100.1291         estimate D2E/DX2                !
 ! D23   D(1,5,9,11)           141.9686         estimate D2E/DX2                !
 ! D24   D(1,5,9,12)            18.3493         Frozen                          !
 ! D25   D(4,6,16,32)          -14.1998         estimate D2E/DX2                !
 ! D26   D(17,6,16,32)         110.2979         estimate D2E/DX2                !
 ! D27   D(18,6,16,32)        -136.5531         estimate D2E/DX2                !
 ! D28   D(4,6,17,33)           51.0095         estimate D2E/DX2                !
 ! D29   D(16,6,17,33)         -73.6179         estimate D2E/DX2                !
 ! D30   D(18,6,17,33)         169.7166         estimate D2E/DX2                !
 ! D31   D(4,6,18,31)          -96.4424         estimate D2E/DX2                !
 ! D32   D(16,6,18,31)          24.7715         estimate D2E/DX2                !
 ! D33   D(17,6,18,31)         146.349          estimate D2E/DX2                !
 ! D34   D(3,7,19,30)         -162.1837         estimate D2E/DX2                !
 ! D35   D(20,7,19,30)         -41.4662         estimate D2E/DX2                !
 ! D36   D(21,7,19,30)          76.796          estimate D2E/DX2                !
 ! D37   D(3,7,20,28)          -98.427          estimate D2E/DX2                !
 ! D38   D(19,7,20,28)         148.2947         estimate D2E/DX2                !
 ! D39   D(21,7,20,28)          27.0455         estimate D2E/DX2                !
 ! D40   D(3,7,21,29)          -49.8995         estimate D2E/DX2                !
 ! D41   D(19,7,21,29)          66.0156         estimate D2E/DX2                !
 ! D42   D(20,7,21,29)        -176.7753         estimate D2E/DX2                !
 ! D43   D(2,8,13,25)          -58.468          estimate D2E/DX2                !
 ! D44   D(14,8,13,25)          61.2404         estimate D2E/DX2                !
 ! D45   D(15,8,13,25)        -178.1888         estimate D2E/DX2                !
 ! D46   D(2,8,14,27)           80.2918         estimate D2E/DX2                !
 ! D47   D(13,8,14,27)         -41.6247         estimate D2E/DX2                !
 ! D48   D(15,8,14,27)        -163.3756         estimate D2E/DX2                !
 ! D49   D(2,8,15,26)         -174.1994         estimate D2E/DX2                !
 ! D50   D(13,8,15,26)         -52.1897         estimate D2E/DX2                !
 ! D51   D(14,8,15,26)          69.3652         estimate D2E/DX2                !
 ! D52   D(5,9,10,23)          -94.85           estimate D2E/DX2                !
 ! D53   D(11,9,10,23)          25.9086         estimate D2E/DX2                !
 ! D54   D(12,9,10,23)         148.6404         estimate D2E/DX2                !
 ! D55   D(5,9,11,24)          -43.8204         estimate D2E/DX2                !
 ! D56   D(10,9,11,24)        -166.8801         estimate D2E/DX2                !
 ! D57   D(12,9,11,24)          74.2399         estimate D2E/DX2                !
 ! D58   D(5,9,12,22)         -166.4772         estimate D2E/DX2                !
 ! D59   D(10,9,12,22)         -44.4743         estimate D2E/DX2                !
 ! D60   D(11,9,12,22)          72.5537         estimate D2E/DX2                !
 --------------------------------------------------------------------------------
 Trust Radius=3.00D-01 FncErr=1.00D-07 GrdErr=1.00D-06 EigMax=2.50D+02 EigMin=1.00D-04
 Number of steps in this run=    148 maximum allowed number of steps=    198.
 GradGradGradGradGradGradGradGradGradGradGradGradGradGradGradGradGradGrad

                          Input orientation:                          
 ---------------------------------------------------------------------
 Center     Atomic      Atomic             Coordinates (Angstroms)
 Number     Number       Type             X           Y           Z
 ---------------------------------------------------------------------
      1         40           0        0.657790   -0.125060   -0.071640
      2          8           0       -0.222850   -0.906240    1.477300
      3          8           0        0.103020    1.747480   -0.122990
      4          8           0       -0.268300   -0.978850   -1.597050
      5          8           0        2.592060   -0.436300   -0.082840
      6         14           0       -1.831190   -1.332440   -1.953600
      7         14           0       -1.115500    2.841720   -0.082790
      8         14           0       -1.723760   -1.152910    2.115170
      9         14           0        4.213430   -0.281190    0.075530
     10          8           0        4.987230    0.092110   -1.334240
     11          8           0        4.880670   -1.715040    0.571380
     12          8           0        4.423260    0.967600    1.133140
     13          8           0       -2.319240   -2.624000    1.696270
     14          8           0       -2.724220    0.065080    1.550860
     15          8           0       -1.597340   -1.019570    3.744390
     16          8           0       -2.001440   -1.559650   -3.577820
     17          8           0       -2.825090   -0.186760   -1.301450
     18          8           0       -2.344480   -2.714390   -1.182770
     19          8           0       -2.040460    2.439570   -1.430230
     20          8           0       -0.635650    4.400490   -0.299870
     21          8           0       -1.965510    2.760860    1.313830
     22          1           0        5.310170    1.338580    1.198220
     23          1           0        5.345560   -0.654590   -1.827350
     24          1           0        4.427680   -2.194800    1.273730
     25          1           0       -2.405770   -2.809510    0.743920
     26          1           0       -2.381370   -1.224230    4.265350
     27          1           0       -3.060340   -0.083060    0.645890
     28          1           0       -0.527310    4.927280    0.500150
     29          1           0       -2.269090    1.869320    1.585330
     30          1           0       -2.648540    3.126760   -1.730140
     31          1           0       -2.304520   -3.529520   -1.695620
     32          1           0       -1.271140   -1.263050   -4.132230
     33          1           0       -2.610260    0.754610   -1.489930
 ---------------------------------------------------------------------
                    Distance matrix (angstroms):
                    1          2          3          4          5
     1  Zr   0.000000
     2  O    1.945504   0.000000
     3  O    1.953666   3.115983   0.000000
     4  O    1.978251   3.075543   3.121475   0.000000
     5  O    1.959183   3.252476   3.311469   3.281593   0.000000
     6  Si   3.345827   3.813067   4.071635   1.641578   4.885484
     7  Si   3.456366   4.156670   1.638221   4.196128   4.948880
     8  Si   3.392697   1.649380   4.093745   3.991145   4.896027
     9  Si   3.562108   4.694276   4.588070   4.834269   1.636454
    10  O    4.515016   6.003865   5.297441   5.369974   2.753554
    11  O    4.557875   5.246024   5.941139   5.635242   2.702021
    12  O    4.101727   5.021560   4.566240   5.766571   2.608225
    13  O    4.270002   2.719099   5.318542   4.214123   5.663226
    14  O    3.755882   2.684348   3.691278   4.126823   5.584191
    15  O    4.521929   2.653632   5.050190   5.504452   5.704294
    16  O    4.628483   5.398571   5.225104   2.695283   5.880225
    17  O    3.694143   3.874372   3.701875   2.692947   5.558129
    18  O    4.117386   3.853141   5.198238   2.737563   5.546978
    19  O    3.962783   4.790812   2.604299   3.854086   5.616612
    20  O    4.712290   5.611606   2.759598   5.545712   5.818913
    21  O    4.138812   4.063399   2.714813   5.033803   5.739683
    22  H    5.039784   5.977576   5.387690   6.656076   3.489905
    23  H    5.033697   6.480064   6.013236   5.627931   3.266914
    24  H    4.506208   4.830037   6.016235   5.636678   2.881337
    25  H    4.154132   2.987545   5.273682   3.660633   5.594101
    26  H    5.408711   3.540275   5.853271   6.236426   6.653014
    27  H    3.786965   3.069237   3.734823   3.691708   5.710118
    28  H    5.220876   5.922624   3.301022   6.272775   6.232041
    29  H    3.910208   3.450000   2.925766   4.716225   5.632890
    30  H    4.925117   5.695325   3.472237   4.747556   6.547739
    31  H    4.796138   4.613282   6.009671   3.265245   6.012118
    32  H    4.637260   5.717784   5.198616   2.741094   5.657331
    33  H    3.669539   4.154829   3.196280   2.915671   5.519266
                    6          7          8          9         10
     6  Si   0.000000
     7  Si   4.629876   0.000000
     8  Si   4.074145   4.599791   0.000000
     9  Si   6.462192   6.178602   6.338001   0.000000
    10  O    6.993125   6.809537   7.647607   1.650930   0.000000
    11  O    7.181293   7.559501   6.805716   1.657408   2.628409
    12  O    7.344133   5.972326   6.576230   1.649862   2.678154
    13  O    3.902290   5.872660   1.641396   7.126804   8.363357
    14  O    3.877087   3.600906   1.674176   7.101232   8.233529
    15  O    5.711363   5.457933   1.639549   6.911641   8.389570
    16  O    1.648848   5.689656   5.714252   7.321614   7.523528
    17  O    1.650975   3.685040   3.717481   7.172570   7.817364
    18  O    1.663560   5.795749   3.701340   7.107036   7.851965
    19  O    3.813892   1.683113   5.057279   6.984339   7.410007
    20  O    6.085279   1.645340   6.152776   6.750750   7.158829
    21  O    5.239203   1.636949   4.002272   6.997625   7.904119
    22  H    8.250293   6.722325   7.518277   2.255422   2.841009
    23  H    7.209796   7.550693   8.109690   2.245462   0.963908
    24  H    7.094560   7.611408   6.295536   2.267926   3.513483
    25  H    3.128657   5.855309   2.256056   7.117089   8.209421
    26  H    6.244177   6.086107   2.249625   7.869899   9.347964
    27  H    3.135141   3.587160   2.256060   7.298787   8.289450
    28  H    6.848729   2.243958   6.403787   7.055712   7.560027
    29  H    4.792395   2.249212   3.116406   6.994802   8.021006
    30  H    4.538993   2.268308   5.827281   7.871544   8.226228
    31  H    2.262246   6.678899   4.528540   7.494818   8.149627
    32  H    2.250533   5.768130   6.264743   6.982106   6.988018
    33  H    2.275460   2.927521   4.173878   7.077167   7.627909
                   11         12         13         14         15
    11  O    0.000000
    12  O    2.778733   0.000000
    13  O    7.343725   7.660157   0.000000
    14  O    7.871630   7.216336   2.723289   0.000000
    15  O    7.246812   6.856755   2.700024   2.694049   0.000000
    16  O    8.037627   8.358044   5.389792   5.428215   7.353213
    17  O    8.076006   7.732939   3.896453   2.865182   5.259415
    18  O    7.501902   8.045048   2.880569   3.916936   5.263795
    19  O    8.316806   7.107548   5.957555   3.872032   6.240088
    20  O    8.281822   6.279397   7.494165   5.155881   6.830662
    21  O    8.213105   6.638133   5.410000   2.810526   4.509415
    22  H    3.146743   0.963572   8.611503   8.142333   7.730301
    23  H    2.663566   3.499520   8.662773   8.777903   8.909622
    24  H    0.963673   3.165527   6.773749   7.505567   6.617114
    25  H    7.370200   7.813687   0.974101   3.002637   3.586121
    26  H    8.162324   7.804989   2.926327   3.024619   0.963321
    27  H    8.107315   7.572686   2.847614   0.976674   3.552200
    28  H    8.565730   6.370862   7.852614   5.437959   6.858213
    29  H    8.061935   6.767948   4.494969   1.861079   3.668579
    30  H    9.242782   7.929105   6.702236   4.488271   6.947485
    31  H    7.749747   8.572572   3.510712   4.861783   6.032716
    32  H    7.757126   8.070075   6.076357   6.014390   7.887131
    33  H    8.152435   7.509745   4.653125   3.120071   5.618881
                   16         17         18         19         20
    16  O    0.000000
    17  O    2.783000   0.000000
    18  O    2.680926   2.575652   0.000000
    19  O    4.539540   2.744055   5.168846   0.000000
    20  O    6.937839   5.180702   7.370287   2.663909   0.000000
    21  O    6.526587   4.033241   6.029510   2.763822   2.657243
    22  H    9.201627   8.646240   8.982725   7.883698   6.853637
    23  H    7.606687   8.200912   7.987176   8.017782   7.978841
    24  H    8.079266   7.954021   7.222639   8.403905   8.462351
    25  H    4.516976   3.352340   1.930010   5.693261   7.497128
    26  H    7.859527   5.680008   5.648358   6.780802   7.451594
    27  H    4.597968   1.964238   3.283344   3.422586   5.184188
    28  H    7.802766   5.888884   8.033022   3.493521   0.963990
    29  H    6.203837   3.587492   5.355227   3.077509   3.553720
    30  H    5.078888   3.345797   5.874615   0.965369   2.778450
    31  H    2.741336   3.405937   0.963872   5.980819   8.223035
    32  H    0.963680   3.403891   3.458000   4.647801   6.867788
    33  H    3.175806   0.983796   3.492699   1.779698   4.313672
                   21         22         23         24         25
    21  O    0.000000
    22  H    7.414295   0.000000
    23  H    8.659333   3.623266   0.000000
    24  H    8.089070   3.642700   3.582101   0.000000
    25  H    5.616729   8.772045   8.446196   6.881468   0.000000
    26  H    4.976480   8.668049   9.856517   7.500331   3.861888
    27  H    3.119724   8.508323   8.780815   7.805387   2.805637
    28  H    2.724678   6.887833   8.430014   8.710590   7.965297
    29  H    0.980162   7.607675   8.717764   7.839700   4.755849
    30  H    3.141045   8.666830   8.843851   9.349606   6.435776
    31  H    6.981447   9.489795   8.173512   7.478037   2.545589
    32  H    6.806877   8.859787   7.033023   7.910064   5.239825
    33  H    3.507394   8.384532   8.086703   8.115999   4.211277
                   26         27         28         29         30
    26  H    0.000000
    27  H    3.855355   0.000000
    28  H    7.446835   5.616136   0.000000
    29  H    4.094529   2.306602   3.682734   0.000000
    30  H    7.412718   4.014728   3.565906   3.566157   0.000000
    31  H    6.391669   4.234622   8.916129   6.317702   6.665254
    32  H    8.470742   5.236797   7.767394   6.595312   5.190154
    33  H    6.090275   2.337946   5.070530   3.288799   2.384588
                   31         32         33
    31  H    0.000000
    32  H    3.484513   0.000000
    33  H    4.299948   3.584124   0.000000
 Stoichiometry    H12O16Si4Zr
 Framework group  C1[X(H12O16Si4Zr)]
 Deg. of freedom    93
 Full point group                 C1      NOp   1
 Largest Abelian subgroup         C1      NOp   1
 Largest concise Abelian subgroup C1      NOp   1
                         Standard orientation:                         
 ---------------------------------------------------------------------
 Center     Atomic      Atomic             Coordinates (Angstroms)
 Number     Number       Type             X           Y           Z
 ---------------------------------------------------------------------
      1         40           0        0.657733   -0.116876   -0.094816
      2          8           0       -0.195402   -0.906045    1.465426
      3          8           0        0.091994    1.752675   -0.133936
      4          8           0       -0.286312   -0.972665   -1.608051
      5          8           0        2.593299   -0.417416   -0.135506
      6         14           0       -1.852384   -1.334148   -1.942009
      7         14           0       -1.131776    2.840091   -0.073266
      8         14           0       -1.685254   -1.162286    2.125077
      9         14           0        4.215976   -0.253685   -0.000996
     10          8           0        4.966599    0.126739   -1.421352
     11          8           0        4.898395   -1.684835    0.481824
     12          8           0        4.434706    0.994095    1.056004
     13          8           0       -2.278837   -2.635786    1.711995
     14          8           0       -2.700688    0.051308    1.578317
     15          8           0       -1.535276   -1.031558    3.752509
     16          8           0       -2.045596   -1.558997   -3.563987
     17          8           0       -2.842715   -0.195295   -1.272698
     18          8           0       -2.346528   -2.720471   -1.166533
     19          8           0       -2.074514    2.435580   -1.407614
     20          8           0       -0.663777    4.401923   -0.294183
     21          8           0       -1.960400    2.751709    1.335696
     22          1           0        5.320439    1.369830    1.108639
     23          1           0        5.321624   -0.616970   -1.921325
     24          1           0        4.458573   -2.168512    1.189834
     25          1           0       -2.378545   -2.819838    0.760651
     26          1           0       -2.310313   -1.241597    4.284666
     27          1           0       -3.049453   -0.096847    0.678147
     28          1           0       -0.546406    4.927677    0.505244
     29          1           0       -2.255000    1.857958    1.609808
     30          1           0       -2.690762    3.120012   -1.696975
     31          1           0       -2.309751   -3.534325   -1.681642
     32          1           0       -1.325286   -1.257248   -4.128595
     33          1           0       -2.635889    0.747626   -1.462372
 ---------------------------------------------------------------------
 Rotational constants (GHZ):           0.2123206           0.1338950           0.1241037
 General basis read from cards:  (5D, 7F)
 ======================================================================================================
                                       Pseudopotential Parameters
 ======================================================================================================
  Center     Atomic      Valence      Angular      Power
  Number     Number     Electrons     Momentum     of R      Exponent        Coefficient   SO-Coeffient
 ======================================================================================================
    1         40           12
                                      G and up 
                                                     2        1.0000000        0.00000000    0.00000000
                                      S - G
                                                     2        8.6365280      150.24299400    0.00000000
                                                     2        3.7176390       18.78003600    0.00000000
                                      P - G
                                                     2        7.6267280       33.19279100    0.00000000
                                                     2        7.4532070       66.38903900    0.00000000
                                                     2        3.3583890        4.62072600    0.00000000
                                                     2        3.2297380        9.26027000    0.00000000
                                      D - G
                                                     2        5.9380860       13.99338300    0.00000000
                                                     2        5.8255440       20.99588200    0.00000000
                                                     2        2.2050190        2.28516600    0.00000000
                                                     2        2.2062920        3.44126000    0.00000000
                                      F - G
                                                     2        4.8002150       -5.23932000    0.00000000
                                                     2        4.7989920       -6.98742400    0.00000000
    2          8
                                   No pseudopotential on this center.
    3          8
                                   No pseudopotential on this center.
    4          8
                                   No pseudopotential on this center.
    5          8
                                   No pseudopotential on this center.
    6         14
                                   No pseudopotential on this center.
    7         14
                                   No pseudopotential on this center.
    8         14
                                   No pseudopotential on this center.
    9         14
                                   No pseudopotential on this center.
   10          8
                                   No pseudopotential on this center.
   11          8
                                   No pseudopotential on this center.
   12          8
                                   No pseudopotential on this center.
   13          8
                                   No pseudopotential on this center.
   14          8
                                   No pseudopotential on this center.
   15          8
                                   No pseudopotential on this center.
   16          8
                                   No pseudopotential on this center.
   17          8
                                   No pseudopotential on this center.
   18          8
                                   No pseudopotential on this center.
   19          8
                                   No pseudopotential on this center.
   20          8
                                   No pseudopotential on this center.
   21          8
                                   No pseudopotential on this center.
   22          1
                                   No pseudopotential on this center.
   23          1
                                   No pseudopotential on this center.
   24          1
                                   No pseudopotential on this center.
   25          1
                                   No pseudopotential on this center.
   26          1
                                   No pseudopotential on this center.
   27          1
                                   No pseudopotential on this center.
   28          1
                                   No pseudopotential on this center.
   29          1
                                   No pseudopotential on this center.
   30          1
                                   No pseudopotential on this center.
   31          1
                                   No pseudopotential on this center.
   32          1
                                   No pseudopotential on this center.
   33          1
                                   No pseudopotential on this center.
 ======================================================================================================
 There are   570 symmetry adapted cartesian basis functions of A   symmetry.
 There are   524 symmetry adapted basis functions of A   symmetry.
   524 basis functions,  1074 primitive gaussians,   570 cartesian basis functions
   104 alpha electrons      104 beta electrons
       nuclear repulsion energy      2832.9190181511 Hartrees.
 NAtoms=   33 NActive=   33 NUniq=   33 SFac= 1.00D+00 NAtFMM=   60 NAOKFM=F Big=F
 Integral buffers will be    131072 words long.
 Raffenetti 2 integral format.
 Two-electron integral symmetry is turned on.
 Nuclear repulsion after empirical dispersion term =     2832.8782176902 Hartrees.
 One-electron integrals computed using PRISM.
 PrsmSu:  requested number of processors reduced to:   4 ShMem   1 Linda.
   1 Symmetry operations used in ECPInt.
 ECPInt:  NShTT=   13203 NPrTT=   78401 LenC2=   11526 LenP2D=   44637.
 LDataN:  DoStor=T MaxTD1= 8 Len=  415
 Number of processors reduced to  13 by ecpmxn.
 NBasis=   524 RedAO= T EigKep=  3.19D-05  NBF=   524
 NBsUse=   524 1.00D-06 EigRej= -1.00D+00 NBFU=   524
 Defaulting to unpruned grid for atomic number  40.
 ExpMin= 1.01D-02 ExpMax= 1.61D+04 ExpMxC= 2.43D+03 IAcc=3 IRadAn=         5 AccDes= 0.00D+00
 Harris functional with IExCor=  402 and IRadAn=       5 diagonalized for initial guess.
 HarFok:  IExCor=  402 AccDes= 0.00D+00 IRadAn=         5 IDoV= 1 UseB2=F ITyADJ=14
 ICtDFT=  3500011 ScaDFX=  1.000000  1.000000  1.000000  1.000000
 Defaulting to unpruned grid for atomic number  40.
 FoFCou: FMM=F IPFlag=           0 FMFlag=      100000 FMFlg1=           0
         NFxFlg=           0 DoJE=T BraDBF=F KetDBF=T FulRan=T
         wScrn=  0.000000 ICntrl=       500 IOpCl=  0 I1Cent=   200000004 NGrid=           0
         NMat0=    1 NMatS0=      1 NMatT0=    0 NMatD0=    1 NMtDS0=    0 NMtDT0=    0
 Petite list used in FoFCou.
 Requested convergence on RMS density matrix=1.00D-08 within 128 cycles.
 Requested convergence on MAX density matrix=1.00D-06.
 Requested convergence on             energy=1.00D-06.
 No special actions if energy rises.
 Defaulting to unpruned grid for atomic number  40.
 Defaulting to unpruned grid for atomic number  40.
 Defaulting to unpruned grid for atomic number  40.
 Defaulting to unpruned grid for atomic number  40.
 Defaulting to unpruned grid for atomic number  40.
 Defaulting to unpruned grid for atomic number  40.
 Defaulting to unpruned grid for atomic number  40.
 Defaulting to unpruned grid for atomic number  40.
 Defaulting to unpruned grid for atomic number  40.
 Defaulting to unpruned grid for atomic number  40.
 Defaulting to unpruned grid for atomic number  40.
 Defaulting to unpruned grid for atomic number  40.
 Defaulting to unpruned grid for atomic number  40.
 Defaulting to unpruned grid for atomic number  40.
 Defaulting to unpruned grid for atomic number  40.
 Defaulting to unpruned grid for atomic number  40.
 SCF Done:  E(RB3LYP) =  -2416.94683184     A.U. after   14 cycles
            NFock= 14  Conv=0.26D-08     -V/T= 2.0185

 **********************************************************************

            Population analysis using the SCF Density.

 **********************************************************************

 Orbital symmetries:
       Occupied  (A) (A) (A) (A) (A) (A) (A) (A) (A) (A) (A) (A)
                 (A) (A) (A) (A) (A) (A) (A) (A) (A) (A) (A) (A)
                 (A) (A) (A) (A) (A) (A) (A) (A) (A) (A) (A) (A)
                 (A) (A) (A) (A) (A) (A) (A) (A) (A) (A) (A) (A)
                 (A) (A) (A) (A) (A) (A) (A) (A) (A) (A) (A) (A)
                 (A) (A) (A) (A) (A) (A) (A) (A) (A) (A) (A) (A)
                 (A) (A) (A) (A) (A) (A) (A) (A) (A) (A) (A) (A)
                 (A) (A) (A) (A) (A) (A) (A) (A) (A) (A) (A) (A)
                 (A) (A) (A) (A) (A) (A) (A) (A)
       Virtual   (A) (A) (A) (A) (A) (A) (A) (A) (A) (A) (A) (A)
                 (A) (A) (A) (A) (A) (A) (A) (A) (A) (A) (A) (A)
                 (A) (A) (A) (A) (A) (A) (A) (A) (A) (A) (A) (A)
                 (A) (A) (A) (A) (A) (A) (A) (A) (A) (A) (A) (A)
                 (A) (A) (A) (A) (A) (A) (A) (A) (A) (A) (A) (A)
                 (A) (A) (A) (A) (A) (A) (A) (A) (A) (A) (A) (A)
                 (A) (A) (A) (A) (A) (A) (A) (A) (A) (A) (A) (A)
                 (A) (A) (A) (A) (A) (A) (A) (A) (A) (A) (A) (A)
                 (A) (A) (A) (A) (A) (A) (A) (A) (A) (A) (A) (A)
                 (A) (A) (A) (A) (A) (A) (A) (A) (A) (A) (A) (A)
                 (A) (A) (A) (A) (A) (A) (A) (A) (A) (A) (A) (A)
                 (A) (A) (A) (A) (A) (A) (A) (A) (A) (A) (A) (A)
                 (A) (A) (A) (A) (A) (A) (A) (A) (A) (A) (A) (A)
                 (A) (A) (A) (A) (A) (A) (A) (A) (A) (A) (A) (A)
                 (A) (A) (A) (A) (A) (A) (A) (A) (A) (A) (A) (A)
                 (A) (A) (A) (A) (A) (A) (A) (A) (A) (A) (A) (A)
                 (A) (A) (A) (A) (A) (A) (A) (A) (A) (A) (A) (A)
                 (A) (A) (A) (A) (A) (A) (A) (A) (A) (A) (A) (A)
                 (A) (A) (A) (A) (A) (A) (A) (A) (A) (A) (A) (A)
                 (A) (A) (A) (A) (A) (A) (A) (A) (A) (A) (A) (A)
                 (A) (A) (A) (A) (A) (A) (A) (A) (A) (A) (A) (A)
                 (A) (A) (A) (A) (A) (A) (A) (A) (A) (A) (A) (A)
                 (A) (A) (A) (A) (A) (A) (A) (A) (A) (A) (A) (A)
                 (A) (A) (A) (A) (A) (A) (A) (A) (A) (A) (A) (A)
                 (A) (A) (A) (A) (A) (A) (A) (A) (A) (A) (A) (A)
                 (A) (A) (A) (A) (A) (A) (A) (A) (A) (A) (A) (A)
                 (A) (A) (A) (A) (A) (A) (A) (A) (A) (A) (A) (A)
                 (A) (A) (A) (A) (A) (A) (A) (A) (A) (A) (A) (A)
                 (A) (A) (A) (A) (A) (A) (A) (A) (A) (A) (A) (A)
                 (A) (A) (A) (A) (A) (A) (A) (A) (A) (A) (A) (A)
                 (A) (A) (A) (A) (A) (A) (A) (A) (A) (A) (A) (A)
                 (A) (A) (A) (A) (A) (A) (A) (A) (A) (A) (A) (A)
                 (A) (A) (A) (A) (A) (A) (A) (A) (A) (A) (A) (A)
                 (A) (A) (A) (A) (A) (A) (A) (A) (A) (A) (A) (A)
                 (A) (A) (A) (A) (A) (A) (A) (A) (A) (A) (A) (A)
 The electronic state is 1-A.
 Alpha  occ. eigenvalues --  -66.22817 -66.21758 -66.21488 -66.21028 -19.18601
 Alpha  occ. eigenvalues --  -19.18356 -19.17803 -19.17034 -19.16738 -19.16547
 Alpha  occ. eigenvalues --  -19.16431 -19.16212 -19.16178 -19.16023 -19.15976
 Alpha  occ. eigenvalues --  -19.15505 -19.15332 -19.15245 -19.14891 -19.14706
 Alpha  occ. eigenvalues --   -5.36877  -5.35838  -5.35563  -5.35087  -3.72861
 Alpha  occ. eigenvalues --   -3.72834  -3.72787  -3.71830  -3.71783  -3.71748
 Alpha  occ. eigenvalues --   -3.71532  -3.71524  -3.71484  -3.71052  -3.71044
 Alpha  occ. eigenvalues --   -3.71018  -2.13365  -1.29609  -1.29524  -1.29366
 Alpha  occ. eigenvalues --   -1.05692  -1.04781  -1.04149  -1.03487  -1.02578
 Alpha  occ. eigenvalues --   -1.02176  -1.01476  -1.00920  -1.00757  -1.00655
 Alpha  occ. eigenvalues --   -0.99827  -0.99303  -0.97376  -0.96289  -0.95724
 Alpha  occ. eigenvalues --   -0.95398  -0.61002  -0.59163  -0.58972  -0.58478
 Alpha  occ. eigenvalues --   -0.55554  -0.54536  -0.53869  -0.53039  -0.52981
 Alpha  occ. eigenvalues --   -0.52489  -0.52137  -0.51714  -0.48790  -0.47600
 Alpha  occ. eigenvalues --   -0.47207  -0.46715  -0.43382  -0.42648  -0.41870
 Alpha  occ. eigenvalues --   -0.41407  -0.41109  -0.40529  -0.39845  -0.39313
 Alpha  occ. eigenvalues --   -0.38817  -0.38694  -0.38642  -0.38136  -0.38012
 Alpha  occ. eigenvalues --   -0.37624  -0.37503  -0.37154  -0.36515  -0.36424
 Alpha  occ. eigenvalues --   -0.36116  -0.35646  -0.35441  -0.35083  -0.34913
 Alpha  occ. eigenvalues --   -0.34609  -0.33988  -0.33711  -0.33456  -0.33277
 Alpha  occ. eigenvalues --   -0.32799  -0.32180  -0.32050  -0.31302
 Alpha virt. eigenvalues --   -0.04337  -0.03152  -0.03036  -0.02757  -0.02098
 Alpha virt. eigenvalues --   -0.01171  -0.00565  -0.00170   0.00130   0.00305
 Alpha virt. eigenvalues --    0.00770   0.00941   0.01016   0.01948   0.02341
 Alpha virt. eigenvalues --    0.03188   0.03336   0.03837   0.03938   0.04086
 Alpha virt. eigenvalues --    0.04158   0.04799   0.05617   0.05835   0.06112
 Alpha virt. eigenvalues --    0.06476   0.07096   0.07441   0.07718   0.08660
 Alpha virt. eigenvalues --    0.08781   0.09004   0.09182   0.09672   0.09978
 Alpha virt. eigenvalues --    0.10427   0.10628   0.10831   0.11170   0.11704
 Alpha virt. eigenvalues --    0.11824   0.12528   0.13247   0.13334   0.13833
 Alpha virt. eigenvalues --    0.14047   0.14300   0.14878   0.15181   0.15369
 Alpha virt. eigenvalues --    0.15424   0.15760   0.16160   0.16742   0.16915
 Alpha virt. eigenvalues --    0.17411   0.17494   0.17642   0.17999   0.18292
 Alpha virt. eigenvalues --    0.18534   0.18787   0.19201   0.19597   0.19731
 Alpha virt. eigenvalues --    0.20091   0.20450   0.20674   0.21058   0.21215
 Alpha virt. eigenvalues --    0.21745   0.21766   0.22256   0.22539   0.22817
 Alpha virt. eigenvalues --    0.23386   0.23825   0.24023   0.24154   0.24493
 Alpha virt. eigenvalues --    0.25022   0.25139   0.25516   0.25795   0.26172
 Alpha virt. eigenvalues --    0.26435   0.26728   0.26910   0.27328   0.27348
 Alpha virt. eigenvalues --    0.27947   0.28136   0.28485   0.28875   0.29030
 Alpha virt. eigenvalues --    0.29471   0.29624   0.29899   0.30384   0.30618
 Alpha virt. eigenvalues --    0.30925   0.31296   0.31377   0.31533   0.32206
 Alpha virt. eigenvalues --    0.32454   0.32879   0.33185   0.33508   0.34056
 Alpha virt. eigenvalues --    0.34265   0.34752   0.35327   0.35830   0.36279
 Alpha virt. eigenvalues --    0.36927   0.37574   0.37970   0.38378   0.38900
 Alpha virt. eigenvalues --    0.39221   0.39845   0.40110   0.41182   0.41610
 Alpha virt. eigenvalues --    0.42406   0.43292   0.43852   0.44323   0.44816
 Alpha virt. eigenvalues --    0.45179   0.45862   0.46046   0.46760   0.47432
 Alpha virt. eigenvalues --    0.47863   0.48378   0.48886   0.49497   0.49676
 Alpha virt. eigenvalues --    0.49916   0.50653   0.51213   0.51325   0.53225
 Alpha virt. eigenvalues --    0.53984   0.54474   0.55287   0.56965   0.57240
 Alpha virt. eigenvalues --    0.58225   0.58751   0.59099   0.59563   0.60303
 Alpha virt. eigenvalues --    0.61158   0.61704   0.62099   0.64104   0.65915
 Alpha virt. eigenvalues --    0.66694   0.67723   0.68330   0.69148   0.69457
 Alpha virt. eigenvalues --    0.70312   0.70372   0.72866   0.74330   0.75201
 Alpha virt. eigenvalues --    0.75515   0.77398   0.78563   0.79022   0.80525
 Alpha virt. eigenvalues --    0.81120   0.81532   0.82646   0.84089   0.85492
 Alpha virt. eigenvalues --    0.86868   0.87622   0.90081   0.90581   0.91137
 Alpha virt. eigenvalues --    0.94102   0.95713   0.96340   0.96883   0.97434
 Alpha virt. eigenvalues --    0.98223   0.98845   0.99329   0.99848   1.00209
 Alpha virt. eigenvalues --    1.00631   1.01375   1.01964   1.03230   1.04079
 Alpha virt. eigenvalues --    1.04257   1.05608   1.06338   1.06709   1.07885
 Alpha virt. eigenvalues --    1.09829   1.12352   1.15240   1.16169   1.16423
 Alpha virt. eigenvalues --    1.18744   1.18994   1.19928   1.20645   1.20962
 Alpha virt. eigenvalues --    1.21375   1.21787   1.22290   1.22663   1.22972
 Alpha virt. eigenvalues --    1.23519   1.24083   1.24159   1.25249   1.25682
 Alpha virt. eigenvalues --    1.25894   1.27114   1.27591   1.28039   1.28474
 Alpha virt. eigenvalues --    1.28956   1.29772   1.30131   1.31033   1.31396
 Alpha virt. eigenvalues --    1.32388   1.32561   1.32989   1.33398   1.34485
 Alpha virt. eigenvalues --    1.35126   1.36125   1.36493   1.36876   1.37895
 Alpha virt. eigenvalues --    1.39125   1.39762   1.40227   1.41287   1.41530
 Alpha virt. eigenvalues --    1.42666   1.43482   1.44207   1.45098   1.46371
 Alpha virt. eigenvalues --    1.46955   1.49011   1.51281   1.51527   1.52727
 Alpha virt. eigenvalues --    1.56786   1.57436   1.57954   1.59317   1.59636
 Alpha virt. eigenvalues --    1.60069   1.61148   1.61941   1.62583   1.63010
 Alpha virt. eigenvalues --    1.63254   1.63755   1.65198   1.65414   1.66446
 Alpha virt. eigenvalues --    1.67465   1.68100   1.69256   1.69379   1.70036
 Alpha virt. eigenvalues --    1.71273   1.71577   1.71899   1.72745   1.73033
 Alpha virt. eigenvalues --    1.74066   1.75074   1.75641   1.76162   1.76365
 Alpha virt. eigenvalues --    1.77122   1.77308   1.78496   1.78972   1.79792
 Alpha virt. eigenvalues --    1.80407   1.81406   1.82081   1.82705   1.83004
 Alpha virt. eigenvalues --    1.83307   1.84796   1.85031   1.85846   1.86492
 Alpha virt. eigenvalues --    1.87208   1.88156   1.88778   1.89699   1.90497
 Alpha virt. eigenvalues --    1.91222   1.91507   1.92584   1.92737   1.93981
 Alpha virt. eigenvalues --    1.94671   1.95169   1.95904   1.97175   1.98339
 Alpha virt. eigenvalues --    1.98669   2.00326   2.01079   2.02871   2.03756
 Alpha virt. eigenvalues --    2.05847   2.06522   2.07749   2.09856   2.10385
 Alpha virt. eigenvalues --    2.11418   2.12961   2.14395   2.16099   2.16324
 Alpha virt. eigenvalues --    2.17720   2.18892   2.19041   2.20863   2.26747
 Alpha virt. eigenvalues --    2.32321   2.33390   2.35615   2.39474   2.40458
 Alpha virt. eigenvalues --    2.41177   2.41388   2.41660   2.42774   2.43740
 Alpha virt. eigenvalues --    2.44024   2.45554   2.46668   2.47650   2.49062
 Alpha virt. eigenvalues --    2.50215   2.50316   2.51680   2.52653   2.53258
 Alpha virt. eigenvalues --    2.55404   2.58603   2.59074   2.60047   2.60666
 Alpha virt. eigenvalues --    2.61141   2.61802   2.62121   2.62551   2.62791
 Alpha virt. eigenvalues --    2.63202   2.64023   2.64684   2.65004   2.65941
 Alpha virt. eigenvalues --    2.66323   2.66628   2.67298   2.67581   2.69369
 Alpha virt. eigenvalues --    2.69724   2.70290   2.71217   2.71694   2.72369
 Alpha virt. eigenvalues --    2.72897   2.74401   2.75552   2.76758   2.77480
 Alpha virt. eigenvalues --    2.78948   2.80591   2.81419   2.82439   2.83505
 Alpha virt. eigenvalues --    2.83761   2.84693   2.86684   2.87787   2.88141
 Alpha virt. eigenvalues --    3.15064   3.20749   3.35933   3.41157   3.46827
 Alpha virt. eigenvalues --    3.47816   3.48607   3.48642   3.51063   3.51132
 Alpha virt. eigenvalues --    3.52851   3.53829   3.60302   3.61074   3.62063
 Alpha virt. eigenvalues --    3.66176   4.36258   4.60688   7.92795  31.29400
          Condensed to atoms (all electrons):
               1          2          3          4          5          6
     1  Zr  15.058646  -0.090759  -0.002004  -0.124931  -0.184249  -0.636618
     2  O   -0.090759   9.046949   0.019119  -0.042251  -0.056565   0.080500
     3  O   -0.002004   0.019119   8.827348   0.017529  -0.046199  -0.001789
     4  O   -0.124931  -0.042251   0.017529   8.810687  -0.061952  -0.680474
     5  O   -0.184249  -0.056565  -0.046199  -0.061952   9.412238  -0.008910
     6  Si  -0.636618   0.080500  -0.001789  -0.680474  -0.008910  14.036855
     7  Si  -0.605422  -0.030281  -0.872427  -0.009211  -0.034773   0.082281
     8  Si  -0.641995  -0.996189  -0.018899   0.068498  -0.015402   0.001355
     9  Si  -0.307135  -0.039677  -0.026694  -0.030704  -1.190487   0.039482
    10  O   -0.020561   0.001048  -0.001693   0.000630   0.127569  -0.002007
    11  O   -0.070698   0.002964   0.003078   0.001453   0.313412  -0.000619
    12  O    0.049124   0.000236   0.004451   0.001891   0.136391  -0.003199
    13  O   -0.020865   0.181852   0.001572  -0.015251  -0.000680   0.031348
    14  O   -0.004791   0.258778  -0.018131  -0.008649   0.001677   0.025887
    15  O   -0.086731   0.293063  -0.000622   0.001202   0.000625   0.001071
    16  O   -0.122207   0.004702  -0.000548   0.346860   0.003248  -0.428609
    17  O   -0.080790  -0.039272   0.009105   0.214571   0.001441  -0.449905
    18  O   -0.024128  -0.014938   0.003767   0.197088  -0.000641  -0.452651
    19  O    0.006488   0.008622   0.267425   0.010748   0.002190  -0.008779
    20  O   -0.145702  -0.000585   0.163649  -0.000810   0.001543   0.009302
    21  O    0.037171   0.009630   0.145520   0.003556   0.000155  -0.012297
    22  H   -0.009193  -0.000014  -0.000003  -0.000007   0.006120   0.000089
    23  H   -0.007826  -0.000012  -0.000005  -0.000051  -0.025291   0.000107
    24  H   -0.005306  -0.000158  -0.000013   0.000007  -0.004775   0.000110
    25  H    0.015522  -0.019672  -0.000108  -0.000415   0.000017   0.003270
    26  H    0.007115   0.000800   0.000014  -0.000011  -0.000004  -0.000168
    27  H    0.000971  -0.018692   0.000832  -0.001742   0.000014   0.009916
    28  H    0.004955  -0.000011  -0.018369  -0.000014  -0.000015  -0.000276
    29  H    0.003347  -0.006935  -0.020213  -0.000138  -0.000073   0.000210
    30  H    0.000598  -0.000012  -0.000004  -0.000464  -0.000009  -0.000595
    31  H   -0.000103   0.000183  -0.000020  -0.018475  -0.000011   0.063936
    32  H    0.002235  -0.000025   0.000042   0.010509   0.000002   0.022445
    33  H   -0.015378   0.001010  -0.010160  -0.009622  -0.000100   0.052831
               7          8          9         10         11         12
     1  Zr  -0.605422  -0.641995  -0.307135  -0.020561  -0.070698   0.049124
     2  O   -0.030281  -0.996189  -0.039677   0.001048   0.002964   0.000236
     3  O   -0.872427  -0.018899  -0.026694  -0.001693   0.003078   0.004451
     4  O   -0.009211   0.068498  -0.030704   0.000630   0.001453   0.001891
     5  O   -0.034773  -0.015402  -1.190487   0.127569   0.313412   0.136391
     6  Si   0.082281   0.001355   0.039482  -0.002007  -0.000619  -0.003199
     7  Si  13.791291   0.183740   0.018494  -0.000034  -0.001029   0.003417
     8  Si   0.183740  13.836820   0.027714  -0.001162   0.001325  -0.001409
     9  Si   0.018494   0.027714  14.150859  -0.056626  -0.172893  -0.187721
    10  O   -0.000034  -0.001162  -0.056626   8.521916   0.014014   0.029305
    11  O   -0.001029   0.001325  -0.172893   0.014014   8.515904  -0.050942
    12  O    0.003417  -0.001409  -0.187721   0.029305  -0.050942   8.594873
    13  O    0.006817  -0.097706   0.000041   0.000000   0.000019   0.000003
    14  O    0.008236  -0.365735  -0.001591  -0.000002   0.000003   0.000014
    15  O   -0.002236  -0.304977  -0.000489  -0.000000  -0.000021  -0.000007
    16  O    0.003768  -0.010964  -0.001082   0.000005  -0.000005  -0.000001
    17  O   -0.001315   0.096305   0.002541   0.000001   0.000003  -0.000005
    18  O   -0.000959   0.076504   0.003979  -0.000000   0.000003  -0.000001
    19  O   -0.416087  -0.016528   0.000988   0.000006  -0.000002  -0.000033
    20  O   -0.109638   0.009578   0.002999   0.000008  -0.000003  -0.000036
    21  O    0.025493  -0.039616  -0.001595   0.000000   0.000001   0.000015
    22  H   -0.000129   0.000099   0.046959  -0.006234  -0.005004   0.219380
    23  H    0.000055   0.000060   0.081111   0.228799  -0.005980   0.005825
    24  H    0.000043  -0.000030   0.035804   0.007343   0.243015  -0.007272
    25  H   -0.000429   0.057375  -0.000202   0.000000  -0.000000  -0.000000
    26  H   -0.000388   0.046287  -0.000045  -0.000000   0.000000  -0.000000
    27  H    0.001717   0.068876   0.000008   0.000000  -0.000000  -0.000000
    28  H    0.056657  -0.000035  -0.000142  -0.000000  -0.000000  -0.000003
    29  H    0.048278   0.022162  -0.000059   0.000000   0.000000  -0.000001
    30  H    0.040572   0.000117   0.000018  -0.000000   0.000000   0.000000
    31  H    0.000155  -0.002076  -0.000051   0.000000  -0.000000   0.000000
    32  H   -0.000666   0.000062   0.000020  -0.000000   0.000000  -0.000000
    33  H    0.020645  -0.000011   0.000077  -0.000000   0.000000   0.000000
              13         14         15         16         17         18
     1  Zr  -0.020865  -0.004791  -0.086731  -0.122207  -0.080790  -0.024128
     2  O    0.181852   0.258778   0.293063   0.004702  -0.039272  -0.014938
     3  O    0.001572  -0.018131  -0.000622  -0.000548   0.009105   0.003767
     4  O   -0.015251  -0.008649   0.001202   0.346860   0.214571   0.197088
     5  O   -0.000680   0.001677   0.000625   0.003248   0.001441  -0.000641
     6  Si   0.031348   0.025887   0.001071  -0.428609  -0.449905  -0.452651
     7  Si   0.006817   0.008236  -0.002236   0.003768  -0.001315  -0.000959
     8  Si  -0.097706  -0.365735  -0.304977  -0.010964   0.096305   0.076504
     9  Si   0.000041  -0.001591  -0.000489  -0.001082   0.002541   0.003979
    10  O    0.000000  -0.000002  -0.000000   0.000005   0.000001  -0.000000
    11  O    0.000019   0.000003  -0.000021  -0.000005   0.000003   0.000003
    12  O    0.000003   0.000014  -0.000007  -0.000001  -0.000005  -0.000001
    13  O    8.625777   0.086605  -0.090584   0.003768  -0.030908  -0.045915
    14  O    0.086605   8.669872   0.055875   0.003641  -0.035757  -0.026903
    15  O   -0.090584   0.055875   8.779278  -0.000175   0.003625   0.001691
    16  O    0.003768   0.003641  -0.000175   8.902570  -0.092068  -0.114306
    17  O   -0.030908  -0.035757   0.003625  -0.092068   8.934670   0.227522
    18  O   -0.045915  -0.026903   0.001691  -0.114306   0.227522   9.011736
    19  O    0.000156  -0.000621   0.000147  -0.001451  -0.029734   0.000137
    20  O    0.000008  -0.000281   0.000037   0.000066  -0.000956   0.000014
    21  O   -0.000255   0.015613  -0.000646  -0.000213  -0.005585   0.000480
    22  H   -0.000000  -0.000000   0.000000   0.000000   0.000000  -0.000000
    23  H    0.000000   0.000000   0.000000  -0.000000   0.000000   0.000000
    24  H   -0.000000   0.000000   0.000002   0.000000  -0.000000  -0.000000
    25  H    0.218858  -0.011877   0.008909  -0.000061   0.000627   0.015054
    26  H   -0.005046  -0.010131   0.216690   0.000000  -0.000003   0.000006
    27  H   -0.009578   0.219900   0.004642   0.000181   0.018015  -0.000220
    28  H    0.000000  -0.000006  -0.000001  -0.000000   0.000004  -0.000000
    29  H    0.000805   0.017610  -0.002575  -0.000004  -0.000399   0.000006
    30  H    0.000001   0.000002   0.000000   0.000113  -0.000414  -0.000007
    31  H    0.002367   0.000170  -0.000019   0.003683  -0.000736   0.218126
    32  H   -0.000008  -0.000006   0.000000   0.233574  -0.003626   0.003875
    33  H    0.000228   0.002108  -0.000035  -0.000067   0.231025   0.002092
              19         20         21         22         23         24
     1  Zr   0.006488  -0.145702   0.037171  -0.009193  -0.007826  -0.005306
     2  O    0.008622  -0.000585   0.009630  -0.000014  -0.000012  -0.000158
     3  O    0.267425   0.163649   0.145520  -0.000003  -0.000005  -0.000013
     4  O    0.010748  -0.000810   0.003556  -0.000007  -0.000051   0.000007
     5  O    0.002190   0.001543   0.000155   0.006120  -0.025291  -0.004775
     6  Si  -0.008779   0.009302  -0.012297   0.000089   0.000107   0.000110
     7  Si  -0.416087  -0.109638   0.025493  -0.000129   0.000055   0.000043
     8  Si  -0.016528   0.009578  -0.039616   0.000099   0.000060  -0.000030
     9  Si   0.000988   0.002999  -0.001595   0.046959   0.081111   0.035804
    10  O    0.000006   0.000008   0.000000  -0.006234   0.228799   0.007343
    11  O   -0.000002  -0.000003   0.000001  -0.005004  -0.005980   0.243015
    12  O   -0.000033  -0.000036   0.000015   0.219380   0.005825  -0.007272
    13  O    0.000156   0.000008  -0.000255  -0.000000   0.000000  -0.000000
    14  O   -0.000621  -0.000281   0.015613  -0.000000   0.000000   0.000000
    15  O    0.000147   0.000037  -0.000646   0.000000   0.000000   0.000002
    16  O   -0.001451   0.000066  -0.000213   0.000000  -0.000000   0.000000
    17  O   -0.029734  -0.000956  -0.005585   0.000000   0.000000  -0.000000
    18  O    0.000137   0.000014   0.000480  -0.000000   0.000000  -0.000000
    19  O    8.874469   0.032452   0.023045  -0.000000   0.000000  -0.000000
    20  O    0.032452   8.658215  -0.050542   0.000000   0.000000  -0.000000
    21  O    0.023045  -0.050542   8.485086  -0.000000   0.000000   0.000000
    22  H   -0.000000   0.000000  -0.000000   0.362097   0.000058   0.000123
    23  H    0.000000   0.000000   0.000000   0.000058   0.350982   0.000016
    24  H   -0.000000  -0.000000   0.000000   0.000123   0.000016   0.365438
    25  H   -0.000023   0.000000  -0.000019   0.000000   0.000000   0.000000
    26  H    0.000001  -0.000000   0.000041  -0.000000  -0.000000  -0.000000
    27  H    0.000051   0.000193  -0.003981  -0.000000  -0.000000   0.000000
    28  H    0.004627   0.229574  -0.002038  -0.000000   0.000000   0.000000
    29  H   -0.008584   0.007675   0.206498   0.000000   0.000000  -0.000000
    30  H    0.224018  -0.001490  -0.007155   0.000000  -0.000000  -0.000000
    31  H    0.000004  -0.000000  -0.000000  -0.000000  -0.000000   0.000000
    32  H    0.000097  -0.000000   0.000001  -0.000000  -0.000000  -0.000000
    33  H    0.014739  -0.000083   0.001487  -0.000000  -0.000000  -0.000000
              25         26         27         28         29         30
     1  Zr   0.015522   0.007115   0.000971   0.004955   0.003347   0.000598
     2  O   -0.019672   0.000800  -0.018692  -0.000011  -0.006935  -0.000012
     3  O   -0.000108   0.000014   0.000832  -0.018369  -0.020213  -0.000004
     4  O   -0.000415  -0.000011  -0.001742  -0.000014  -0.000138  -0.000464
     5  O    0.000017  -0.000004   0.000014  -0.000015  -0.000073  -0.000009
     6  Si   0.003270  -0.000168   0.009916  -0.000276   0.000210  -0.000595
     7  Si  -0.000429  -0.000388   0.001717   0.056657   0.048278   0.040572
     8  Si   0.057375   0.046287   0.068876  -0.000035   0.022162   0.000117
     9  Si  -0.000202  -0.000045   0.000008  -0.000142  -0.000059   0.000018
    10  O    0.000000  -0.000000   0.000000  -0.000000   0.000000  -0.000000
    11  O   -0.000000   0.000000  -0.000000  -0.000000   0.000000   0.000000
    12  O   -0.000000  -0.000000  -0.000000  -0.000003  -0.000001   0.000000
    13  O    0.218858  -0.005046  -0.009578   0.000000   0.000805   0.000001
    14  O   -0.011877  -0.010131   0.219900  -0.000006   0.017610   0.000002
    15  O    0.008909   0.216690   0.004642  -0.000001  -0.002575   0.000000
    16  O   -0.000061   0.000000   0.000181  -0.000000  -0.000004   0.000113
    17  O    0.000627  -0.000003   0.018015   0.000004  -0.000399  -0.000414
    18  O    0.015054   0.000006  -0.000220  -0.000000   0.000006  -0.000007
    19  O   -0.000023   0.000001   0.000051   0.004627  -0.008584   0.224018
    20  O    0.000000  -0.000000   0.000193   0.229574   0.007675  -0.001490
    21  O   -0.000019   0.000041  -0.003981  -0.002038   0.206498  -0.007155
    22  H    0.000000  -0.000000  -0.000000  -0.000000   0.000000   0.000000
    23  H    0.000000  -0.000000  -0.000000   0.000000   0.000000  -0.000000
    24  H    0.000000  -0.000000   0.000000   0.000000  -0.000000  -0.000000
    25  H    0.298828  -0.000012   0.000108   0.000000   0.000001   0.000000
    26  H   -0.000012   0.366162   0.000035   0.000000   0.000021  -0.000000
    27  H    0.000108   0.000035   0.283320  -0.000000  -0.001500   0.000009
    28  H    0.000000   0.000000  -0.000000   0.349081  -0.000016  -0.000016
    29  H    0.000001   0.000021  -0.001500  -0.000016   0.285915   0.000157
    30  H    0.000000  -0.000000   0.000009  -0.000016   0.000157   0.334303
    31  H   -0.000499   0.000000   0.000012  -0.000000   0.000000  -0.000000
    32  H   -0.000001   0.000000  -0.000000   0.000000  -0.000000  -0.000000
    33  H    0.000006  -0.000000  -0.002415  -0.000002   0.000099  -0.001163
              31         32         33
     1  Zr  -0.000103   0.002235  -0.015378
     2  O    0.000183  -0.000025   0.001010
     3  O   -0.000020   0.000042  -0.010160
     4  O   -0.018475   0.010509  -0.009622
     5  O   -0.000011   0.000002  -0.000100
     6  Si   0.063936   0.022445   0.052831
     7  Si   0.000155  -0.000666   0.020645
     8  Si  -0.002076   0.000062  -0.000011
     9  Si  -0.000051   0.000020   0.000077
    10  O    0.000000  -0.000000  -0.000000
    11  O   -0.000000   0.000000   0.000000
    12  O    0.000000  -0.000000   0.000000
    13  O    0.002367  -0.000008   0.000228
    14  O    0.000170  -0.000006   0.002108
    15  O   -0.000019   0.000000  -0.000035
    16  O    0.003683   0.233574  -0.000067
    17  O   -0.000736  -0.003626   0.231025
    18  O    0.218126   0.003875   0.002092
    19  O    0.000004   0.000097   0.014739
    20  O   -0.000000  -0.000000  -0.000083
    21  O   -0.000000   0.000001   0.001487
    22  H   -0.000000  -0.000000  -0.000000
    23  H   -0.000000  -0.000000  -0.000000
    24  H    0.000000  -0.000000  -0.000000
    25  H   -0.000499  -0.000001   0.000006
    26  H    0.000000   0.000000  -0.000000
    27  H    0.000012  -0.000000  -0.002415
    28  H   -0.000000   0.000000  -0.000002
    29  H    0.000000  -0.000000   0.000099
    30  H   -0.000000  -0.000000  -0.001163
    31  H    0.331474   0.000002  -0.000038
    32  H    0.000002   0.350058   0.000156
    33  H   -0.000038   0.000156   0.269294
 Mulliken charges:
               1
     1  Zr   0.021221
     2  O   -0.553411
     3  O   -0.425549
     4  O   -0.680057
     5  O   -0.376507
     6  Si   2.225900
     7  Si   1.793366
     8  Si   2.015856
     9  Si   1.606099
    10  O   -0.842322
    11  O   -0.787998
    12  O   -0.794293
    13  O   -0.843432
    14  O   -0.881510
    15  O   -0.877739
    16  O   -0.734420
    17  O   -0.967981
    18  O   -1.081413
    19  O   -0.988571
    20  O   -0.805188
    21  O   -0.829852
    22  H    0.385660
    23  H    0.372154
    24  H    0.365654
    25  H    0.414741
    26  H    0.378635
    27  H    0.429328
    28  H    0.376046
    29  H    0.447715
    30  H    0.411419
    31  H    0.401917
    32  H    0.381251
    33  H    0.443280
 Sum of Mulliken charges =  -0.00000
 Mulliken charges with hydrogens summed into heavy atoms:
               1
     1  Zr   0.021221
     2  O   -0.553411
     3  O   -0.425549
     4  O   -0.680057
     5  O   -0.376507
     6  Si   2.225900
     7  Si   1.793366
     8  Si   2.015856
     9  Si   1.606099
    10  O   -0.470168
    11  O   -0.422344
    12  O   -0.408633
    13  O   -0.428691
    14  O   -0.452182
    15  O   -0.499104
    16  O   -0.353169
    17  O   -0.524702
    18  O   -0.679496
    19  O   -0.577152
    20  O   -0.429143
    21  O   -0.382137
 Electronic spatial extent (au):  <R**2>=           9867.2823
 Charge=             -0.0000 electrons
 Dipole moment (field-independent basis, Debye):
    X=              1.0305    Y=             -0.8436    Z=             -2.5872  Tot=              2.9099
 Quadrupole moment (field-independent basis, Debye-Ang):
   XX=           -160.1934   YY=           -154.7374   ZZ=           -157.6396
   XY=             -5.1939   XZ=              1.9051   YZ=              5.6785
 Traceless Quadrupole moment (field-independent basis, Debye-Ang):
   XX=             -2.6699   YY=              2.7860   ZZ=             -0.1161
   XY=             -5.1939   XZ=              1.9051   YZ=              5.6785
 Octapole moment (field-independent basis, Debye-Ang**2):
  XXX=             74.3622  YYY=              4.7272  ZZZ=            -24.3328  XYY=             -4.7030
  XXY=             19.9185  XXZ=             19.1522  XZZ=              7.2692  YZZ=            -16.2760
  YYZ=            -11.6286  XYZ=             27.5111
 Hexadecapole moment (field-independent basis, Debye-Ang**3):
 XXXX=          -6030.6973 YYYY=          -2830.5848 ZZZZ=          -2249.6272 XXXY=             47.2036
 XXXZ=             -3.3583 YYYX=             -3.2983 YYYZ=            213.9903 ZZZX=           -207.1866
 ZZZY=            -51.5861 XXYY=          -1501.2855 XXZZ=          -1343.8394 YYZZ=           -931.0402
 XXYZ=            -11.1498 YYXZ=            146.7283 ZZXY=            -48.9512
 N-N= 2.832878217690D+03 E-N=-1.137835725218D+04  KE= 2.373155185090D+03
 PrsmSu:  requested number of processors reduced to:   2 ShMem   1 Linda.
 PrsmSu:  requested number of processors reduced to:  10 ShMem   1 Linda.
   1 Symmetry operations used in ECPInt.
 ECPInt:  NShTT=   13203 NPrTT=   78401 LenC2=   11526 LenP2D=   44637.
 LDataN:  DoStor=T MaxTD1= 9 Len=  602
 Number of processors reduced to  14 by ecpmxn.
 Calling FoFJK, ICntrl=      2127 FMM=F ISym2X=0 I1Cent= 0 IOpClX= 0 NMat=1 NMatS=1 NMatT=0.
 CoulSu:  requested number of processors reduced to:  10 ShMem   1 Linda.
 Defaulting to unpruned grid for atomic number  40.
 Defaulting to unpruned grid for atomic number  40.
 Defaulting to unpruned grid for atomic number  40.
 Defaulting to unpruned grid for atomic number  40.
 Defaulting to unpruned grid for atomic number  40.
 Defaulting to unpruned grid for atomic number  40.
 Defaulting to unpruned grid for atomic number  40.
 Defaulting to unpruned grid for atomic number  40.
 Defaulting to unpruned grid for atomic number  40.
 Defaulting to unpruned grid for atomic number  40.
 Defaulting to unpruned grid for atomic number  40.
 Defaulting to unpruned grid for atomic number  40.
 Defaulting to unpruned grid for atomic number  40.
 Defaulting to unpruned grid for atomic number  40.
 Defaulting to unpruned grid for atomic number  40.
 Defaulting to unpruned grid for atomic number  40.
 ***** Axes restored to original set *****
 -------------------------------------------------------------------
 Center     Atomic                   Forces (Hartrees/Bohr)
 Number     Number              X              Y              Z
 -------------------------------------------------------------------
      1       40           0.000055012    0.000012673    0.000484539
      2        8          -0.000061319   -0.000002049   -0.000236956
      3        8           0.000057737    0.000090616   -0.000045079
      4        8           0.000028044   -0.000080548   -0.000091563
      5        8          -0.000029884   -0.000117012   -0.000162363
      6       14          -0.000042713    0.000046241    0.000044007
      7       14          -0.000034882   -0.000016631    0.000079127
      8       14           0.000052248    0.000066305    0.000152692
      9       14          -0.000000589    0.000198127   -0.000005402
     10        8           0.000012452   -0.000058620    0.000022056
     11        8          -0.000013234   -0.000132853   -0.000021621
     12        8          -0.000058109   -0.000020054   -0.000049564
     13        8          -0.000010481   -0.000043696   -0.000040396
     14        8          -0.000007287   -0.000008933   -0.000037355
     15        8          -0.000037551   -0.000025231   -0.000071042
     16        8           0.000014171   -0.000007516   -0.000029296
     17        8           0.000021876   -0.000014627   -0.000029003
     18        8           0.000007593   -0.000008487   -0.000009184
     19        8           0.000002691   -0.000001065   -0.000023781
     20        8           0.000026785    0.000002790   -0.000011254
     21        8           0.000000397    0.000010796   -0.000050284
     22        1          -0.000000378    0.000003850    0.000006938
     23        1           0.000006558    0.000009401   -0.000005181
     24        1           0.000036853    0.000075057    0.000041198
     25        1          -0.000004133    0.000009082    0.000016397
     26        1           0.000005211    0.000007214    0.000007351
     27        1          -0.000007343    0.000003589    0.000017405
     28        1          -0.000006916    0.000002945    0.000006192
     29        1           0.000013584   -0.000002334    0.000018732
     30        1          -0.000001364    0.000000953    0.000006170
     31        1          -0.000005247   -0.000002473   -0.000004732
     32        1          -0.000020151   -0.000001217    0.000007503
     33        1           0.000000369    0.000003706    0.000013749
 -------------------------------------------------------------------
 Cartesian Forces:  Max     0.000484539 RMS     0.000071804

 GradGradGradGradGradGradGradGradGradGradGradGradGradGradGradGradGradGrad
 Berny optimization.
 FormGI is forming the generalized inverse of G from B-inverse, IUseBI=4.
 Internal  Forces:  Max     0.000343184 RMS     0.000055549
 Search for a local minimum.
 Step number   1 out of a maximum of  148
 All quantities printed in internal units (Hartrees-Bohrs-Radians)
 Mixed Optimization -- En-DIIS/RFO-DIIS
 Second derivative matrix not updated -- first step.
 ITU=  0
     Eigenvalues ---    0.00230   0.00230   0.00230   0.03240   0.03358
     Eigenvalues ---    0.03498   0.03580   0.03665   0.03665   0.03680
     Eigenvalues ---    0.03686   0.03693   0.03739   0.03789   0.03792
     Eigenvalues ---    0.03816   0.03834   0.03850   0.05521   0.09402
     Eigenvalues ---    0.09687   0.11077   0.11224   0.11833   0.11884
     Eigenvalues ---    0.11890   0.12177   0.12239   0.12299   0.12782
     Eigenvalues ---    0.12895   0.13099   0.13313   0.16000   0.16000
     Eigenvalues ---    0.16000   0.16000   0.16000   0.16000   0.16000
     Eigenvalues ---    0.16000   0.16000   0.16000   0.16000   0.16000
     Eigenvalues ---    0.19173   0.19314   0.19332   0.20013   0.20203
     Eigenvalues ---    0.20204   0.20208   0.20515   0.20653   0.20795
     Eigenvalues ---    0.20989   0.21175   0.21186   0.21227   0.25000
     Eigenvalues ---    0.25000   0.25000   0.38002   0.39187   0.40659
     Eigenvalues ---    0.41546   0.42502   0.42509   0.42670   0.42743
     Eigenvalues ---    0.42824   0.43363   0.43951   0.43980   0.44273
     Eigenvalues ---    0.44485   0.44689   0.44769   0.50655   0.51353
     Eigenvalues ---    0.52036   0.52548   0.54334   0.54624   0.54641
     Eigenvalues ---    0.54649   0.54689   0.54691   0.54712   0.54765
     Eigenvalues --- 1000.000001000.000001000.000001000.000001000.00000
     Eigenvalues --- 1000.000001000.000001000.000001000.000001000.00000
     Eigenvalues --- 1000.000001000.000001000.000001000.000001000.00000
     Eigenvalues --- 1000.000001000.000001000.000001000.000001000.00000
     Eigenvalues --- 1000.000001000.000001000.000001000.000001000.00000
     Eigenvalues --- 1000.000001000.000001000.000001000.000001000.00000
     Eigenvalues --- 1000.000001000.000001000.000001000.000001000.00000
     Eigenvalues --- 1000.000001000.000001000.000001000.000001000.00000
     Eigenvalues --- 1000.000001000.000001000.000001000.000001000.00000
     Eigenvalues --- 1000.000001000.000001000.00000
 RFO step:  Lambda=-2.85829959D-06 EMin= 2.30000000D-03
 Linear search not attempted -- first point.
 Iteration  1 RMS(Cart)=  0.00344249 RMS(Int)=  0.00000237
 Iteration  2 RMS(Cart)=  0.00000444 RMS(Int)=  0.00000033
 Iteration  3 RMS(Cart)=  0.00000000 RMS(Int)=  0.00000033
 Iteration  1 RMS(Cart)=  0.00000018 RMS(Int)=  0.00000003
 Variable       Old X    -DE/DX   Delta X   Delta X   Delta X     New X
                                 (Linear)    (Quad)   (Total)
    R1        3.67647  -0.00012   0.00000  -0.00058  -0.00058   3.67589
    R2        3.69189   0.00007   0.00000   0.00033   0.00033   3.69222
    R3        3.73835   0.00010   0.00000   0.00053   0.00053   3.73888
    R4        3.70232  -0.00004   0.00000  -0.00019  -0.00019   3.70212
    R5        3.11688   0.00002   0.00000   0.00005   0.00005   3.11693
    R6        3.09579   0.00000   0.00000   0.00001   0.00001   3.09580
    R7        3.10213   0.00002   0.00000   0.00005   0.00005   3.10218
    R8        3.09245  -0.00001   0.00000  -0.00002  -0.00002   3.09243
    R9        3.11587   0.00002   0.00000   0.00005   0.00005   3.11592
   R10        3.11989  -0.00003   0.00000  -0.00007  -0.00007   3.11983
   R11        3.14367   0.00000   0.00000   0.00001   0.00001   3.14368
   R12        3.18062   0.00002   0.00000   0.00004   0.00004   3.18066
   R13        3.10924   0.00001   0.00000   0.00002   0.00002   3.10927
   R14        3.09339  -0.00003   0.00000  -0.00007  -0.00007   3.09331
   R15        3.10179   0.00004   0.00000   0.00010   0.00010   3.10189
   R16        3.16373   0.00001   0.00000   0.00002   0.00002   3.16376
   R17        3.09830  -0.00007   0.00000  -0.00015  -0.00015   3.09815
   R18        3.11981  -0.00001   0.00000  -0.00003  -0.00003   3.11977
   R19        3.13205   0.00006   0.00000   0.00015   0.00015   3.13220
   R20        3.11779  -0.00005   0.00000  -0.00011  -0.00011   3.11768
   R21        1.82152  -0.00000   0.00000  -0.00001  -0.00001   1.82152
   R22        1.82108  -0.00003   0.00000  -0.00005  -0.00005   1.82103
   R23        1.82089   0.00000   0.00000   0.00000   0.00000   1.82089
   R24        1.84078  -0.00002   0.00000  -0.00003  -0.00003   1.84075
   R25        1.84565  -0.00001   0.00000  -0.00003  -0.00003   1.84562
   R26        1.82041  -0.00000   0.00000  -0.00000  -0.00000   1.82041
   R27        1.82109  -0.00002   0.00000  -0.00004  -0.00004   1.82105
   R28        1.85910  -0.00000   0.00000  -0.00000  -0.00000   1.85910
   R29        1.82145   0.00000   0.00000   0.00001   0.00001   1.82146
   R30        1.82428  -0.00000   0.00000  -0.00000  -0.00000   1.82428
   R31        1.82168   0.00001   0.00000   0.00001   0.00001   1.82169
   R32        1.85224   0.00000   0.00000   0.00001   0.00001   1.85224
    A1        1.85172   0.00004   0.00000   0.00125   0.00125   1.85297
    A2        1.80155  -0.00010   0.00000  -0.00052  -0.00052   1.80103
    A3        1.96889   0.00022   0.00000   0.00190   0.00190   1.97079
    A4        1.83430   0.00008   0.00000  -0.00065  -0.00065   1.83365
    A5        2.01802  -0.00012   0.00000  -0.00059  -0.00060   2.01743
    A6        1.97057  -0.00012   0.00000  -0.00140  -0.00140   1.96917
    A7        2.46524   0.00007   0.00000   0.00029   0.00029   2.46553
    A8        2.58826  -0.00002   0.00000  -0.00009  -0.00009   2.58817
    A9        2.35483  -0.00003   0.00000  -0.00010  -0.00010   2.35473
   A10        2.86714  -0.00034   0.00000   0.00000   0.00000   2.86714
   A11        1.91978   0.00001   0.00000   0.00003   0.00003   1.91981
   A12        1.91546  -0.00001   0.00000  -0.00002  -0.00002   1.91544
   A13        1.95201   0.00000   0.00000   0.00001   0.00001   1.95202
   A14        2.00708   0.00000   0.00000   0.00001   0.00001   2.00709
   A15        1.88610  -0.00002   0.00000  -0.00011  -0.00011   1.88599
[...]
 Alpha virt. eigenvalues --    3.52810   3.53817   3.60296   3.61070   3.62070
 Alpha virt. eigenvalues --    3.66195   4.35821   4.60752   7.92662  31.29402
          Condensed to atoms (all electrons):
               1          2          3          4          5          6
     1  Zr  15.058974  -0.099061  -0.000642  -0.122810  -0.186406  -0.632958
     2  O   -0.099061   9.048455   0.019312  -0.042325  -0.057051   0.082074
     3  O   -0.000642   0.019312   8.826016   0.017438  -0.046247  -0.002222
     4  O   -0.122810  -0.042325   0.017438   8.809704  -0.061570  -0.680667
     5  O   -0.186406  -0.057051  -0.046247  -0.061570   9.405502  -0.009055
     6  Si  -0.632958   0.082074  -0.002222  -0.680667  -0.009055  14.032766
     7  Si  -0.605100  -0.029144  -0.871136  -0.009507  -0.034579   0.082904
     8  Si  -0.634049  -0.993503  -0.018876   0.068350  -0.015374  -0.000888
     9  Si  -0.305420  -0.038606  -0.026631  -0.031189  -1.177270   0.039203
    10  O   -0.021011   0.001033  -0.001693   0.000630   0.125883  -0.001998
    11  O   -0.069818   0.002897   0.003041   0.001405   0.305385  -0.000609
    12  O    0.048125   0.000142   0.004467   0.001922   0.135509  -0.003210
    13  O   -0.022236   0.182086   0.001558  -0.015247  -0.000679   0.031719
    14  O   -0.006970   0.259217  -0.018212  -0.008664   0.001697   0.026266
    15  O   -0.086845   0.292881  -0.000592   0.001208   0.000609   0.001038
    16  O   -0.121939   0.004736  -0.000556   0.346115   0.003296  -0.427727
    17  O   -0.080131  -0.039402   0.008954   0.214487   0.001419  -0.450084
    18  O   -0.025534  -0.014825   0.003753   0.197280  -0.000651  -0.451982
    19  O    0.005344   0.008631   0.267217   0.010674   0.002170  -0.008460
    20  O   -0.145992  -0.000584   0.163382  -0.000800   0.001557   0.009235
    21  O    0.037416   0.009671   0.144485   0.003558   0.000155  -0.012260
    22  H   -0.009047  -0.000014  -0.000004  -0.000007   0.006108   0.000089
    23  H   -0.007694  -0.000012  -0.000005  -0.000052  -0.025179   0.000105
    24  H   -0.005364  -0.000147  -0.000012   0.000008  -0.005521   0.000106
    25  H    0.015806  -0.019703  -0.000108  -0.000407   0.000017   0.003174
    26  H    0.007122   0.000788   0.000013  -0.000011  -0.000003  -0.000168
    27  H    0.001363  -0.018787   0.000828  -0.001741   0.000013   0.009848
    28  H    0.004994  -0.000011  -0.018311  -0.000014  -0.000015  -0.000277
    29  H    0.003396  -0.006986  -0.020171  -0.000140  -0.000073   0.000207
    30  H    0.000632  -0.000011  -0.000021  -0.000463  -0.000009  -0.000615
    31  H   -0.000010   0.000180  -0.000020  -0.018477  -0.000011   0.063852
    32  H    0.002194  -0.000025   0.000042   0.010443   0.000002   0.022545
    33  H   -0.015389   0.001016  -0.010130  -0.009591  -0.000101   0.052799
               7          8          9         10         11         12
     1  Zr  -0.605100  -0.634049  -0.305420  -0.021011  -0.069818   0.048125
     2  O   -0.029144  -0.993503  -0.038606   0.001033   0.002897   0.000142
     3  O   -0.871136  -0.018876  -0.026631  -0.001693   0.003041   0.004467
     4  O   -0.009507   0.068350  -0.031189   0.000630   0.001405   0.001922
     5  O   -0.034579  -0.015374  -1.177270   0.125883   0.305385   0.135509
     6  Si   0.082904  -0.000888   0.039203  -0.001998  -0.000609  -0.003210
     7  Si  13.787310   0.182285   0.018307  -0.000032  -0.001021   0.003475
     8  Si   0.182285  13.828045   0.027788  -0.001137   0.001264  -0.001379
     9  Si   0.018307   0.027788  14.124683  -0.055018  -0.160247  -0.184166
    10  O   -0.000032  -0.001137  -0.055018   8.521450   0.014911   0.028893
    11  O   -0.001021   0.001264  -0.160247   0.014911   8.510233  -0.052941
    12  O    0.003475  -0.001379  -0.184166   0.028893  -0.052941   8.595174
    13  O    0.006864  -0.097187   0.000096   0.000000   0.000018   0.000004
    14  O    0.008570  -0.365167  -0.001569  -0.000002   0.000003   0.000014
    15  O   -0.002151  -0.304797  -0.000525  -0.000000  -0.000020  -0.000008
    16  O    0.003706  -0.010998  -0.001066   0.000005  -0.000005  -0.000001
    17  O   -0.001264   0.096491   0.002496   0.000001   0.000003  -0.000006
    18  O   -0.000917   0.076615   0.004002  -0.000000   0.000003  -0.000001
    19  O   -0.413828  -0.016335   0.001011   0.000006  -0.000001  -0.000032
    20  O   -0.109413   0.009643   0.003040   0.000008  -0.000003  -0.000037
    21  O    0.026410  -0.039737  -0.001601  -0.000000   0.000001   0.000016
    22  H   -0.000133   0.000098   0.046782  -0.006314  -0.005058   0.219591
    23  H    0.000054   0.000060   0.080813   0.228926  -0.005980   0.005776
    24  H    0.000043  -0.000026   0.036934   0.007470   0.243158  -0.007456
    25  H   -0.000431   0.057303  -0.000204   0.000000  -0.000000  -0.000000
    26  H   -0.000388   0.046294  -0.000045  -0.000000   0.000000  -0.000000
    27  H    0.001684   0.068780   0.000006   0.000000  -0.000000  -0.000000
    28  H    0.056598  -0.000040  -0.000142  -0.000000  -0.000000  -0.000003
    29  H    0.048221   0.022206  -0.000060   0.000000   0.000000  -0.000001
    30  H    0.040568   0.000116   0.000018  -0.000000   0.000000   0.000000
    31  H    0.000152  -0.002083  -0.000051   0.000000  -0.000000   0.000000
    32  H   -0.000667   0.000063   0.000020  -0.000000   0.000000  -0.000000
    33  H    0.020565  -0.000005   0.000076  -0.000000   0.000000   0.000000
              13         14         15         16         17         18
     1  Zr  -0.022236  -0.006970  -0.086845  -0.121939  -0.080131  -0.025534
     2  O    0.182086   0.259217   0.292881   0.004736  -0.039402  -0.014825
     3  O    0.001558  -0.018212  -0.000592  -0.000556   0.008954   0.003753
     4  O   -0.015247  -0.008664   0.001208   0.346115   0.214487   0.197280
     5  O   -0.000679   0.001697   0.000609   0.003296   0.001419  -0.000651
     6  Si   0.031719   0.026266   0.001038  -0.427727  -0.450084  -0.451982
     7  Si   0.006864   0.008570  -0.002151   0.003706  -0.001264  -0.000917
     8  Si  -0.097187  -0.365167  -0.304797  -0.010998   0.096491   0.076615
     9  Si   0.000096  -0.001569  -0.000525  -0.001066   0.002496   0.004002
    10  O    0.000000  -0.000002  -0.000000   0.000005   0.000001  -0.000000
    11  O    0.000018   0.000003  -0.000020  -0.000005   0.000003   0.000003
    12  O    0.000004   0.000014  -0.000008  -0.000001  -0.000006  -0.000001
    13  O    8.625753   0.086465  -0.090862   0.003758  -0.030897  -0.045834
    14  O    0.086465   8.670024   0.055940   0.003653  -0.035797  -0.026910
    15  O   -0.090862   0.055940   8.779666  -0.000175   0.003624   0.001691
    16  O    0.003758   0.003653  -0.000175   8.902127  -0.092136  -0.114083
    17  O   -0.030897  -0.035797   0.003624  -0.092136   8.934776   0.227382
    18  O   -0.045834  -0.026910   0.001691  -0.114083   0.227382   9.012058
    19  O    0.000158  -0.000714   0.000145  -0.001454  -0.029800   0.000139
    20  O    0.000008  -0.000270   0.000036   0.000067  -0.000957   0.000014
    21  O   -0.000253   0.015668  -0.000645  -0.000214  -0.005621   0.000485
    22  H   -0.000000  -0.000000   0.000000   0.000000   0.000000  -0.000000
    23  H    0.000000   0.000000   0.000000  -0.000000   0.000000   0.000000
    24  H   -0.000000   0.000000   0.000002   0.000000  -0.000000  -0.000000
    25  H    0.218780  -0.011880   0.008908  -0.000061   0.000627   0.015053
    26  H   -0.005048  -0.010132   0.216735   0.000000  -0.000003   0.000006
    27  H   -0.009579   0.219888   0.004641   0.000180   0.017976  -0.000231
    28  H    0.000000  -0.000006  -0.000001  -0.000000   0.000004  -0.000000
    29  H    0.000808   0.017588  -0.002585  -0.000004  -0.000399   0.000006
    30  H    0.000001   0.000005   0.000000   0.000112  -0.000417  -0.000007
    31  H    0.002364   0.000170  -0.000019   0.003697  -0.000742   0.218098
    32  H   -0.000008  -0.000006   0.000000   0.233594  -0.003651   0.003903
    33  H    0.000228   0.002114  -0.000035  -0.000061   0.231065   0.002099
              19         20         21         22         23         24
     1  Zr   0.005344  -0.145992   0.037416  -0.009047  -0.007694  -0.005364
     2  O    0.008631  -0.000584   0.009671  -0.000014  -0.000012  -0.000147
     3  O    0.267217   0.163382   0.144485  -0.000004  -0.000005  -0.000012
     4  O    0.010674  -0.000800   0.003558  -0.000007  -0.000052   0.000008
     5  O    0.002170   0.001557   0.000155   0.006108  -0.025179  -0.005521
     6  Si  -0.008460   0.009235  -0.012260   0.000089   0.000105   0.000106
     7  Si  -0.413828  -0.109413   0.026410  -0.000133   0.000054   0.000043
     8  Si  -0.016335   0.009643  -0.039737   0.000098   0.000060  -0.000026
     9  Si   0.001011   0.003040  -0.001601   0.046782   0.080813   0.036934
    10  O    0.000006   0.000008  -0.000000  -0.006314   0.228926   0.007470
    11  O   -0.000001  -0.000003   0.000001  -0.005058  -0.005980   0.243158
    12  O   -0.000032  -0.000037   0.000016   0.219591   0.005776  -0.007456
    13  O    0.000158   0.000008  -0.000253  -0.000000   0.000000  -0.000000
    14  O   -0.000714  -0.000270   0.015668  -0.000000   0.000000   0.000000
    15  O    0.000145   0.000036  -0.000645   0.000000   0.000000   0.000002
    16  O   -0.001454   0.000067  -0.000214   0.000000  -0.000000   0.000000
    17  O   -0.029800  -0.000957  -0.005621   0.000000   0.000000  -0.000000
    18  O    0.000139   0.000014   0.000485  -0.000000   0.000000  -0.000000
    19  O    8.874242   0.031670   0.022796  -0.000000   0.000000  -0.000000
    20  O    0.031670   8.658622  -0.050074   0.000000   0.000000  -0.000000
    21  O    0.022796  -0.050074   8.484831  -0.000000   0.000000   0.000000
    22  H   -0.000000   0.000000  -0.000000   0.361928   0.000059   0.000132
    23  H    0.000000   0.000000   0.000000   0.000059   0.350789   0.000012
    24  H   -0.000000  -0.000000   0.000000   0.000132   0.000012   0.365392
    25  H   -0.000023   0.000000  -0.000019   0.000000   0.000000   0.000000
    26  H    0.000001  -0.000000   0.000040  -0.000000  -0.000000  -0.000000
    27  H    0.000042   0.000192  -0.003987  -0.000000  -0.000000   0.000000
    28  H    0.004606   0.229487  -0.002005  -0.000000   0.000000   0.000000
    29  H   -0.008561   0.007671   0.206464   0.000000   0.000000  -0.000000
    30  H    0.224038  -0.001486  -0.007168   0.000000  -0.000000  -0.000000
    31  H    0.000004  -0.000000  -0.000000  -0.000000  -0.000000   0.000000
    32  H    0.000096  -0.000000   0.000001  -0.000000  -0.000000  -0.000000
    33  H    0.014763  -0.000079   0.001499  -0.000000  -0.000000  -0.000000
              25         26         27         28         29         30
     1  Zr   0.015806   0.007122   0.001363   0.004994   0.003396   0.000632
     2  O   -0.019703   0.000788  -0.018787  -0.000011  -0.006986  -0.000011
     3  O   -0.000108   0.000013   0.000828  -0.018311  -0.020171  -0.000021
     4  O   -0.000407  -0.000011  -0.001741  -0.000014  -0.000140  -0.000463
     5  O    0.000017  -0.000003   0.000013  -0.000015  -0.000073  -0.000009
     6  Si   0.003174  -0.000168   0.009848  -0.000277   0.000207  -0.000615
     7  Si  -0.000431  -0.000388   0.001684   0.056598   0.048221   0.040568
     8  Si   0.057303   0.046294   0.068780  -0.000040   0.022206   0.000116
     9  Si  -0.000204  -0.000045   0.000006  -0.000142  -0.000060   0.000018
    10  O    0.000000  -0.000000   0.000000  -0.000000   0.000000  -0.000000
    11  O   -0.000000   0.000000  -0.000000  -0.000000   0.000000   0.000000
    12  O   -0.000000  -0.000000  -0.000000  -0.000003  -0.000001   0.000000
    13  O    0.218780  -0.005048  -0.009579   0.000000   0.000808   0.000001
    14  O   -0.011880  -0.010132   0.219888  -0.000006   0.017588   0.000005
    15  O    0.008908   0.216735   0.004641  -0.000001  -0.002585   0.000000
    16  O   -0.000061   0.000000   0.000180  -0.000000  -0.000004   0.000112
    17  O    0.000627  -0.000003   0.017976   0.000004  -0.000399  -0.000417
    18  O    0.015053   0.000006  -0.000231  -0.000000   0.000006  -0.000007
    19  O   -0.000023   0.000001   0.000042   0.004606  -0.008561   0.224038
    20  O    0.000000  -0.000000   0.000192   0.229487   0.007671  -0.001486
    21  O   -0.000019   0.000040  -0.003987  -0.002005   0.206464  -0.007168
    22  H    0.000000  -0.000000  -0.000000  -0.000000   0.000000   0.000000
    23  H    0.000000  -0.000000  -0.000000   0.000000   0.000000  -0.000000
    24  H    0.000000  -0.000000   0.000000   0.000000  -0.000000  -0.000000
    25  H    0.298828  -0.000012   0.000107   0.000000   0.000001   0.000000
    26  H   -0.000012   0.366094   0.000035   0.000000   0.000021  -0.000000
    27  H    0.000107   0.000035   0.283278  -0.000000  -0.001503   0.000009
    28  H    0.000000   0.000000  -0.000000   0.349147  -0.000016  -0.000016
    29  H    0.000001   0.000021  -0.001503  -0.000016   0.285847   0.000157
    30  H    0.000000  -0.000000   0.000009  -0.000016   0.000157   0.334468
    31  H   -0.000496   0.000000   0.000012  -0.000000   0.000000  -0.000000
    32  H   -0.000001   0.000000  -0.000000   0.000000  -0.000000  -0.000000
    33  H    0.000005  -0.000000  -0.002407  -0.000002   0.000098  -0.001173
              31         32         33
     1  Zr  -0.000010   0.002194  -0.015389
     2  O    0.000180  -0.000025   0.001016
     3  O   -0.000020   0.000042  -0.010130
     4  O   -0.018477   0.010443  -0.009591
     5  O   -0.000011   0.000002  -0.000101
     6  Si   0.063852   0.022545   0.052799
     7  Si   0.000152  -0.000667   0.020565
     8  Si  -0.002083   0.000063  -0.000005
     9  Si  -0.000051   0.000020   0.000076
    10  O    0.000000  -0.000000  -0.000000
    11  O   -0.000000   0.000000   0.000000
    12  O    0.000000  -0.000000   0.000000
    13  O    0.002364  -0.000008   0.000228
    14  O    0.000170  -0.000006   0.002114
    15  O   -0.000019   0.000000  -0.000035
    16  O    0.003697   0.233594  -0.000061
    17  O   -0.000742  -0.003651   0.231065
    18  O    0.218098   0.003903   0.002099
    19  O    0.000004   0.000096   0.014763
    20  O   -0.000000  -0.000000  -0.000079
    21  O   -0.000000   0.000001   0.001499
    22  H   -0.000000  -0.000000  -0.000000
    23  H   -0.000000  -0.000000  -0.000000
    24  H    0.000000  -0.000000  -0.000000
    25  H   -0.000496  -0.000001   0.000005
    26  H    0.000000   0.000000  -0.000000
    27  H    0.000012  -0.000000  -0.002407
    28  H   -0.000000   0.000000  -0.000002
    29  H    0.000000  -0.000000   0.000098
    30  H   -0.000000  -0.000000  -0.001173
    31  H    0.331441   0.000002  -0.000038
    32  H    0.000002   0.350091   0.000157
    33  H   -0.000038   0.000157   0.269284
 Mulliken charges:
               1
     1  Zr   0.019057
     2  O   -0.552920
     3  O   -0.424916
     4  O   -0.679538
     5  O   -0.369528
     6  Si   2.225251
     7  Si   1.791996
     8  Si   2.016179
     9  Si   1.598532
    10  O   -0.842010
    11  O   -0.786617
    12  O   -0.793869
    13  O   -0.842838
    14  O   -0.880983
    15  O   -0.877862
    16  O   -0.734567
    17  O   -0.968002
    18  O   -1.081612
    19  O   -0.988546
    20  O   -0.804938
    21  O   -0.829913
    22  H    0.385790
    23  H    0.372327
    24  H    0.365270
    25  H    0.414733
    26  H    0.378660
    27  H    0.429351
    28  H    0.376023
    29  H    0.447807
    30  H    0.411261
    31  H    0.401974
    32  H    0.381205
    33  H    0.443243
 Sum of Mulliken charges =  -0.00000
 Mulliken charges with hydrogens summed into heavy atoms:
               1
     1  Zr   0.019057
     2  O   -0.552920
     3  O   -0.424916
     4  O   -0.679538
     5  O   -0.369528
     6  Si   2.225251
     7  Si   1.791996
     8  Si   2.016179
     9  Si   1.598532
    10  O   -0.469683
    11  O   -0.421348
    12  O   -0.408078
    13  O   -0.428105
    14  O   -0.451632
    15  O   -0.499202
    16  O   -0.353362
    17  O   -0.524759
    18  O   -0.679638
    19  O   -0.577285
    20  O   -0.428915
    21  O   -0.382105
 Electronic spatial extent (au):  <R**2>=           9867.7319
 Charge=              0.0000 electrons
 Dipole moment (field-independent basis, Debye):
    X=              1.0707    Y=             -0.8237    Z=             -2.5281  Tot=              2.8663
 Quadrupole moment (field-independent basis, Debye-Ang):
   XX=           -159.9245   YY=           -154.8521   ZZ=           -157.5729
   XY=             -5.2070   XZ=              2.0975   YZ=              5.6511
 Traceless Quadrupole moment (field-independent basis, Debye-Ang):
   XX=             -2.4747   YY=              2.5978   ZZ=             -0.1231
   XY=             -5.2070   XZ=              2.0975   YZ=              5.6511
 Octapole moment (field-independent basis, Debye-Ang**2):
  XXX=             75.9487  YYY=              5.1396  ZZZ=            -23.8333  XYY=             -4.9672
  XXY=             19.5804  XXZ=             20.2563  XZZ=              7.8026  YZZ=            -16.2420
  YYZ=            -11.7320  XYZ=             27.2118
 Hexadecapole moment (field-independent basis, Debye-Ang**3):
 XXXX=          -6022.1695 YYYY=          -2831.7971 ZZZZ=          -2252.6127 XXXY=             46.5835
 XXXZ=             -0.4445 YYYX=             -2.9687 YYYZ=            213.7808 ZZZX=           -206.1476
 ZZZY=            -51.5671 XXYY=          -1501.7116 XXZZ=          -1340.7709 YYZZ=           -929.8511
 XXYZ=            -12.0098 YYXZ=            147.3679 ZZXY=            -50.7272
 N-N= 2.832844902232D+03 E-N=-1.137829803526D+04  KE= 2.373155069923D+03
 1\1\GINC-GRA1222\FOpt\RB3LYP\Gen\H12O16Si4Zr1\SARASHS\14-Aug-2020\0\\#
 n B3LYP/Gen Pseudo=cards EmpiricalDispersion=GD3 Opt=modredundant\\Tit
 le\\0,1\Zr,0.6571728141,-0.127743502,-0.0656763812\O,-0.2280058945,-0.
 9097681945,1.4801905848\O,0.1053824909,1.745745483,-0.1213221078\O,-0.
 2665431913,-0.9811044864,-1.5929191216\O,2.5914006095,-0.4377336509,-0
 .0822584426\Si,-1.8291962301,-1.3322485454,-1.9528362257\Si,-1.1126216
 88,2.8406044662,-0.0807273701\Si,-1.7300515543,-1.1546465629,2.1159463
 704\Si,4.2131013298,-0.2810734134,0.0702528588\O,4.981345748,0.0860169
 883,-1.3439826432\O,4.8845208599,-1.7117189,0.5701260696\O,4.424045767
 7,0.9714534522,1.1233008735\O,-2.3267479927,-2.6249026356,1.6955632845
 \O,-2.7281581006,0.0646653676,1.550155253\O,-1.6064256952,-1.021600456
 9,3.7452947914\O,-1.9964886088,-1.5590142097,-3.577466337\O,-2.8228591
 385,-0.1853499701,-1.3024770606\O,-2.3460198592,-2.7138340948,-1.18369
 03781\O,-2.0360326436,2.4406019754,-1.4299056794\O,-0.6310437207,4.399
 313874,-0.2946761499\O,-1.9647495294,2.7587714515,1.3144650981\H,5.310
 7437213,1.3434212559,1.1856649079\H,5.3409616027,-0.6620934199,-1.8339
 820793\H,4.4483107998,-2.1770716168,1.2924938916\H,-2.4109871684,-2.81
 00067382,0.7429304615\H,-2.3918133762,-1.2242003091,4.264993982\H,-3.0
 626578199,-0.0826434692,0.6444646638\H,-0.5261770293,4.9253036457,0.50
 63412686\H,-2.2697170289,1.867379935,1.5850337948\H,-2.644032895,3.128
 124313,-1.7292149632\H,-2.3067889688,-3.5285812927,-1.6972210432\H,-1.
 2655019351,-1.2616132042,-4.1305143096\H,-2.6068656752,0.755846465,-1.
 4904478616\\Version=ES64L-G16RevB.01\State=1-A\HF=-2416.9468373\RMSD=4
 .080e-09\RMSF=2.664e-05\Dipole=0.4323815,-0.3275252,-0.9886814\Quadrup
 ole=-1.9143246,1.9791408,-0.0648162,-3.9047619,1.5612371,4.1418267\PG=
 C01 [X(H12O16Si4Zr1)]\\@


 IF YOU PERCEIVE THAT THERE ARE FOUR POSSIBLE WAYS IN
 WHICH A PROCEDURE CAN GO WRONG AND CIRCUMVENT THESE, 
 THEN A FIFTH WAY WILL DEVELOP.

                              -- MURPHY'S TWELFTH LAW
 Job cpu time:       0 days  9 hours 43 minutes 26.1 seconds.
 Elapsed time:       0 days  0 hours 43 minutes 39.3 seconds.
 File lengths (MBytes):  RWF=    167 Int=      0 D2E=      0 Chk=     21 Scr=      1
 Normal termination of Gaussian 16 at Fri Aug 14 03:37:28 2020.
