 Entering Gaussian System, Link 0=g16
 Initial command:
 /opt/software/gaussian/g16.b01/l1.exe "/localscratch/sarashs.37242618.0/Gau-1762.inp" -scrdir="/localscratch/sarashs.37242618.0/"
 Entering Link 1 = /opt/software/gaussian/g16.b01/l1.exe PID=      1764.
  
 Copyright (c) 1988-2017, Gaussian, Inc.  All Rights Reserved.
  
 This is part of the Gaussian(R) 16 program.  It is based on
 the Gaussian(R) 09 system (copyright 2009, Gaussian, Inc.),
 the Gaussian(R) 03 system (copyright 2003, Gaussian, Inc.),
 the Gaussian(R) 98 system (copyright 1998, Gaussian, Inc.),
 the Gaussian(R) 94 system (copyright 1995, Gaussian, Inc.),
 the Gaussian 92(TM) system (copyright 1992, Gaussian, Inc.),
 the Gaussian 90(TM) system (copyright 1990, Gaussian, Inc.),
 the Gaussian 88(TM) system (copyright 1988, Gaussian, Inc.),
 the Gaussian 86(TM) system (copyright 1986, Carnegie Mellon
 University), and the Gaussian 82(TM) system (copyright 1983,
 Carnegie Mellon University). Gaussian is a federally registered
 trademark of Gaussian, Inc.
  
 This software contains proprietary and confidential information,
 including trade secrets, belonging to Gaussian, Inc.
  
 This software is provided under written license and may be
 used, copied, transmitted, or stored only in accord with that
 written license.
  
 The following legend is applicable only to US Government
 contracts under FAR:
  
                    RESTRICTED RIGHTS LEGEND
  
 Use, reproduction and disclosure by the US Government is
 subject to restrictions as set forth in subparagraphs (a)
 and (c) of the Commercial Computer Software - Restricted
 Rights clause in FAR 52.227-19.
  
 Gaussian, Inc.
 340 Quinnipiac St., Bldg. 40, Wallingford CT 06492
  
  
 ---------------------------------------------------------------
 Warning -- This program may not be used in any manner that
 competes with the business of Gaussian, Inc. or will provide
 assistance to any competitor of Gaussian, Inc.  The licensee
 of this program is prohibited from giving any competitor of
 Gaussian, Inc. access to this program.  By using this program,
 the user acknowledges that Gaussian, Inc. is engaged in the
 business of creating and licensing software in the field of
 computational chemistry and represents and warrants to the
 licensee that it is not a competitor of Gaussian, Inc. and that
 it will not use this program in any manner prohibited above.
 ---------------------------------------------------------------
  

 Cite this work as:
 Gaussian 16, Revision B.01,
 M. J. Frisch, G. W. Trucks, H. B. Schlegel, G. E. Scuseria, 
 M. A. Robb, J. R. Cheeseman, G. Scalmani, V. Barone, 
 G. A. Petersson, H. Nakatsuji, X. Li, M. Caricato, A. V. Marenich, 
 J. Bloino, B. G. Janesko, R. Gomperts, B. Mennucci, H. P. Hratchian, 
 J. V. Ortiz, A. F. Izmaylov, J. L. Sonnenberg, D. Williams-Young, 
 F. Ding, F. Lipparini, F. Egidi, J. Goings, B. Peng, A. Petrone, 
 T. Henderson, D. Ranasinghe, V. G. Zakrzewski, J. Gao, N. Rega, 
 G. Zheng, W. Liang, M. Hada, M. Ehara, K. Toyota, R. Fukuda, 
 J. Hasegawa, M. Ishida, T. Nakajima, Y. Honda, O. Kitao, H. Nakai, 
 T. Vreven, K. Throssell, J. A. Montgomery, Jr., J. E. Peralta, 
 F. Ogliaro, M. J. Bearpark, J. J. Heyd, E. N. Brothers, K. N. Kudin, 
 V. N. Staroverov, T. A. Keith, R. Kobayashi, J. Normand, 
 K. Raghavachari, A. P. Rendell, J. C. Burant, S. S. Iyengar, 
 J. Tomasi, M. Cossi, J. M. Millam, M. Klene, C. Adamo, R. Cammi, 
 J. W. Ochterski, R. L. Martin, K. Morokuma, O. Farkas, 
 J. B. Foresman, and D. J. Fox, Gaussian, Inc., Wallingford CT, 2016.
 
 ******************************************
 Gaussian 16:  ES64L-G16RevB.01 20-Dec-2017
                14-Aug-2020 
 ******************************************
 %NProcShared=16
 Will use up to   16 processors via shared memory.
 ------------------------------------------------------------------
 #n B3LYP/Gen Pseudo=cards EmpiricalDispersion=GD3 Opt=modredundant
 ------------------------------------------------------------------
 1/18=120,19=15,26=3,38=1/1,3;
 2/9=110,12=2,17=6,18=5,40=1/2;
 3/5=7,11=2,16=1,17=8,25=1,30=1,71=1,74=-5,124=31/1,2,3;
 4//1;
 5/5=2,38=5/2;
 6/7=2,8=2,9=2,10=2,28=1/1;
 7//1,2,3,16;
 1/18=20,19=15,26=3/3(2);
 2/9=110/2;
 99//99;
 2/9=110/2;
 3/5=7,6=1,11=2,16=1,17=8,25=1,30=1,71=1,74=-5,82=7,124=31/1,2,3;
 4/5=5,16=3,69=1/1;
 5/5=2,38=5/2;
 7//1,2,3,16;
 1/18=20,19=15,26=3/3(-5);
 2/9=110/2;
 6/7=2,8=2,9=2,10=2,19=2,28=1/1;
 99/9=1/99;
 -----
 Title
 -----
 Symbolic Z-matrix:
 Charge =  0 Multiplicity = 1
 Zr                    0.65779  -0.12506  -0.07164 
 O                    -0.22285  -0.90624   1.4773 
 O                     0.10302   1.74748  -0.12299 
 O                    -0.2683   -0.97885  -1.59705 
 O                     2.59206  -0.4363   -0.08284 
 Si                   -1.83119  -1.33244  -1.9536 
 Si                   -1.1155    2.84172  -0.08279 
 Si                   -1.72376  -1.15291   2.11517 
 Si                    4.21461  -0.27308   0.05381 
 O                     4.97648   0.02694  -1.37976 
 O                     4.88668  -1.67933   0.61751 
 O                     4.43258   1.02871   1.0437 
 O                    -2.31924  -2.624     1.69627 
 O                    -2.72422   0.06508   1.55086 
 O                    -1.59734  -1.01957   3.74439 
 O                    -2.00144  -1.55965  -3.57782 
 O                    -2.82509  -0.18676  -1.30145 
 O                    -2.34448  -2.71439  -1.18277 
 O                    -2.04046   2.43957  -1.43023 
 O                    -0.63565   4.40049  -0.29987 
 O                    -1.96551   2.76086   1.31383 
 H                     5.31981   1.40263   1.08214 
 H                     5.33109  -0.74421  -1.83659 
 H                     4.43979  -2.1222    1.34746 
 H                    -2.40577  -2.80951   0.74392 
 H                    -2.38137  -1.22423   4.26535 
 H                    -3.06034  -0.08306   0.64589 
 H                    -0.52731   4.92728   0.50015 
 H                    -2.26909   1.86932   1.58533 
 H                    -2.64854   3.12676  -1.73014 
 H                    -2.30452  -3.52952  -1.69562 
 H                    -1.27114  -1.26305  -4.13223 
 H                    -2.61026   0.75461  -1.48993 
 
 The following ModRedundant input section has been read:
 A       1       5       9 F                                                   
 D       1       5       9      12 F                                           
 D       3       1       5       9 F                                           
 

 GradGradGradGradGradGradGradGradGradGradGradGradGradGradGradGradGradGrad
 Berny optimization.
 Initialization pass.
                           ----------------------------
                           !    Initial Parameters    !
                           ! (Angstroms and Degrees)  !
 --------------------------                            --------------------------
 ! Name  Definition              Value          Derivative Info.                !
 --------------------------------------------------------------------------------
 ! R1    R(1,2)                  1.9455         estimate D2E/DX2                !
 ! R2    R(1,3)                  1.9537         estimate D2E/DX2                !
 ! R3    R(1,4)                  1.9783         estimate D2E/DX2                !
 ! R4    R(1,5)                  1.9592         estimate D2E/DX2                !
 ! R5    R(2,8)                  1.6494         estimate D2E/DX2                !
 ! R6    R(3,7)                  1.6382         estimate D2E/DX2                !
 ! R7    R(4,6)                  1.6416         estimate D2E/DX2                !
 ! R8    R(5,9)                  1.6365         estimate D2E/DX2                !
 ! R9    R(6,16)                 1.6488         estimate D2E/DX2                !
 ! R10   R(6,17)                 1.651          estimate D2E/DX2                !
 ! R11   R(6,18)                 1.6636         estimate D2E/DX2                !
 ! R12   R(7,19)                 1.6831         estimate D2E/DX2                !
 ! R13   R(7,20)                 1.6453         estimate D2E/DX2                !
 ! R14   R(7,21)                 1.6369         estimate D2E/DX2                !
 ! R15   R(8,13)                 1.6414         estimate D2E/DX2                !
 ! R16   R(8,14)                 1.6742         estimate D2E/DX2                !
 ! R17   R(8,15)                 1.6395         estimate D2E/DX2                !
 ! R18   R(9,10)                 1.6509         estimate D2E/DX2                !
 ! R19   R(9,11)                 1.6574         estimate D2E/DX2                !
 ! R20   R(9,12)                 1.6499         estimate D2E/DX2                !
 ! R21   R(10,23)                0.9639         estimate D2E/DX2                !
 ! R22   R(11,24)                0.9637         estimate D2E/DX2                !
 ! R23   R(12,22)                0.9636         estimate D2E/DX2                !
 ! R24   R(13,25)                0.9741         estimate D2E/DX2                !
 ! R25   R(14,27)                0.9767         estimate D2E/DX2                !
 ! R26   R(15,26)                0.9633         estimate D2E/DX2                !
 ! R27   R(16,32)                0.9637         estimate D2E/DX2                !
 ! R28   R(17,33)                0.9838         estimate D2E/DX2                !
 ! R29   R(18,31)                0.9639         estimate D2E/DX2                !
 ! R30   R(19,30)                0.9654         estimate D2E/DX2                !
 ! R31   R(20,28)                0.964          estimate D2E/DX2                !
 ! R32   R(21,29)                0.9802         estimate D2E/DX2                !
 ! A1    A(2,1,3)              106.0959         estimate D2E/DX2                !
 ! A2    A(2,1,4)              103.2214         estimate D2E/DX2                !
 ! A3    A(2,1,5)              112.8091         estimate D2E/DX2                !
 ! A4    A(3,1,4)              105.0977         estimate D2E/DX2                !
 ! A5    A(3,1,5)              115.6243         estimate D2E/DX2                !
 ! A6    A(4,1,5)              112.9055         estimate D2E/DX2                !
 ! A7    A(1,2,8)              141.2479         estimate D2E/DX2                !
 ! A8    A(1,3,7)              148.2962         estimate D2E/DX2                !
 ! A9    A(1,4,6)              134.9216         estimate D2E/DX2                !
 ! A10   A(1,5,9)              164.275          Frozen                          !
 ! A11   A(4,6,16)             109.9952         estimate D2E/DX2                !
 ! A12   A(4,6,17)             109.7479         estimate D2E/DX2                !
 ! A13   A(4,6,18)             111.8422         estimate D2E/DX2                !
 ! A14   A(16,6,17)            114.9972         estimate D2E/DX2                !
 ! A15   A(16,6,18)            108.0658         estimate D2E/DX2                !
 ! A16   A(17,6,18)            101.9869         estimate D2E/DX2                !
 ! A17   A(3,7,19)             103.269          estimate D2E/DX2                !
 ! A18   A(3,7,20)             114.3706         estimate D2E/DX2                !
 ! A19   A(3,7,21)             111.9733         estimate D2E/DX2                !
 ! A20   A(19,7,20)            106.3205         estimate D2E/DX2                !
 ! A21   A(19,7,21)            112.6973         estimate D2E/DX2                !
 ! A22   A(20,7,21)            108.1076         estimate D2E/DX2                !
 ! A23   A(2,8,13)             111.4365         estimate D2E/DX2                !
 ! A24   A(2,8,14)             107.7362         estimate D2E/DX2                !
 ! A25   A(2,8,15)             107.5759         estimate D2E/DX2                !
 ! A26   A(13,8,14)            110.4391         estimate D2E/DX2                !
 ! A27   A(13,8,15)            110.7606         estimate D2E/DX2                !
 ! A28   A(14,8,15)            108.7751         estimate D2E/DX2                !
 ! A29   A(5,9,10)             113.7767         estimate D2E/DX2                !
 ! A30   A(5,9,11)             110.2322         estimate D2E/DX2                !
 ! A31   A(5,9,12)             105.0576         estimate D2E/DX2                !
 ! A32   A(10,9,11)            105.2121         estimate D2E/DX2                !
 ! A33   A(10,9,12)            108.4594         estimate D2E/DX2                !
 ! A34   A(11,9,12)            114.32           estimate D2E/DX2                !
 ! A35   A(9,10,23)            115.8441         estimate D2E/DX2                !
 ! A36   A(9,11,24)            117.3551         estimate D2E/DX2                !
 ! A37   A(9,12,22)            116.8573         estimate D2E/DX2                !
 ! A38   A(8,13,25)            116.8991         estimate D2E/DX2                !
 ! A39   A(8,14,27)            114.056          estimate D2E/DX2                !
 ! A40   A(8,15,26)            117.2166         estimate D2E/DX2                !
 ! A41   A(6,16,32)            116.4907         estimate D2E/DX2                !
 ! A42   A(6,17,33)            117.1859         estimate D2E/DX2                !
 ! A43   A(6,18,31)            116.3076         estimate D2E/DX2                !
 ! A44   A(7,19,30)            115.1373         estimate D2E/DX2                !
 ! A45   A(7,20,28)            116.1676         estimate D2E/DX2                !
 ! A46   A(7,21,29)            116.2372         estimate D2E/DX2                !
 ! D1    D(3,1,2,8)             57.7292         estimate D2E/DX2                !
 ! D2    D(4,1,2,8)            -52.5301         estimate D2E/DX2                !
 ! D3    D(5,1,2,8)           -174.7067         estimate D2E/DX2                !
 ! D4    D(2,1,3,7)            -50.098          estimate D2E/DX2                !
 ! D5    D(4,1,3,7)             58.8315         estimate D2E/DX2                !
 ! D6    D(5,1,3,7)           -175.9641         estimate D2E/DX2                !
 ! D7    D(2,1,4,6)             42.7683         estimate D2E/DX2                !
 ! D8    D(3,1,4,6)            -68.2312         estimate D2E/DX2                !
 ! D9    D(5,1,4,6)            164.8802         estimate D2E/DX2                !
 ! D10   D(2,1,5,9)           -101.3628         estimate D2E/DX2                !
 ! D11   D(3,1,5,9)             21.0004         Frozen                          !
 ! D12   D(4,1,5,9)            142.0826         estimate D2E/DX2                !
 ! D13   D(1,2,8,13)            93.5308         estimate D2E/DX2                !
 ! D14   D(1,2,8,14)           -27.7655         estimate D2E/DX2                !
 ! D15   D(1,2,8,15)          -144.8802         estimate D2E/DX2                !
 ! D16   D(1,3,7,19)           -61.1012         estimate D2E/DX2                !
 ! D17   D(1,3,7,20)          -176.1751         estimate D2E/DX2                !
 ! D18   D(1,3,7,21)            60.409          estimate D2E/DX2                !
 ! D19   D(1,4,6,16)           160.167          estimate D2E/DX2                !
 ! D20   D(1,4,6,17)            32.6925         estimate D2E/DX2                !
 ! D21   D(1,4,6,18)           -79.742          estimate D2E/DX2                !
 ! D22   D(1,5,9,10)          -100.1297         estimate D2E/DX2                !
 ! D23   D(1,5,9,11)           141.9681         estimate D2E/DX2                !
 ! D24   D(1,5,9,12)            18.3486         Frozen                          !
 ! D25   D(4,6,16,32)          -14.1998         estimate D2E/DX2                !
 ! D26   D(17,6,16,32)         110.2979         estimate D2E/DX2                !
 ! D27   D(18,6,16,32)        -136.5531         estimate D2E/DX2                !
 ! D28   D(4,6,17,33)           51.0095         estimate D2E/DX2                !
 ! D29   D(16,6,17,33)         -73.6179         estimate D2E/DX2                !
 ! D30   D(18,6,17,33)         169.7166         estimate D2E/DX2                !
 ! D31   D(4,6,18,31)          -96.4424         estimate D2E/DX2                !
 ! D32   D(16,6,18,31)          24.7715         estimate D2E/DX2                !
 ! D33   D(17,6,18,31)         146.349          estimate D2E/DX2                !
 ! D34   D(3,7,19,30)         -162.1837         estimate D2E/DX2                !
 ! D35   D(20,7,19,30)         -41.4662         estimate D2E/DX2                !
 ! D36   D(21,7,19,30)          76.796          estimate D2E/DX2                !
 ! D37   D(3,7,20,28)          -98.427          estimate D2E/DX2                !
 ! D38   D(19,7,20,28)         148.2947         estimate D2E/DX2                !
 ! D39   D(21,7,20,28)          27.0455         estimate D2E/DX2                !
 ! D40   D(3,7,21,29)          -49.8995         estimate D2E/DX2                !
 ! D41   D(19,7,21,29)          66.0156         estimate D2E/DX2                !
 ! D42   D(20,7,21,29)        -176.7753         estimate D2E/DX2                !
 ! D43   D(2,8,13,25)          -58.468          estimate D2E/DX2                !
 ! D44   D(14,8,13,25)          61.2404         estimate D2E/DX2                !
 ! D45   D(15,8,13,25)        -178.1888         estimate D2E/DX2                !
 ! D46   D(2,8,14,27)           80.2918         estimate D2E/DX2                !
 ! D47   D(13,8,14,27)         -41.6247         estimate D2E/DX2                !
 ! D48   D(15,8,14,27)        -163.3756         estimate D2E/DX2                !
 ! D49   D(2,8,15,26)         -174.1994         estimate D2E/DX2                !
 ! D50   D(13,8,15,26)         -52.1897         estimate D2E/DX2                !
 ! D51   D(14,8,15,26)          69.3652         estimate D2E/DX2                !
 ! D52   D(5,9,10,23)          -94.8505         estimate D2E/DX2                !
 ! D53   D(11,9,10,23)          25.9081         estimate D2E/DX2                !
 ! D54   D(12,9,10,23)         148.6399         estimate D2E/DX2                !
 ! D55   D(5,9,11,24)          -43.8207         estimate D2E/DX2                !
 ! D56   D(10,9,11,24)        -166.8801         estimate D2E/DX2                !
 ! D57   D(12,9,11,24)          74.2399         estimate D2E/DX2                !
 ! D58   D(5,9,12,22)         -166.477          estimate D2E/DX2                !
 ! D59   D(10,9,12,22)         -44.4744         estimate D2E/DX2                !
 ! D60   D(11,9,12,22)          72.5536         estimate D2E/DX2                !
 --------------------------------------------------------------------------------
 Trust Radius=3.00D-01 FncErr=1.00D-07 GrdErr=1.00D-06 EigMax=2.50D+02 EigMin=1.00D-04
 Number of steps in this run=    148 maximum allowed number of steps=    198.
 GradGradGradGradGradGradGradGradGradGradGradGradGradGradGradGradGradGrad

                          Input orientation:                          
 ---------------------------------------------------------------------
 Center     Atomic      Atomic             Coordinates (Angstroms)
 Number     Number       Type             X           Y           Z
 ---------------------------------------------------------------------
      1         40           0        0.657790   -0.125060   -0.071640
      2          8           0       -0.222850   -0.906240    1.477300
      3          8           0        0.103020    1.747480   -0.122990
      4          8           0       -0.268300   -0.978850   -1.597050
      5          8           0        2.592060   -0.436300   -0.082840
      6         14           0       -1.831190   -1.332440   -1.953600
      7         14           0       -1.115500    2.841720   -0.082790
      8         14           0       -1.723760   -1.152910    2.115170
      9         14           0        4.214610   -0.273080    0.053810
     10          8           0        4.976480    0.026940   -1.379760
     11          8           0        4.886680   -1.679330    0.617510
     12          8           0        4.432580    1.028710    1.043700
     13          8           0       -2.319240   -2.624000    1.696270
     14          8           0       -2.724220    0.065080    1.550860
     15          8           0       -1.597340   -1.019570    3.744390
     16          8           0       -2.001440   -1.559650   -3.577820
     17          8           0       -2.825090   -0.186760   -1.301450
     18          8           0       -2.344480   -2.714390   -1.182770
     19          8           0       -2.040460    2.439570   -1.430230
     20          8           0       -0.635650    4.400490   -0.299870
     21          8           0       -1.965510    2.760860    1.313830
     22          1           0        5.319810    1.402630    1.082140
     23          1           0        5.331090   -0.744210   -1.836590
     24          1           0        4.439790   -2.122200    1.347460
     25          1           0       -2.405770   -2.809510    0.743920
     26          1           0       -2.381370   -1.224230    4.265350
     27          1           0       -3.060340   -0.083060    0.645890
     28          1           0       -0.527310    4.927280    0.500150
     29          1           0       -2.269090    1.869320    1.585330
     30          1           0       -2.648540    3.126760   -1.730140
     31          1           0       -2.304520   -3.529520   -1.695620
     32          1           0       -1.271140   -1.263050   -4.132230
     33          1           0       -2.610260    0.754610   -1.489930
 ---------------------------------------------------------------------
                    Distance matrix (angstroms):
                    1          2          3          4          5
     1  Zr   0.000000
     2  O    1.945504   0.000000
     3  O    1.953666   3.115983   0.000000
     4  O    1.978251   3.075543   3.121475   0.000000
     5  O    1.959183   3.252476   3.311469   3.281593   0.000000
     6  Si   3.345827   3.813067   4.071635   1.641578   4.885484
     7  Si   3.456366   4.156670   1.638221   4.196128   4.948880
     8  Si   3.392697   1.649380   4.093745   3.991145   4.896027
     9  Si   3.562108   4.703006   4.584658   4.829072   1.636454
    10  O    4.515016   6.005552   5.318867   5.344768   2.753553
    11  O    4.557872   5.238722   5.930832   5.654093   2.702017
    12  O    4.101732   5.060145   4.541243   5.753445   2.608229
    13  O    4.270002   2.719099   5.318542   4.214123   5.663226
    14  O    3.755882   2.684348   3.691278   4.126823   5.584191
    15  O    4.521929   2.653632   5.050190   5.504452   5.704294
    16  O    4.628483   5.398571   5.225104   2.695283   5.880225
    17  O    3.694143   3.874372   3.701875   2.692947   5.558129
    18  O    4.117386   3.853141   5.198238   2.737563   5.546978
    19  O    3.962783   4.790812   2.604299   3.854086   5.616612
    20  O    4.712290   5.611606   2.759598   5.545712   5.818913
    21  O    4.138812   4.063399   2.714813   5.033803   5.739683
    22  H    5.039789   6.017318   5.365273   6.639012   3.489909
    23  H    5.033699   6.469495   6.039674   5.609421   3.266915
    24  H    4.506211   4.820335   5.995350   5.669524   2.881340
    25  H    4.154132   2.987545   5.273682   3.660633   5.594101
    26  H    5.408711   3.540275   5.853271   6.236426   6.653014
    27  H    3.786965   3.069237   3.734823   3.691708   5.710118
    28  H    5.220876   5.922624   3.301022   6.272775   6.232041
    29  H    3.910208   3.450000   2.925766   4.716225   5.632890
    30  H    4.925117   5.695325   3.472237   4.747556   6.547739
    31  H    4.796138   4.613282   6.009671   3.265245   6.012118
    32  H    4.637260   5.717784   5.198616   2.741094   5.657331
    33  H    3.669539   4.154829   3.196280   2.915671   5.519266
                    6          7          8          9         10
     6  Si   0.000000
     7  Si   4.629876   0.000000
     8  Si   4.074145   4.599791   0.000000
     9  Si   6.457835   6.175007   6.347247   0.000000
    10  O    6.965743   6.835008   7.648516   1.650933   0.000000
    11  O    7.201439   7.546952   6.798384   1.657400   2.628404
    12  O    7.334416   5.944508   6.618764   1.649864   2.678158
    13  O    3.902290   5.872660   1.641396   7.135523   8.349669
    14  O    3.877087   3.600906   1.674176   7.106537   8.239585
    15  O    5.711363   5.457933   1.639549   6.925055   8.400429
    16  O    1.648848   5.689656   5.714252   7.313226   7.485994
    17  O    1.650975   3.685040   3.717481   7.169488   7.804889
    18  O    1.663560   5.795749   3.701340   7.107094   7.819856
    19  O    3.813892   1.683113   5.057279   6.977589   7.420295
    20  O    6.085279   1.645340   6.152776   6.744803   7.196534
    21  O    5.239203   1.636949   4.002272   6.999023   7.932274
    22  H    8.236087   6.696361   7.563717   2.255423   2.841012
    23  H    7.187347   7.582429   8.096564   2.245463   0.963906
    24  H    7.130632   7.585998   6.286354   2.267924   3.513484
    25  H    3.128657   5.855309   2.256056   7.123143   8.188595
    26  H    6.244177   6.086107   2.249625   7.883445   9.357919
    27  H    3.135141   3.587160   2.256060   7.301477   8.288898
    28  H    6.848729   2.243958   6.403787   7.051863   7.605202
    29  H    4.792395   2.249212   3.116406   6.998128   8.042662
    30  H    4.538993   2.268308   5.827281   7.864109   8.238482
    31  H    2.262246   6.678899   4.528540   7.494262   8.109324
    32  H    2.250533   5.768130   6.264743   6.971114   6.947872
    33  H    2.275460   2.927521   4.173878   7.072350   7.622353
                   11         12         13         14         15
    11  O    0.000000
    12  O    2.778727   0.000000
    13  O    7.347204   7.704233   0.000000
    14  O    7.863835   7.239170   2.723289   0.000000
    15  O    7.228774   6.917305   2.700024   2.694049   0.000000
    16  O    8.066059   8.333947   5.389792   5.428215   7.353213
    17  O    8.085887   7.723398   3.896453   2.865182   5.259415
    18  O    7.523432   8.055837   2.880569   3.916936   5.263795
    19  O    8.315278   7.071853   5.957555   3.872032   6.240088
    20  O    8.264498   6.233862   7.494165   5.155881   6.830662
    21  O    8.194672   6.633918   5.410000   2.810526   4.509415
    22  H    3.146738   0.963572   8.657135   8.167935   7.797538
    23  H    2.663561   3.499519   8.633786   8.775978   8.900916
    24  H    0.963676   3.165526   6.786601   7.493237   6.588475
    25  H    7.380590   7.847600   0.974101   3.002637   3.586121
    26  H    8.144839   7.866682   2.926327   3.024619   0.963321
    27  H    8.105801   7.585390   2.847614   0.976674   3.552200
    28  H    8.542386   6.332046   7.852614   5.437959   6.858213
    29  H    8.045784   6.775867   4.494969   1.861079   3.668579
    30  H    9.240644   7.889123   6.702236   4.488271   6.947485
    31  H    7.777347   8.583114   3.510712   4.861783   6.032716
    32  H    7.787944   8.035847   6.076357   6.014390   7.887131
    33  H    8.159012   7.489727   4.653125   3.120071   5.618881
                   16         17         18         19         20
    16  O    0.000000
    17  O    2.783000   0.000000
    18  O    2.680926   2.575652   0.000000
    19  O    4.539540   2.744055   5.168846   0.000000
    20  O    6.937839   5.180702   7.370287   2.663909   0.000000
    21  O    6.526587   4.033241   6.029510   2.763822   2.657243
    22  H    9.170116   8.634064   8.990051   7.846070   6.809157
    23  H    7.580424   8.192704   7.951318   8.039983   8.026919
    24  H    8.127994   7.971269   7.264921   8.397556   8.427293
    25  H    4.516976   3.352340   1.930010   5.693261   7.497128
    26  H    7.859527   5.680008   5.648358   6.780802   7.451594
    27  H    4.597968   1.964238   3.283344   3.422586   5.184188
    28  H    7.802766   5.888884   8.033022   3.493521   0.963990
    29  H    6.203837   3.587492   5.355227   3.077509   3.553720
    30  H    5.078888   3.345797   5.874615   0.965369   2.778450
    31  H    2.741336   3.405937   0.963872   5.980819   8.223035
    32  H    0.963680   3.403891   3.458000   4.647801   6.867788
    33  H    3.175806   0.983796   3.492699   1.779698   4.313672
                   21         22         23         24         25
    21  O    0.000000
    22  H    7.414469   0.000000
    23  H    8.686255   3.623263   0.000000
    24  H    8.054395   3.642699   3.582101   0.000000
    25  H    5.616729   8.805743   8.413293   6.906399   0.000000
    26  H    4.976480   8.737356   9.846123   7.473196   3.861888
    27  H    3.119724   8.522001   8.775872   7.803989   2.805637
    28  H    2.724678   6.852057   8.482158   8.665171   7.965297
    29  H    0.980162   7.619869   8.735148   7.810114   4.755849
    30  H    3.141045   8.624161   8.869624   9.341714   6.435776
    31  H    6.981447   9.495918   8.128983   7.531707   2.545589
    32  H    6.806877   8.816809   7.009180   7.961147   5.239825
    33  H    3.507394   8.361907   8.088985   8.125886   4.211277
                   26         27         28         29         30
    26  H    0.000000
    27  H    3.855355   0.000000
    28  H    7.446835   5.616136   0.000000
    29  H    4.094529   2.306602   3.682734   0.000000
    30  H    7.412718   4.014728   3.565906   3.566157   0.000000
    31  H    6.391669   4.234622   8.916129   6.317702   6.665254
    32  H    8.470742   5.236797   7.767394   6.595312   5.190154
    33  H    6.090275   2.337946   5.070530   3.288799   2.384588
                   31         32         33
    31  H    0.000000
    32  H    3.484513   0.000000
    33  H    4.299948   3.584124   0.000000
 Stoichiometry    H12O16Si4Zr
 Framework group  C1[X(H12O16Si4Zr)]
 Deg. of freedom    93
 Full point group                 C1      NOp   1
 Largest Abelian subgroup         C1      NOp   1
 Largest concise Abelian subgroup C1      NOp   1
                         Standard orientation:                         
 ---------------------------------------------------------------------
 Center     Atomic      Atomic             Coordinates (Angstroms)
 Number     Number       Type             X           Y           Z
 ---------------------------------------------------------------------
      1         40           0        0.657743   -0.120175   -0.086828
      2          8           0       -0.205176   -0.906313    1.469560
      3          8           0        0.096400    1.750608   -0.130182
      4          8           0       -0.280416   -0.974938   -1.604297
      5          8           0        2.592815   -0.425070   -0.117341
      6         14           0       -1.845554   -1.333159   -1.946057
      7         14           0       -1.125228    2.840801   -0.076581
      8         14           0       -1.698972   -1.158749    2.121713
      9         14           0        4.216082   -0.256726    0.003685
     10          8           0        4.962931    0.047711   -1.436841
     11          8           0        4.898204   -1.661527    0.558861
     12          8           0        4.439468    1.044438    0.993191
     13          8           0       -2.293719   -2.631215    1.706623
     14          8           0       -2.708859    0.056719    1.568875
     15          8           0       -1.557079   -1.027187    3.749803
     16          8           0       -2.030920   -1.558741   -3.568849
     17          8           0       -2.836764   -0.191615   -1.282658
     18          8           0       -2.346785   -2.717816   -1.172155
     19          8           0       -2.061991    2.437439   -1.415478
     20          8           0       -0.652603    4.401423   -0.296190
     21          8           0       -1.961288    2.755283    1.328159
     22          1           0        5.325808    1.421206    1.023481
     23          1           0        5.315572   -0.721660   -1.898172
     24          1           0        4.459911   -2.106837    1.292529
     25          1           0       -2.388942   -2.815726    0.754909
     26          1           0       -2.335312   -1.235111    4.278111
     27          1           0       -3.053318   -0.091303    0.667026
     28          1           0       -0.538171    4.927488    0.503458
     29          1           0       -2.259295    1.862390    1.601383
     30          1           0       -2.675207    3.123038   -1.708491
     31          1           0       -2.309181   -3.532121   -1.686492
     32          1           0       -1.307041   -1.259009   -4.129954
     33          1           0       -2.626854    0.750706   -1.471931
 ---------------------------------------------------------------------
 Rotational constants (GHZ):           0.2123526           0.1338761           0.1240905
 General basis read from cards:  (5D, 7F)
 ======================================================================================================
                                       Pseudopotential Parameters
 ======================================================================================================
  Center     Atomic      Valence      Angular      Power
  Number     Number     Electrons     Momentum     of R      Exponent        Coefficient   SO-Coeffient
 ======================================================================================================
    1         40           12
                                      G and up 
                                                     2        1.0000000        0.00000000    0.00000000
                                      S - G
                                                     2        8.6365280      150.24299400    0.00000000
                                                     2        3.7176390       18.78003600    0.00000000
                                      P - G
                                                     2        7.6267280       33.19279100    0.00000000
                                                     2        7.4532070       66.38903900    0.00000000
                                                     2        3.3583890        4.62072600    0.00000000
                                                     2        3.2297380        9.26027000    0.00000000
                                      D - G
                                                     2        5.9380860       13.99338300    0.00000000
                                                     2        5.8255440       20.99588200    0.00000000
                                                     2        2.2050190        2.28516600    0.00000000
                                                     2        2.2062920        3.44126000    0.00000000
                                      F - G
                                                     2        4.8002150       -5.23932000    0.00000000
                                                     2        4.7989920       -6.98742400    0.00000000
    2          8
                                   No pseudopotential on this center.
    3          8
                                   No pseudopotential on this center.
    4          8
                                   No pseudopotential on this center.
    5          8
                                   No pseudopotential on this center.
    6         14
                                   No pseudopotential on this center.
    7         14
                                   No pseudopotential on this center.
    8         14
                                   No pseudopotential on this center.
    9         14
                                   No pseudopotential on this center.
   10          8
                                   No pseudopotential on this center.
   11          8
                                   No pseudopotential on this center.
   12          8
                                   No pseudopotential on this center.
   13          8
                                   No pseudopotential on this center.
   14          8
                                   No pseudopotential on this center.
   15          8
                                   No pseudopotential on this center.
   16          8
                                   No pseudopotential on this center.
   17          8
                                   No pseudopotential on this center.
   18          8
                                   No pseudopotential on this center.
   19          8
                                   No pseudopotential on this center.
   20          8
                                   No pseudopotential on this center.
   21          8
                                   No pseudopotential on this center.
   22          1
                                   No pseudopotential on this center.
   23          1
                                   No pseudopotential on this center.
   24          1
                                   No pseudopotential on this center.
   25          1
                                   No pseudopotential on this center.
   26          1
                                   No pseudopotential on this center.
   27          1
                                   No pseudopotential on this center.
   28          1
                                   No pseudopotential on this center.
   29          1
                                   No pseudopotential on this center.
   30          1
                                   No pseudopotential on this center.
   31          1
                                   No pseudopotential on this center.
   32          1
                                   No pseudopotential on this center.
   33          1
                                   No pseudopotential on this center.
 ======================================================================================================
 There are   570 symmetry adapted cartesian basis functions of A   symmetry.
 There are   524 symmetry adapted basis functions of A   symmetry.
   524 basis functions,  1074 primitive gaussians,   570 cartesian basis functions
   104 alpha electrons      104 beta electrons
       nuclear repulsion energy      2832.9085962038 Hartrees.
 NAtoms=   33 NActive=   33 NUniq=   33 SFac= 1.00D+00 NAtFMM=   60 NAOKFM=F Big=F
 Integral buffers will be    131072 words long.
 Raffenetti 2 integral format.
 Two-electron integral symmetry is turned on.
 Nuclear repulsion after empirical dispersion term =     2832.8677947185 Hartrees.
 One-electron integrals computed using PRISM.
 PrsmSu:  requested number of processors reduced to:   4 ShMem   1 Linda.
   1 Symmetry operations used in ECPInt.
 ECPInt:  NShTT=   13203 NPrTT=   78401 LenC2=   11522 LenP2D=   44634.
 LDataN:  DoStor=T MaxTD1= 8 Len=  415
 Number of processors reduced to  13 by ecpmxn.
 NBasis=   524 RedAO= T EigKep=  3.18D-05  NBF=   524
 NBsUse=   524 1.00D-06 EigRej= -1.00D+00 NBFU=   524
 Defaulting to unpruned grid for atomic number  40.
 ExpMin= 1.01D-02 ExpMax= 1.61D+04 ExpMxC= 2.43D+03 IAcc=3 IRadAn=         5 AccDes= 0.00D+00
 Harris functional with IExCor=  402 and IRadAn=       5 diagonalized for initial guess.
 HarFok:  IExCor=  402 AccDes= 0.00D+00 IRadAn=         5 IDoV= 1 UseB2=F ITyADJ=14
 ICtDFT=  3500011 ScaDFX=  1.000000  1.000000  1.000000  1.000000
 Defaulting to unpruned grid for atomic number  40.
 FoFCou: FMM=F IPFlag=           0 FMFlag=      100000 FMFlg1=           0
         NFxFlg=           0 DoJE=T BraDBF=F KetDBF=T FulRan=T
         wScrn=  0.000000 ICntrl=       500 IOpCl=  0 I1Cent=   200000004 NGrid=           0
         NMat0=    1 NMatS0=      1 NMatT0=    0 NMatD0=    1 NMtDS0=    0 NMtDT0=    0
 Petite list used in FoFCou.
 Requested convergence on RMS density matrix=1.00D-08 within 128 cycles.
 Requested convergence on MAX density matrix=1.00D-06.
 Requested convergence on             energy=1.00D-06.
 No special actions if energy rises.
 Defaulting to unpruned grid for atomic number  40.
 Defaulting to unpruned grid for atomic number  40.
 Defaulting to unpruned grid for atomic number  40.
 Defaulting to unpruned grid for atomic number  40.
 Defaulting to unpruned grid for atomic number  40.
 Defaulting to unpruned grid for atomic number  40.
 Defaulting to unpruned grid for atomic number  40.
 Defaulting to unpruned grid for atomic number  40.
 Defaulting to unpruned grid for atomic number  40.
 Defaulting to unpruned grid for atomic number  40.
 Defaulting to unpruned grid for atomic number  40.
 Defaulting to unpruned grid for atomic number  40.
 Defaulting to unpruned grid for atomic number  40.
 Defaulting to unpruned grid for atomic number  40.
 Defaulting to unpruned grid for atomic number  40.
 Defaulting to unpruned grid for atomic number  40.
 SCF Done:  E(RB3LYP) =  -2416.94684638     A.U. after   14 cycles
            NFock= 14  Conv=0.26D-08     -V/T= 2.0185

 **********************************************************************

            Population analysis using the SCF Density.

 **********************************************************************

 Orbital symmetries:
       Occupied  (A) (A) (A) (A) (A) (A) (A) (A) (A) (A) (A) (A)
                 (A) (A) (A) (A) (A) (A) (A) (A) (A) (A) (A) (A)
                 (A) (A) (A) (A) (A) (A) (A) (A) (A) (A) (A) (A)
                 (A) (A) (A) (A) (A) (A) (A) (A) (A) (A) (A) (A)
                 (A) (A) (A) (A) (A) (A) (A) (A) (A) (A) (A) (A)
                 (A) (A) (A) (A) (A) (A) (A) (A) (A) (A) (A) (A)
                 (A) (A) (A) (A) (A) (A) (A) (A) (A) (A) (A) (A)
                 (A) (A) (A) (A) (A) (A) (A) (A) (A) (A) (A) (A)
                 (A) (A) (A) (A) (A) (A) (A) (A)
       Virtual   (A) (A) (A) (A) (A) (A) (A) (A) (A) (A) (A) (A)
                 (A) (A) (A) (A) (A) (A) (A) (A) (A) (A) (A) (A)
                 (A) (A) (A) (A) (A) (A) (A) (A) (A) (A) (A) (A)
                 (A) (A) (A) (A) (A) (A) (A) (A) (A) (A) (A) (A)
                 (A) (A) (A) (A) (A) (A) (A) (A) (A) (A) (A) (A)
                 (A) (A) (A) (A) (A) (A) (A) (A) (A) (A) (A) (A)
                 (A) (A) (A) (A) (A) (A) (A) (A) (A) (A) (A) (A)
                 (A) (A) (A) (A) (A) (A) (A) (A) (A) (A) (A) (A)
                 (A) (A) (A) (A) (A) (A) (A) (A) (A) (A) (A) (A)
                 (A) (A) (A) (A) (A) (A) (A) (A) (A) (A) (A) (A)
                 (A) (A) (A) (A) (A) (A) (A) (A) (A) (A) (A) (A)
                 (A) (A) (A) (A) (A) (A) (A) (A) (A) (A) (A) (A)
                 (A) (A) (A) (A) (A) (A) (A) (A) (A) (A) (A) (A)
                 (A) (A) (A) (A) (A) (A) (A) (A) (A) (A) (A) (A)
                 (A) (A) (A) (A) (A) (A) (A) (A) (A) (A) (A) (A)
                 (A) (A) (A) (A) (A) (A) (A) (A) (A) (A) (A) (A)
                 (A) (A) (A) (A) (A) (A) (A) (A) (A) (A) (A) (A)
                 (A) (A) (A) (A) (A) (A) (A) (A) (A) (A) (A) (A)
                 (A) (A) (A) (A) (A) (A) (A) (A) (A) (A) (A) (A)
                 (A) (A) (A) (A) (A) (A) (A) (A) (A) (A) (A) (A)
                 (A) (A) (A) (A) (A) (A) (A) (A) (A) (A) (A) (A)
                 (A) (A) (A) (A) (A) (A) (A) (A) (A) (A) (A) (A)
                 (A) (A) (A) (A) (A) (A) (A) (A) (A) (A) (A) (A)
                 (A) (A) (A) (A) (A) (A) (A) (A) (A) (A) (A) (A)
                 (A) (A) (A) (A) (A) (A) (A) (A) (A) (A) (A) (A)
                 (A) (A) (A) (A) (A) (A) (A) (A) (A) (A) (A) (A)
                 (A) (A) (A) (A) (A) (A) (A) (A) (A) (A) (A) (A)
                 (A) (A) (A) (A) (A) (A) (A) (A) (A) (A) (A) (A)
                 (A) (A) (A) (A) (A) (A) (A) (A) (A) (A) (A) (A)
                 (A) (A) (A) (A) (A) (A) (A) (A) (A) (A) (A) (A)
                 (A) (A) (A) (A) (A) (A) (A) (A) (A) (A) (A) (A)
                 (A) (A) (A) (A) (A) (A) (A) (A) (A) (A) (A) (A)
                 (A) (A) (A) (A) (A) (A) (A) (A) (A) (A) (A) (A)
                 (A) (A) (A) (A) (A) (A) (A) (A) (A) (A) (A) (A)
                 (A) (A) (A) (A) (A) (A) (A) (A) (A) (A) (A) (A)
 The electronic state is 1-A.
 Alpha  occ. eigenvalues --  -66.22813 -66.21757 -66.21489 -66.21032 -19.18598
 Alpha  occ. eigenvalues --  -19.18355 -19.17798 -19.17031 -19.16736 -19.16543
 Alpha  occ. eigenvalues --  -19.16435 -19.16215 -19.16180 -19.16019 -19.15984
 Alpha  occ. eigenvalues --  -19.15504 -19.15332 -19.15249 -19.14893 -19.14707
 Alpha  occ. eigenvalues --   -5.36873  -5.35837  -5.35564  -5.35092  -3.72857
 Alpha  occ. eigenvalues --   -3.72830  -3.72783  -3.71829  -3.71782  -3.71747
 Alpha  occ. eigenvalues --   -3.71533  -3.71525  -3.71485  -3.71056  -3.71048
 Alpha  occ. eigenvalues --   -3.71022  -2.13365  -1.29608  -1.29524  -1.29366
 Alpha  occ. eigenvalues --   -1.05688  -1.04779  -1.04150  -1.03491  -1.02574
 Alpha  occ. eigenvalues --   -1.02174  -1.01475  -1.00920  -1.00759  -1.00659
 Alpha  occ. eigenvalues --   -0.99829  -0.99304  -0.97375  -0.96287  -0.95725
 Alpha  occ. eigenvalues --   -0.95400  -0.60998  -0.59162  -0.58973  -0.58483
 Alpha  occ. eigenvalues --   -0.55550  -0.54535  -0.53868  -0.53040  -0.52984
 Alpha  occ. eigenvalues --   -0.52491  -0.52141  -0.51712  -0.48786  -0.47601
 Alpha  occ. eigenvalues --   -0.47205  -0.46717  -0.43380  -0.42650  -0.41867
 Alpha  occ. eigenvalues --   -0.41402  -0.41111  -0.40529  -0.39840  -0.39319
 Alpha  occ. eigenvalues --   -0.38813  -0.38688  -0.38647  -0.38140  -0.38015
 Alpha  occ. eigenvalues --   -0.37625  -0.37497  -0.37166  -0.36523  -0.36419
 Alpha  occ. eigenvalues --   -0.36105  -0.35641  -0.35451  -0.35086  -0.34909
 Alpha  occ. eigenvalues --   -0.34608  -0.33991  -0.33706  -0.33464  -0.33272
 Alpha  occ. eigenvalues --   -0.32804  -0.32179  -0.32052  -0.31302
 Alpha virt. eigenvalues --   -0.04334  -0.03154  -0.03037  -0.02756  -0.02096
 Alpha virt. eigenvalues --   -0.01172  -0.00561  -0.00155   0.00132   0.00295
 Alpha virt. eigenvalues --    0.00766   0.00938   0.01018   0.01949   0.02343
 Alpha virt. eigenvalues --    0.03202   0.03336   0.03845   0.03936   0.04082
 Alpha virt. eigenvalues --    0.04150   0.04772   0.05604   0.05836   0.06136
 Alpha virt. eigenvalues --    0.06475   0.07095   0.07447   0.07717   0.08661
 Alpha virt. eigenvalues --    0.08789   0.09018   0.09182   0.09675   0.09971
 Alpha virt. eigenvalues --    0.10410   0.10635   0.10842   0.11194   0.11697
 Alpha virt. eigenvalues --    0.11824   0.12537   0.13259   0.13334   0.13770
 Alpha virt. eigenvalues --    0.14043   0.14341   0.14883   0.15146   0.15329
 Alpha virt. eigenvalues --    0.15403   0.15757   0.16164   0.16730   0.16927
 Alpha virt. eigenvalues --    0.17406   0.17499   0.17659   0.18056   0.18320
 Alpha virt. eigenvalues --    0.18535   0.18751   0.19209   0.19634   0.19736
 Alpha virt. eigenvalues --    0.20100   0.20405   0.20667   0.21040   0.21191
 Alpha virt. eigenvalues --    0.21748   0.21833   0.22274   0.22507   0.22800
 Alpha virt. eigenvalues --    0.23382   0.23800   0.24031   0.24163   0.24480
 Alpha virt. eigenvalues --    0.24959   0.25119   0.25535   0.25800   0.26165
 Alpha virt. eigenvalues --    0.26488   0.26716   0.26910   0.27306   0.27372
 Alpha virt. eigenvalues --    0.27950   0.28184   0.28501   0.28876   0.29025
 Alpha virt. eigenvalues --    0.29458   0.29661   0.29970   0.30411   0.30613
 Alpha virt. eigenvalues --    0.30885   0.31321   0.31428   0.31522   0.32202
 Alpha virt. eigenvalues --    0.32406   0.32851   0.33124   0.33537   0.34043
 Alpha virt. eigenvalues --    0.34358   0.34678   0.35326   0.35803   0.36270
 Alpha virt. eigenvalues --    0.36958   0.37555   0.37988   0.38397   0.38854
 Alpha virt. eigenvalues --    0.39252   0.39901   0.40053   0.41168   0.41612
 Alpha virt. eigenvalues --    0.42506   0.43236   0.43879   0.44344   0.44913
 Alpha virt. eigenvalues --    0.45199   0.45790   0.45977   0.46719   0.47465
 Alpha virt. eigenvalues --    0.47861   0.48421   0.48878   0.49488   0.49623
 Alpha virt. eigenvalues --    0.49968   0.50719   0.51154   0.51329   0.53204
 Alpha virt. eigenvalues --    0.54033   0.54463   0.55240   0.56909   0.57265
 Alpha virt. eigenvalues --    0.58245   0.58740   0.59096   0.59496   0.60325
 Alpha virt. eigenvalues --    0.61172   0.61695   0.62113   0.64074   0.65907
 Alpha virt. eigenvalues --    0.66761   0.67797   0.68378   0.69043   0.69462
 Alpha virt. eigenvalues --    0.70226   0.70381   0.72908   0.74363   0.75182
 Alpha virt. eigenvalues --    0.75505   0.77389   0.78558   0.79019   0.80477
 Alpha virt. eigenvalues --    0.81141   0.81531   0.82619   0.84106   0.85466
 Alpha virt. eigenvalues --    0.86819   0.87633   0.90004   0.90577   0.91158
 Alpha virt. eigenvalues --    0.94199   0.95715   0.96314   0.96887   0.97450
 Alpha virt. eigenvalues --    0.98186   0.98835   0.99300   0.99824   1.00275
 Alpha virt. eigenvalues --    1.00661   1.01409   1.01994   1.03225   1.04080
 Alpha virt. eigenvalues --    1.04262   1.05606   1.06343   1.06706   1.07910
 Alpha virt. eigenvalues --    1.09804   1.12344   1.15237   1.16178   1.16431
 Alpha virt. eigenvalues --    1.18723   1.19019   1.19901   1.20631   1.21000
 Alpha virt. eigenvalues --    1.21361   1.21794   1.22316   1.22731   1.22969
 Alpha virt. eigenvalues --    1.23503   1.24039   1.24203   1.25239   1.25699
 Alpha virt. eigenvalues --    1.25944   1.27130   1.27586   1.28067   1.28455
 Alpha virt. eigenvalues --    1.28961   1.29793   1.30124   1.30979   1.31402
 Alpha virt. eigenvalues --    1.32414   1.32598   1.33000   1.33379   1.34478
 Alpha virt. eigenvalues --    1.35172   1.36098   1.36486   1.36871   1.37848
 Alpha virt. eigenvalues --    1.39148   1.39752   1.40225   1.41263   1.41517
 Alpha virt. eigenvalues --    1.42702   1.43564   1.44204   1.45177   1.46373
 Alpha virt. eigenvalues --    1.46953   1.48948   1.51251   1.51477   1.52744
 Alpha virt. eigenvalues --    1.56770   1.57379   1.57864   1.59309   1.59689
 Alpha virt. eigenvalues --    1.60066   1.61165   1.61941   1.62553   1.63032
 Alpha virt. eigenvalues --    1.63242   1.63778   1.65219   1.65402   1.66514
 Alpha virt. eigenvalues --    1.67429   1.68053   1.69254   1.69437   1.70065
 Alpha virt. eigenvalues --    1.71318   1.71535   1.71800   1.72717   1.73111
 Alpha virt. eigenvalues --    1.74058   1.75038   1.75654   1.76123   1.76457
 Alpha virt. eigenvalues --    1.77149   1.77322   1.78491   1.78909   1.79741
 Alpha virt. eigenvalues --    1.80455   1.81420   1.82131   1.82644   1.83019
 Alpha virt. eigenvalues --    1.83313   1.84793   1.85052   1.85874   1.86531
 Alpha virt. eigenvalues --    1.87197   1.88124   1.88742   1.89736   1.90491
 Alpha virt. eigenvalues --    1.91231   1.91472   1.92571   1.92764   1.93963
 Alpha virt. eigenvalues --    1.94721   1.95088   1.95893   1.97212   1.98340
 Alpha virt. eigenvalues --    1.98761   2.00400   2.01105   2.02826   2.03715
 Alpha virt. eigenvalues --    2.05854   2.06527   2.07728   2.09837   2.10392
 Alpha virt. eigenvalues --    2.11342   2.12984   2.14373   2.16140   2.16296
 Alpha virt. eigenvalues --    2.17756   2.18872   2.19048   2.20856   2.26644
 Alpha virt. eigenvalues --    2.32406   2.33417   2.35559   2.39473   2.40449
 Alpha virt. eigenvalues --    2.41175   2.41368   2.41680   2.42760   2.43744
 Alpha virt. eigenvalues --    2.44023   2.45609   2.46676   2.47639   2.49048
 Alpha virt. eigenvalues --    2.50215   2.50313   2.51675   2.52688   2.53284
 Alpha virt. eigenvalues --    2.55419   2.58527   2.59124   2.60053   2.60682
 Alpha virt. eigenvalues --    2.61135   2.61795   2.62103   2.62512   2.62791
 Alpha virt. eigenvalues --    2.63188   2.64024   2.64661   2.64996   2.65951
 Alpha virt. eigenvalues --    2.66312   2.66630   2.67309   2.67575   2.69372
 Alpha virt. eigenvalues --    2.69707   2.70299   2.71218   2.71688   2.72380
 Alpha virt. eigenvalues --    2.72888   2.74383   2.75557   2.76758   2.77479
 Alpha virt. eigenvalues --    2.78945   2.80580   2.81440   2.82446   2.83511
 Alpha virt. eigenvalues --    2.83733   2.84696   2.86676   2.87788   2.88141
 Alpha virt. eigenvalues --    3.14978   3.20629   3.35881   3.41144   3.46802
 Alpha virt. eigenvalues --    3.47826   3.48607   3.48640   3.51073   3.51121
 Alpha virt. eigenvalues --    3.52858   3.53930   3.60305   3.61074   3.62062
 Alpha virt. eigenvalues --    3.66184   4.35141   4.60318   7.91830  31.29337
          Condensed to atoms (all electrons):
               1          2          3          4          5          6
     1  Zr  15.068307  -0.102090  -0.001912  -0.127962  -0.186543  -0.624245
     2  O   -0.102090   9.052609   0.019242  -0.042416  -0.056965   0.083443
     3  O   -0.001912   0.019242   8.827795   0.017001  -0.045446  -0.002597
     4  O   -0.127962  -0.042416   0.017001   8.810103  -0.061389  -0.678047
     5  O   -0.186543  -0.056965  -0.045446  -0.061389   9.418428  -0.008294
     6  Si  -0.624245   0.083443  -0.002597  -0.678047  -0.008294  14.019892
     7  Si  -0.609420  -0.029533  -0.874051  -0.008437  -0.034487   0.083169
     8  Si  -0.623893  -0.997318  -0.019345   0.069465  -0.014990  -0.005090
     9  Si  -0.313095  -0.040022  -0.026537  -0.031520  -1.205941   0.039318
    10  O   -0.018201   0.001042  -0.001838   0.000741   0.128396  -0.002170
    11  O   -0.068653   0.003121   0.003049   0.001359   0.313616  -0.000686
    12  O    0.047280   0.000105   0.004565   0.001957   0.142613  -0.003150
    13  O   -0.025719   0.183167   0.001601  -0.015383  -0.000679   0.032708
    14  O   -0.009002   0.260294  -0.017982  -0.008710   0.001754   0.026954
    15  O   -0.085963   0.293271  -0.000646   0.001217   0.000612   0.000711
    16  O   -0.122953   0.004697  -0.000522   0.346073   0.003239  -0.426998
    17  O   -0.081233  -0.039456   0.008709   0.215746   0.001398  -0.450453
    18  O   -0.024767  -0.014804   0.003755   0.197487  -0.000632  -0.452036
    19  O    0.004906   0.008736   0.266662   0.010538   0.002167  -0.008446
    20  O   -0.145691  -0.000583   0.163753  -0.000830   0.001519   0.009198
    21  O    0.036965   0.009843   0.145766   0.003504   0.000171  -0.012193
    22  H   -0.009099  -0.000015  -0.000006  -0.000008   0.005960   0.000089
    23  H   -0.007778  -0.000012  -0.000005  -0.000053  -0.025299   0.000100
    24  H   -0.005276  -0.000170  -0.000012   0.000005  -0.004998   0.000097
    25  H    0.015974  -0.019779  -0.000109  -0.000377   0.000018   0.003049
    26  H    0.007190   0.000724   0.000014  -0.000011  -0.000004  -0.000163
    27  H    0.002152  -0.018859   0.000837  -0.001725   0.000013   0.009500
    28  H    0.004992  -0.000011  -0.018370  -0.000014  -0.000015  -0.000279
    29  H    0.003606  -0.006981  -0.020236  -0.000139  -0.000073   0.000184
    30  H    0.000631  -0.000012   0.000012  -0.000460  -0.000009  -0.000610
    31  H   -0.000128   0.000181  -0.000020  -0.018462  -0.000011   0.063863
    32  H    0.002199  -0.000025   0.000041   0.010490   0.000002   0.022549
    33  H   -0.015627   0.001014  -0.010151  -0.009615  -0.000101   0.053001
               7          8          9         10         11         12
     1  Zr  -0.609420  -0.623893  -0.313095  -0.018201  -0.068653   0.047280
     2  O   -0.029533  -0.997318  -0.040022   0.001042   0.003121   0.000105
     3  O   -0.874051  -0.019345  -0.026537  -0.001838   0.003049   0.004565
     4  O   -0.008437   0.069465  -0.031520   0.000741   0.001359   0.001957
     5  O   -0.034487  -0.014990  -1.205941   0.128396   0.313616   0.142613
     6  Si   0.083169  -0.005090   0.039318  -0.002170  -0.000686  -0.003150
     7  Si  13.793715   0.183320   0.019112  -0.000134  -0.000981   0.003637
     8  Si   0.183320  13.826606   0.027114  -0.001107   0.001294  -0.001226
     9  Si   0.019112   0.027114  14.190792  -0.061012  -0.175969  -0.197135
    10  O   -0.000134  -0.001107  -0.061012   8.523329   0.014131   0.030073
    11  O   -0.000981   0.001294  -0.175969   0.014131   8.516547  -0.050820
    12  O    0.003637  -0.001226  -0.197135   0.030073  -0.050820   8.597611
    13  O    0.006984  -0.096859   0.000097   0.000000   0.000019   0.000006
    14  O    0.008652  -0.366857  -0.001554  -0.000002   0.000002   0.000015
    15  O   -0.002353  -0.304994  -0.000531  -0.000000  -0.000023  -0.000011
    16  O    0.003777  -0.010737  -0.001068   0.000005  -0.000004  -0.000001
    17  O   -0.001050   0.096461   0.002555  -0.000000   0.000003  -0.000006
    18  O   -0.000888   0.075781   0.004054  -0.000001   0.000001  -0.000001
    19  O   -0.413731  -0.016441   0.001007   0.000006  -0.000002  -0.000030
    20  O   -0.109409   0.009587   0.003055   0.000006  -0.000003  -0.000035
    21  O    0.025140  -0.039881  -0.001671   0.000000   0.000001   0.000018
    22  H   -0.000148   0.000096   0.047168  -0.006338  -0.005021   0.219411
    23  H    0.000057   0.000061   0.081142   0.228681  -0.006033   0.005841
    24  H    0.000046  -0.000056   0.036331   0.007352   0.242779  -0.007330
    25  H   -0.000439   0.057414  -0.000205   0.000000  -0.000000  -0.000000
    26  H   -0.000387   0.046232  -0.000045  -0.000000   0.000000  -0.000000
    27  H    0.001574   0.068741   0.000003   0.000000  -0.000000  -0.000000
    28  H    0.056626  -0.000046  -0.000140  -0.000000  -0.000000  -0.000003
    29  H    0.048251   0.022097  -0.000059   0.000000   0.000000  -0.000001
    30  H    0.040482   0.000119   0.000020  -0.000000   0.000000   0.000000
    31  H    0.000155  -0.002034  -0.000052   0.000000  -0.000000   0.000000
    32  H   -0.000664   0.000058   0.000016  -0.000000   0.000000  -0.000000
    33  H    0.020648   0.000030   0.000077  -0.000000   0.000000   0.000000
              13         14         15         16         17         18
     1  Zr  -0.025719  -0.009002  -0.085963  -0.122953  -0.081233  -0.024767
     2  O    0.183167   0.260294   0.293271   0.004697  -0.039456  -0.014804
     3  O    0.001601  -0.017982  -0.000646  -0.000522   0.008709   0.003755
     4  O   -0.015383  -0.008710   0.001217   0.346073   0.215746   0.197487
     5  O   -0.000679   0.001754   0.000612   0.003239   0.001398  -0.000632
     6  Si   0.032708   0.026954   0.000711  -0.426998  -0.450453  -0.452036
     7  Si   0.006984   0.008652  -0.002353   0.003777  -0.001050  -0.000888
     8  Si  -0.096859  -0.366857  -0.304994  -0.010737   0.096461   0.075781
     9  Si   0.000097  -0.001554  -0.000531  -0.001068   0.002555   0.004054
    10  O    0.000000  -0.000002  -0.000000   0.000005  -0.000000  -0.000001
    11  O    0.000019   0.000002  -0.000023  -0.000004   0.000003   0.000001
    12  O    0.000006   0.000015  -0.000011  -0.000001  -0.000006  -0.000001
    13  O    8.626491   0.086727  -0.090524   0.003755  -0.030908  -0.045818
    14  O    0.086727   8.671639   0.055779   0.003650  -0.035786  -0.026891
    15  O   -0.090524   0.055779   8.778576  -0.000175   0.003618   0.001686
    16  O    0.003755   0.003650  -0.000175   8.902467  -0.091932  -0.114521
    17  O   -0.030908  -0.035786   0.003618  -0.091932   8.934929   0.227456
    18  O   -0.045818  -0.026891   0.001686  -0.114521   0.227456   9.012070
    19  O    0.000164  -0.000553   0.000145  -0.001482  -0.029838   0.000146
    20  O    0.000008  -0.000270   0.000038   0.000066  -0.000965   0.000015
    21  O   -0.000256   0.015752  -0.000634  -0.000213  -0.005579   0.000479
    22  H   -0.000000  -0.000000   0.000000   0.000000   0.000000  -0.000000
    23  H    0.000000   0.000000  -0.000000  -0.000000   0.000000  -0.000000
    24  H   -0.000000   0.000000   0.000002   0.000000  -0.000000  -0.000000
    25  H    0.218693  -0.011905   0.008911  -0.000058   0.000631   0.015014
    26  H   -0.005076  -0.010116   0.216786   0.000000  -0.000003   0.000006
    27  H   -0.009627   0.219664   0.004636   0.000182   0.017982  -0.000234
    28  H    0.000000  -0.000006  -0.000001  -0.000000   0.000004  -0.000000
    29  H    0.000802   0.017594  -0.002573  -0.000004  -0.000397   0.000006
    30  H    0.000001   0.000002   0.000000   0.000113  -0.000408  -0.000007
    31  H    0.002366   0.000169  -0.000019   0.003718  -0.000739   0.218147
    32  H   -0.000008  -0.000006   0.000000   0.233533  -0.003630   0.003877
    33  H    0.000229   0.002103  -0.000035  -0.000083   0.231017   0.002096
              19         20         21         22         23         24
     1  Zr   0.004906  -0.145691   0.036965  -0.009099  -0.007778  -0.005276
     2  O    0.008736  -0.000583   0.009843  -0.000015  -0.000012  -0.000170
     3  O    0.266662   0.163753   0.145766  -0.000006  -0.000005  -0.000012
     4  O    0.010538  -0.000830   0.003504  -0.000008  -0.000053   0.000005
     5  O    0.002167   0.001519   0.000171   0.005960  -0.025299  -0.004998
     6  Si  -0.008446   0.009198  -0.012193   0.000089   0.000100   0.000097
     7  Si  -0.413731  -0.109409   0.025140  -0.000148   0.000057   0.000046
     8  Si  -0.016441   0.009587  -0.039881   0.000096   0.000061  -0.000056
     9  Si   0.001007   0.003055  -0.001671   0.047168   0.081142   0.036331
    10  O    0.000006   0.000006   0.000000  -0.006338   0.228681   0.007352
    11  O   -0.000002  -0.000003   0.000001  -0.005021  -0.006033   0.242779
    12  O   -0.000030  -0.000035   0.000018   0.219411   0.005841  -0.007330
    13  O    0.000164   0.000008  -0.000256  -0.000000   0.000000  -0.000000
    14  O   -0.000553  -0.000270   0.015752  -0.000000   0.000000   0.000000
    15  O    0.000145   0.000038  -0.000634   0.000000  -0.000000   0.000002
    16  O   -0.001482   0.000066  -0.000213   0.000000  -0.000000   0.000000
    17  O   -0.029838  -0.000965  -0.005579   0.000000   0.000000  -0.000000
    18  O    0.000146   0.000015   0.000479  -0.000000  -0.000000  -0.000000
    19  O    8.873858   0.032382   0.023178  -0.000000   0.000000  -0.000000
    20  O    0.032382   8.657793  -0.050516   0.000000   0.000000  -0.000000
    21  O    0.023178  -0.050516   8.485183  -0.000000   0.000000   0.000000
    22  H   -0.000000   0.000000  -0.000000   0.361972   0.000057   0.000123
    23  H    0.000000   0.000000   0.000000   0.000057   0.351010   0.000015
    24  H   -0.000000  -0.000000   0.000000   0.000123   0.000015   0.365339
    25  H   -0.000023   0.000000  -0.000019   0.000000   0.000000   0.000000
    26  H    0.000001  -0.000000   0.000040  -0.000000  -0.000000  -0.000000
    27  H    0.000046   0.000193  -0.003994  -0.000000  -0.000000   0.000000
    28  H    0.004626   0.229574  -0.002046  -0.000000   0.000000  -0.000000
    29  H   -0.008580   0.007672   0.206489   0.000000   0.000000  -0.000000
    30  H    0.224065  -0.001489  -0.007153   0.000000   0.000000  -0.000000
    31  H    0.000004  -0.000000  -0.000000  -0.000000  -0.000000   0.000000
    32  H    0.000097  -0.000000   0.000001  -0.000000  -0.000000  -0.000000
    33  H    0.014779  -0.000082   0.001483  -0.000000  -0.000000  -0.000000
              25         26         27         28         29         30
     1  Zr   0.015974   0.007190   0.002152   0.004992   0.003606   0.000631
     2  O   -0.019779   0.000724  -0.018859  -0.000011  -0.006981  -0.000012
     3  O   -0.000109   0.000014   0.000837  -0.018370  -0.020236   0.000012
     4  O   -0.000377  -0.000011  -0.001725  -0.000014  -0.000139  -0.000460
     5  O    0.000018  -0.000004   0.000013  -0.000015  -0.000073  -0.000009
     6  Si   0.003049  -0.000163   0.009500  -0.000279   0.000184  -0.000610
     7  Si  -0.000439  -0.000387   0.001574   0.056626   0.048251   0.040482
     8  Si   0.057414   0.046232   0.068741  -0.000046   0.022097   0.000119
     9  Si  -0.000205  -0.000045   0.000003  -0.000140  -0.000059   0.000020
    10  O    0.000000  -0.000000   0.000000  -0.000000   0.000000  -0.000000
    11  O   -0.000000   0.000000  -0.000000  -0.000000   0.000000   0.000000
    12  O   -0.000000  -0.000000  -0.000000  -0.000003  -0.000001   0.000000
    13  O    0.218693  -0.005076  -0.009627   0.000000   0.000802   0.000001
    14  O   -0.011905  -0.010116   0.219664  -0.000006   0.017594   0.000002
    15  O    0.008911   0.216786   0.004636  -0.000001  -0.002573   0.000000
    16  O   -0.000058   0.000000   0.000182  -0.000000  -0.000004   0.000113
    17  O    0.000631  -0.000003   0.017982   0.000004  -0.000397  -0.000408
    18  O    0.015014   0.000006  -0.000234  -0.000000   0.000006  -0.000007
    19  O   -0.000023   0.000001   0.000046   0.004626  -0.008580   0.224065
    20  O    0.000000  -0.000000   0.000193   0.229574   0.007672  -0.001489
    21  O   -0.000019   0.000040  -0.003994  -0.002046   0.206489  -0.007153
    22  H    0.000000  -0.000000  -0.000000  -0.000000   0.000000   0.000000
    23  H    0.000000  -0.000000  -0.000000   0.000000   0.000000   0.000000
    24  H    0.000000  -0.000000   0.000000  -0.000000  -0.000000  -0.000000
    25  H    0.298853  -0.000012   0.000110   0.000000   0.000001   0.000000
    26  H   -0.000012   0.366112   0.000035   0.000000   0.000021  -0.000000
    27  H    0.000110   0.000035   0.283338  -0.000000  -0.001498   0.000009
    28  H    0.000000   0.000000  -0.000000   0.349122  -0.000017  -0.000016
    29  H    0.000001   0.000021  -0.001498  -0.000017   0.285926   0.000156
    30  H    0.000000  -0.000000   0.000009  -0.000016   0.000156   0.334290
    31  H   -0.000498   0.000000   0.000013  -0.000000   0.000000  -0.000000
    32  H   -0.000001   0.000000  -0.000000   0.000000  -0.000000  -0.000000
    33  H    0.000006  -0.000000  -0.002413  -0.000002   0.000099  -0.001161
              31         32         33
     1  Zr  -0.000128   0.002199  -0.015627
     2  O    0.000181  -0.000025   0.001014
     3  O   -0.000020   0.000041  -0.010151
     4  O   -0.018462   0.010490  -0.009615
     5  O   -0.000011   0.000002  -0.000101
     6  Si   0.063863   0.022549   0.053001
     7  Si   0.000155  -0.000664   0.020648
     8  Si  -0.002034   0.000058   0.000030
     9  Si  -0.000052   0.000016   0.000077
    10  O    0.000000  -0.000000  -0.000000
    11  O   -0.000000   0.000000   0.000000
    12  O    0.000000  -0.000000   0.000000
    13  O    0.002366  -0.000008   0.000229
    14  O    0.000169  -0.000006   0.002103
    15  O   -0.000019   0.000000  -0.000035
    16  O    0.003718   0.233533  -0.000083
    17  O   -0.000739  -0.003630   0.231017
    18  O    0.218147   0.003877   0.002096
    19  O    0.000004   0.000097   0.014779
    20  O   -0.000000  -0.000000  -0.000082
    21  O   -0.000000   0.000001   0.001483
    22  H   -0.000000  -0.000000  -0.000000
    23  H   -0.000000  -0.000000  -0.000000
    24  H    0.000000  -0.000000  -0.000000
    25  H   -0.000498  -0.000001   0.000006
    26  H    0.000000   0.000000  -0.000000
    27  H    0.000013  -0.000000  -0.002413
    28  H   -0.000000   0.000000  -0.000002
    29  H    0.000000  -0.000000   0.000099
    30  H   -0.000000  -0.000000  -0.001161
    31  H    0.331437   0.000002  -0.000038
    32  H    0.000002   0.350026   0.000156
    33  H   -0.000038   0.000156   0.269274
 Mulliken charges:
               1
     1  Zr   0.015045
     2  O   -0.552440
     3  O   -0.423016
     4  O   -0.680129
     5  O   -0.374033
     6  Si   2.227631
     7  Si   1.790772
     8  Si   2.016398
     9  Si   1.604693
    10  O   -0.842960
    11  O   -0.787728
    12  O   -0.793384
    13  O   -0.842960
    14  O   -0.881112
    15  O   -0.877506
    16  O   -0.734524
    17  O   -0.968127
    18  O   -1.081472
    19  O   -0.988386
    20  O   -0.804986
    21  O   -0.829861
    22  H    0.385760
    23  H    0.372216
    24  H    0.365754
    25  H    0.414749
    26  H    0.378653
    27  H    0.429325
    28  H    0.376022
    29  H    0.447655
    30  H    0.411425
    31  H    0.401944
    32  H    0.381287
    33  H    0.443296
 Sum of Mulliken charges =  -0.00000
 Mulliken charges with hydrogens summed into heavy atoms:
               1
     1  Zr   0.015045
     2  O   -0.552440
     3  O   -0.423016
     4  O   -0.680129
     5  O   -0.374033
     6  Si   2.227631
     7  Si   1.790772
     8  Si   2.016398
     9  Si   1.604693
    10  O   -0.470744
    11  O   -0.421974
    12  O   -0.407624
    13  O   -0.428210
    14  O   -0.451787
    15  O   -0.498853
    16  O   -0.353237
    17  O   -0.524831
    18  O   -0.679528
    19  O   -0.576961
    20  O   -0.428964
    21  O   -0.382206
 Electronic spatial extent (au):  <R**2>=           9867.9256
 Charge=              0.0000 electrons
 Dipole moment (field-independent basis, Debye):
    X=              1.0466    Y=             -0.8237    Z=             -2.5238  Tot=              2.8536
 Quadrupole moment (field-independent basis, Debye-Ang):
   XX=           -160.2015   YY=           -154.7083   ZZ=           -157.6927
   XY=             -5.1020   XZ=              2.0265   YZ=              5.6978
 Traceless Quadrupole moment (field-independent basis, Debye-Ang):
   XX=             -2.6674   YY=              2.8259   ZZ=             -0.1585
   XY=             -5.1020   XZ=              2.0265   YZ=              5.6978
 Octapole moment (field-independent basis, Debye-Ang**2):
  XXX=             74.3643  YYY=              5.6200  ZZZ=            -22.4274  XYY=             -3.8220
  XXY=             20.0164  XXZ=             19.1697  XZZ=              6.5895  YZZ=            -16.8405
  YYZ=            -12.9728  XYZ=             27.7990
 Hexadecapole moment (field-independent basis, Debye-Ang**3):
 XXXX=          -6031.1107 YYYY=          -2832.5691 ZZZZ=          -2253.9500 XXXY=             50.9055
 XXXZ=            -10.6600 YYYX=              0.5090 YYYZ=            214.8114 ZZZX=           -199.5673
 ZZZY=            -52.5235 XXYY=          -1494.8317 XXZZ=          -1350.3930 YYZZ=           -928.4069
 XXYZ=             -8.9094 YYXZ=            141.5142 ZZXY=            -53.9844
 N-N= 2.832867794719D+03 E-N=-1.137833619723D+04  KE= 2.373155096409D+03
 PrsmSu:  requested number of processors reduced to:   2 ShMem   1 Linda.
 PrsmSu:  requested number of processors reduced to:  10 ShMem   1 Linda.
   1 Symmetry operations used in ECPInt.
 ECPInt:  NShTT=   13203 NPrTT=   78401 LenC2=   11522 LenP2D=   44634.
 LDataN:  DoStor=T MaxTD1= 9 Len=  602
 Number of processors reduced to  14 by ecpmxn.
 Calling FoFJK, ICntrl=      2127 FMM=F ISym2X=0 I1Cent= 0 IOpClX= 0 NMat=1 NMatS=1 NMatT=0.
 CoulSu:  requested number of processors reduced to:  10 ShMem   1 Linda.
 Defaulting to unpruned grid for atomic number  40.
 Defaulting to unpruned grid for atomic number  40.
 Defaulting to unpruned grid for atomic number  40.
 Defaulting to unpruned grid for atomic number  40.
 Defaulting to unpruned grid for atomic number  40.
 Defaulting to unpruned grid for atomic number  40.
 Defaulting to unpruned grid for atomic number  40.
 Defaulting to unpruned grid for atomic number  40.
 Defaulting to unpruned grid for atomic number  40.
 Defaulting to unpruned grid for atomic number  40.
 Defaulting to unpruned grid for atomic number  40.
 Defaulting to unpruned grid for atomic number  40.
 Defaulting to unpruned grid for atomic number  40.
 Defaulting to unpruned grid for atomic number  40.
 Defaulting to unpruned grid for atomic number  40.
 Defaulting to unpruned grid for atomic number  40.
 ***** Axes restored to original set *****
 -------------------------------------------------------------------
 Center     Atomic                   Forces (Hartrees/Bohr)
 Number     Number              X              Y              Z
 -------------------------------------------------------------------
      1       40           0.000036607    0.000013704    0.000311258
      2        8          -0.000042762   -0.000003817   -0.000150830
      3        8           0.000041491    0.000057093   -0.000031333
      4        8           0.000021662   -0.000054513   -0.000059345
      5        8          -0.000016793   -0.000075250   -0.000107173
      6       14          -0.000034172    0.000034321    0.000029979
      7       14          -0.000019021   -0.000012457    0.000051511
      8       14           0.000030219    0.000043889    0.000100369
      9       14          -0.000004431    0.000134875   -0.000003118
     10        8           0.000010149   -0.000033555    0.000012370
     11        8          -0.000007793   -0.000097220   -0.000011286
     12        8          -0.000040090   -0.000016748   -0.000028942
     13        8          -0.000006722   -0.000027401   -0.000024746
     14        8          -0.000004204   -0.000006844   -0.000023167
     15        8          -0.000024221   -0.000018290   -0.000049238
     16        8           0.000010675   -0.000005797   -0.000019722
     17        8           0.000017195   -0.000011496   -0.000019946
     18        8           0.000002588   -0.000003935   -0.000004727
     19        8           0.000001151   -0.000000080   -0.000015730
     20        8           0.000017779    0.000002456   -0.000006781
     21        8          -0.000002112    0.000007448   -0.000033398
     22        1          -0.000000160    0.000001811    0.000004053
     23        1           0.000000862    0.000000532   -0.000002531
     24        1           0.000026799    0.000054004    0.000024784
     25        1          -0.000002650    0.000006037    0.000008973
     26        1           0.000003322    0.000006278    0.000005903
     27        1          -0.000004724    0.000003023    0.000009777
     28        1          -0.000003350    0.000001562    0.000004085
     29        1           0.000010276   -0.000001097    0.000013047
     30        1          -0.000000370    0.000001129    0.000004035
     31        1          -0.000001710   -0.000002884   -0.000003806
     32        1          -0.000015081   -0.000000025    0.000005343
     33        1          -0.000000407    0.000003248    0.000010331
 -------------------------------------------------------------------
 Cartesian Forces:  Max     0.000311258 RMS     0.000046984

 GradGradGradGradGradGradGradGradGradGradGradGradGradGradGradGradGradGrad
 Berny optimization.
 FormGI is forming the generalized inverse of G from B-inverse, IUseBI=4.
 Internal  Forces:  Max     0.000228836 RMS     0.000036876
 Search for a local minimum.
 Step number   1 out of a maximum of  148
 All quantities printed in internal units (Hartrees-Bohrs-Radians)
 Mixed Optimization -- En-DIIS/RFO-DIIS
 Second derivative matrix not updated -- first step.
 ITU=  0
     Eigenvalues ---    0.00230   0.00230   0.00230   0.03240   0.03358
     Eigenvalues ---    0.03498   0.03580   0.03665   0.03665   0.03680
     Eigenvalues ---    0.03686   0.03693   0.03739   0.03789   0.03792
     Eigenvalues ---    0.03816   0.03834   0.03850   0.05521   0.09402
     Eigenvalues ---    0.09687   0.11077   0.11224   0.11833   0.11884
     Eigenvalues ---    0.11890   0.12177   0.12239   0.12299   0.12782
     Eigenvalues ---    0.12895   0.13099   0.13313   0.16000   0.16000
     Eigenvalues ---    0.16000   0.16000   0.16000   0.16000   0.16000
     Eigenvalues ---    0.16000   0.16000   0.16000   0.16000   0.16000
     Eigenvalues ---    0.19173   0.19314   0.19332   0.20013   0.20203
     Eigenvalues ---    0.20204   0.20208   0.20515   0.20653   0.20795
     Eigenvalues ---    0.20989   0.21175   0.21186   0.21227   0.25000
     Eigenvalues ---    0.25000   0.25000   0.38002   0.39187   0.40659
     Eigenvalues ---    0.41548   0.42502   0.42508   0.42670   0.42743
     Eigenvalues ---    0.42824   0.43363   0.43951   0.43980   0.44273
     Eigenvalues ---    0.44485   0.44689   0.44769   0.50655   0.51353
     Eigenvalues ---    0.52036   0.52548   0.54334   0.54624   0.54642
     Eigenvalues ---    0.54649   0.54689   0.54690   0.54712   0.54765
     Eigenvalues --- 1000.000001000.000001000.000001000.000001000.00000
     Eigenvalues --- 1000.000001000.000001000.000001000.000001000.00000
     Eigenvalues --- 1000.000001000.000001000.000001000.000001000.00000
     Eigenvalues --- 1000.000001000.000001000.000001000.000001000.00000
     Eigenvalues --- 1000.000001000.000001000.000001000.000001000.00000
     Eigenvalues --- 1000.000001000.000001000.000001000.000001000.00000
     Eigenvalues --- 1000.000001000.000001000.000001000.000001000.00000
     Eigenvalues --- 1000.000001000.000001000.000001000.000001000.00000
     Eigenvalues --- 1000.000001000.000001000.000001000.000001000.00000
     Eigenvalues --- 1000.000001000.000001000.00000
 RFO step:  Lambda=-1.26357190D-06 EMin= 2.30000000D-03
 Linear search not attempted -- first point.
 Iteration  1 RMS(Cart)=  0.00263178 RMS(Int)=  0.00000113
 Iteration  2 RMS(Cart)=  0.00000212 RMS(Int)=  0.00000014
 Iteration  3 RMS(Cart)=  0.00000000 RMS(Int)=  0.00000014
 Iteration  1 RMS(Cart)=  0.00000008 RMS(Int)=  0.00000001
 Variable       Old X    -DE/DX   Delta X   Delta X   Delta X     New X
                                 (Linear)    (Quad)   (Total)
    R1        3.67647  -0.00007   0.00000  -0.00035  -0.00035   3.67611
    R2        3.69189   0.00004   0.00000   0.00020   0.00020   3.69209
    R3        3.73835   0.00007   0.00000   0.00034   0.00034   3.73869
    R4        3.70232  -0.00003   0.00000  -0.00013  -0.00013   3.70219
    R5        3.11688   0.00001   0.00000   0.00003   0.00003   3.11691
    R6        3.09579   0.00000   0.00000   0.00000   0.00000   3.09579
    R7        3.10213   0.00002   0.00000   0.00004   0.00004   3.10217
    R8        3.09245  -0.00001   0.00000  -0.00002  -0.00002   3.09243
    R9        3.11587   0.00002   0.00000   0.00004   0.00004   3.11591
   R10        3.11989  -0.00002   0.00000  -0.00005  -0.00005   3.11984
   R11        3.14367   0.00000   0.00000   0.00001   0.00001   3.14368
   R12        3.18062   0.00001   0.00000   0.00003   0.00003   3.18065
   R13        3.10924   0.00001   0.00000   0.00002   0.00002   3.10926
   R14        3.09339  -0.00002   0.00000  -0.00005  -0.00005   3.09334
   R15        3.10179   0.00003   0.00000   0.00006   0.00006   3.10185
   R16        3.16373   0.00001   0.00000   0.00001   0.00001   3.16375
   R17        3.09830  -0.00005   0.00000  -0.00010  -0.00010   3.09820
   R18        3.11981  -0.00001   0.00000  -0.00002  -0.00002   3.11979
   R19        3.13203   0.00005   0.00000   0.00011   0.00011   3.13214
   R20        3.11779  -0.00003   0.00000  -0.00007  -0.00007   3.11772
   R21        1.82152  -0.00000   0.00000  -0.00000  -0.00000   1.82152
   R22        1.82108  -0.00002   0.00000  -0.00004  -0.00004   1.82105
   R23        1.82089   0.00000   0.00000   0.00000   0.00000   1.82089
   R24        1.84078  -0.00001   0.00000  -0.00002  -0.00002   1.84076
   R25        1.84565  -0.00001   0.00000  -0.00002  -0.00002   1.84563
   R26        1.82041  -0.00000   0.00000  -0.00000  -0.00000   1.82041
   R27        1.82109  -0.00001   0.00000  -0.00003  -0.00003   1.82107
   R28        1.85910  -0.00000   0.00000  -0.00000  -0.00000   1.85910
   R29        1.82145   0.00001   0.00000   0.00001   0.00001   1.82146
   R30        1.82428  -0.00000   0.00000  -0.00000  -0.00000   1.82428
   R31        1.82168   0.00000   0.00000   0.00001   0.00001   1.82168
   R32        1.85224   0.00000   0.00000   0.00000   0.00000   1.85224
    A1        1.85172   0.00003   0.00000   0.00083   0.00083   1.85255
    A2        1.80155  -0.00008   0.00000  -0.00039  -0.00039   1.80117
    A3        1.96889   0.00015   0.00000   0.00127   0.00127   1.97016
    A4        1.83430   0.00005   0.00000  -0.00041  -0.00041   1.83389
    A5        2.01802  -0.00009   0.00000  -0.00042  -0.00042   2.01760
    A6        1.97057  -0.00007   0.00000  -0.00089  -0.00089   1.96968
    A7        2.46524   0.00004   0.00000   0.00017   0.00017   2.46541
    A8        2.58826  -0.00001   0.00000  -0.00005  -0.00005   2.58820
    A9        2.35483  -0.00003   0.00000  -0.00011  -0.00011   2.35472
   A10        2.86714  -0.00023   0.00000   0.00000  -0.00000   2.86714
   A11        1.91978   0.00001   0.00000   0.00003   0.00003   1.91980
   A12        1.91546  -0.00000   0.00000  -0.00001  -0.00001   1.91545
   A13        1.95201  -0.00000   0.00000  -0.00001  -0.00001   1.95200
   A14        2.00708   0.00000   0.00000   0.00002   0.00002   2.00710
   A15        1.88610  -0.00001   0.00000  -0.00007  -0.00007   1.88603
[...]
 Alpha virt. eigenvalues --    3.47813   3.48616   3.48643   3.51073   3.51111
 Alpha virt. eigenvalues --    3.52827   3.53922   3.60302   3.61071   3.62068
 Alpha virt. eigenvalues --    3.66195   4.34811   4.60399   7.91741  31.29343
          Condensed to atoms (all electrons):
               1          2          3          4          5          6
     1  Zr  15.068370  -0.107861  -0.000934  -0.126535  -0.188249  -0.621714
     2  O   -0.107861   9.053658   0.019380  -0.042459  -0.057284   0.084517
     3  O   -0.000934   0.019380   8.826893   0.016915  -0.045487  -0.002888
     4  O   -0.126535  -0.042459   0.016915   8.809277  -0.061134  -0.677874
     5  O   -0.188249  -0.057284  -0.045487  -0.061134   9.413234  -0.008354
     6  Si  -0.621714   0.084517  -0.002888  -0.677874  -0.008354  14.016476
     7  Si  -0.609089  -0.028779  -0.873225  -0.008626  -0.034369   0.083534
     8  Si  -0.618307  -0.995476  -0.019350   0.069360  -0.014966  -0.006631
     9  Si  -0.311456  -0.039253  -0.026476  -0.031808  -1.195931   0.039110
    10  O   -0.018572   0.001032  -0.001840   0.000740   0.127273  -0.002162
    11  O   -0.068025   0.003072   0.003023   0.001324   0.307879  -0.000679
    12  O    0.046477   0.000047   0.004570   0.001976   0.141924  -0.003153
    13  O   -0.026744   0.183398   0.001590  -0.015389  -0.000679   0.032976
    14  O   -0.010569   0.260598  -0.018018  -0.008721   0.001768   0.027233
    15  O   -0.085990   0.293098  -0.000627   0.001220   0.000600   0.000688
    16  O   -0.122762   0.004719  -0.000530   0.345485   0.003268  -0.426224
    17  O   -0.080734  -0.039560   0.008598   0.215705   0.001379  -0.450651
    18  O   -0.025791  -0.014728   0.003745   0.197582  -0.000638  -0.451426
    19  O    0.004055   0.008743   0.266544   0.010495   0.002155  -0.008215
    20  O   -0.145892  -0.000582   0.163575  -0.000823   0.001529   0.009155
    21  O    0.037101   0.009875   0.145150   0.003504   0.000174  -0.012163
    22  H   -0.009002  -0.000015  -0.000007  -0.000008   0.005957   0.000088
    23  H   -0.007686  -0.000012  -0.000005  -0.000053  -0.025228   0.000098
    24  H   -0.005320  -0.000162  -0.000012   0.000006  -0.005528   0.000094
    25  H    0.016176  -0.019802  -0.000109  -0.000373   0.000018   0.002989
    26  H    0.007191   0.000720   0.000014  -0.000011  -0.000004  -0.000162
    27  H    0.002411  -0.018925   0.000833  -0.001724   0.000012   0.009454
    28  H    0.005018  -0.000011  -0.018334  -0.000014  -0.000015  -0.000280
    29  H    0.003653  -0.007014  -0.020208  -0.000140  -0.000073   0.000182
    30  H    0.000661  -0.000011   0.000001  -0.000459  -0.000009  -0.000625
    31  H   -0.000079   0.000179  -0.000020  -0.018466  -0.000011   0.063829
    32  H    0.002170  -0.000025   0.000041   0.010434   0.000001   0.022641
    33  H   -0.015636   0.001019  -0.010129  -0.009595  -0.000101   0.052981
               7          8          9         10         11         12
     1  Zr  -0.609089  -0.618307  -0.311456  -0.018572  -0.068025   0.046477
     2  O   -0.028779  -0.995476  -0.039253   0.001032   0.003072   0.000047
     3  O   -0.873225  -0.019350  -0.026476  -0.001840   0.003023   0.004570
     4  O   -0.008626   0.069360  -0.031808   0.000740   0.001324   0.001976
     5  O   -0.034369  -0.014966  -1.195931   0.127273   0.307879   0.141924
     6  Si   0.083534  -0.006631   0.039110  -0.002162  -0.000679  -0.003153
     7  Si  13.791088   0.182356   0.018971  -0.000133  -0.000975   0.003682
     8  Si   0.182356  13.820319   0.027166  -0.001091   0.001248  -0.001205
     9  Si   0.018971   0.027166  14.170849  -0.059831  -0.166910  -0.194404
    10  O   -0.000133  -0.001091  -0.059831   8.522892   0.014746   0.029815
    11  O   -0.000975   0.001248  -0.166910   0.014746   8.512541  -0.052306
    12  O    0.003682  -0.001205  -0.194404   0.029815  -0.052306   8.597716
    13  O    0.007017  -0.096541   0.000134   0.000000   0.000018   0.000006
    14  O    0.008867  -0.366342  -0.001537  -0.000002   0.000002   0.000015
    15  O   -0.002296  -0.304826  -0.000556  -0.000000  -0.000022  -0.000011
    16  O    0.003739  -0.010761  -0.001057   0.000005  -0.000004  -0.000001
    17  O   -0.001018   0.096599   0.002523  -0.000000   0.000003  -0.000006
    18  O   -0.000856   0.075878   0.004069  -0.000001   0.000001  -0.000001
    19  O   -0.412210  -0.016302   0.001023   0.000007  -0.000002  -0.000029
    20  O   -0.109240   0.009631   0.003082   0.000006  -0.000003  -0.000035
    21  O    0.025639  -0.039952  -0.001675   0.000000   0.000001   0.000019
    22  H   -0.000151   0.000095   0.047037  -0.006396  -0.005059   0.219567
    23  H    0.000057   0.000060   0.080944   0.228781  -0.006043   0.005814
    24  H    0.000047  -0.000052   0.037137   0.007441   0.242870  -0.007459
    25  H   -0.000441   0.057365  -0.000206   0.000000  -0.000000  -0.000000
    26  H   -0.000386   0.046231  -0.000044  -0.000000   0.000000  -0.000000
    27  H    0.001554   0.068670   0.000001   0.000000  -0.000000  -0.000000
    28  H    0.056590  -0.000050  -0.000140  -0.000000  -0.000000  -0.000003
    29  H    0.048208   0.022116  -0.000059   0.000000   0.000000  -0.000001
    30  H    0.040471   0.000118   0.000020  -0.000000   0.000000   0.000000
    31  H    0.000153  -0.002038  -0.000051   0.000000  -0.000000   0.000000
    32  H   -0.000666   0.000058   0.000015  -0.000000   0.000000  -0.000000
    33  H    0.020590   0.000035   0.000077  -0.000000   0.000000   0.000000
              13         14         15         16         17         18
     1  Zr  -0.026744  -0.010569  -0.085990  -0.122762  -0.080734  -0.025791
     2  O    0.183398   0.260598   0.293098   0.004719  -0.039560  -0.014728
     3  O    0.001590  -0.018018  -0.000627  -0.000530   0.008598   0.003745
     4  O   -0.015389  -0.008721   0.001220   0.345485   0.215705   0.197582
     5  O   -0.000679   0.001768   0.000600   0.003268   0.001379  -0.000638
     6  Si   0.032976   0.027233   0.000688  -0.426224  -0.450651  -0.451426
     7  Si   0.007017   0.008867  -0.002296   0.003739  -0.001018  -0.000856
     8  Si  -0.096541  -0.366342  -0.304826  -0.010761   0.096599   0.075878
     9  Si   0.000134  -0.001537  -0.000556  -0.001057   0.002523   0.004069
    10  O    0.000000  -0.000002  -0.000000   0.000005  -0.000000  -0.000001
    11  O    0.000018   0.000002  -0.000022  -0.000004   0.000003   0.000001
    12  O    0.000006   0.000015  -0.000011  -0.000001  -0.000006  -0.000001
    13  O    8.626519   0.086660  -0.090731   0.003749  -0.030909  -0.045777
    14  O    0.086660   8.671682   0.055814   0.003659  -0.035829  -0.026903
    15  O   -0.090731   0.055814   8.778823  -0.000175   0.003618   0.001686
    16  O    0.003749   0.003659  -0.000175   8.902115  -0.092030  -0.114427
    17  O   -0.030909  -0.035829   0.003618  -0.092030   8.935077   0.227423
    18  O   -0.045777  -0.026903   0.001686  -0.114427   0.227423   9.012179
    19  O    0.000165  -0.000616   0.000143  -0.001485  -0.029877   0.000147
    20  O    0.000008  -0.000262   0.000037   0.000066  -0.000966   0.000015
    21  O   -0.000254   0.015787  -0.000634  -0.000214  -0.005605   0.000482
    22  H   -0.000000  -0.000000   0.000000   0.000000   0.000000  -0.000000
    23  H    0.000000   0.000000  -0.000000  -0.000000   0.000000  -0.000000
    24  H   -0.000000   0.000000   0.000002   0.000000  -0.000000  -0.000000
    25  H    0.218640  -0.011908   0.008910  -0.000058   0.000630   0.015002
    26  H   -0.005078  -0.010118   0.216824   0.000000  -0.000003   0.000006
    27  H   -0.009630   0.219664   0.004637   0.000181   0.017956  -0.000240
    28  H    0.000000  -0.000006  -0.000001  -0.000000   0.000004  -0.000000
    29  H    0.000803   0.017581  -0.002580  -0.000004  -0.000397   0.000006
    30  H    0.000001   0.000004   0.000000   0.000113  -0.000410  -0.000007
    31  H    0.002363   0.000169  -0.000019   0.003716  -0.000739   0.218136
    32  H   -0.000008  -0.000006   0.000000   0.233532  -0.003650   0.003900
    33  H    0.000229   0.002106  -0.000035  -0.000076   0.231044   0.002099
              19         20         21         22         23         24
     1  Zr   0.004055  -0.145892   0.037101  -0.009002  -0.007686  -0.005320
     2  O    0.008743  -0.000582   0.009875  -0.000015  -0.000012  -0.000162
     3  O    0.266544   0.163575   0.145150  -0.000007  -0.000005  -0.000012
     4  O    0.010495  -0.000823   0.003504  -0.000008  -0.000053   0.000006
     5  O    0.002155   0.001529   0.000174   0.005957  -0.025228  -0.005528
     6  Si  -0.008215   0.009155  -0.012163   0.000088   0.000098   0.000094
     7  Si  -0.412210  -0.109240   0.025639  -0.000151   0.000057   0.000047
     8  Si  -0.016302   0.009631  -0.039952   0.000095   0.000060  -0.000052
     9  Si   0.001023   0.003082  -0.001675   0.047037   0.080944   0.037137
    10  O    0.000007   0.000006   0.000000  -0.006396   0.228781   0.007441
    11  O   -0.000002  -0.000003   0.000001  -0.005059  -0.006043   0.242870
    12  O   -0.000029  -0.000035   0.000019   0.219567   0.005814  -0.007459
    13  O    0.000165   0.000008  -0.000254  -0.000000   0.000000  -0.000000
    14  O   -0.000616  -0.000262   0.015787  -0.000000   0.000000   0.000000
    15  O    0.000143   0.000037  -0.000634   0.000000  -0.000000   0.000002
    16  O   -0.001485   0.000066  -0.000214   0.000000  -0.000000   0.000000
    17  O   -0.029877  -0.000966  -0.005605   0.000000   0.000000  -0.000000
    18  O    0.000147   0.000015   0.000482  -0.000000  -0.000000  -0.000000
    19  O    8.873676   0.031875   0.023028  -0.000000   0.000000  -0.000000
    20  O    0.031875   8.658033  -0.050208   0.000000   0.000000  -0.000000
    21  O    0.023028  -0.050208   8.485061  -0.000000   0.000000   0.000000
    22  H   -0.000000   0.000000  -0.000000   0.361852   0.000058   0.000129
    23  H    0.000000   0.000000   0.000000   0.000058   0.350883   0.000013
    24  H   -0.000000  -0.000000   0.000000   0.000129   0.000013   0.365329
    25  H   -0.000023   0.000000  -0.000019   0.000000   0.000000   0.000000
    26  H    0.000001  -0.000000   0.000040  -0.000000  -0.000000  -0.000000
    27  H    0.000039   0.000192  -0.003997  -0.000000  -0.000000   0.000000
    28  H    0.004613   0.229521  -0.002027  -0.000000   0.000000   0.000000
    29  H   -0.008563   0.007668   0.206467   0.000000   0.000000  -0.000000
    30  H    0.224084  -0.001488  -0.007161   0.000000   0.000000  -0.000000
    31  H    0.000004  -0.000000  -0.000000  -0.000000  -0.000000   0.000000
    32  H    0.000096  -0.000000   0.000001  -0.000000  -0.000000  -0.000000
    33  H    0.014805  -0.000079   0.001491  -0.000000  -0.000000  -0.000000
              25         26         27         28         29         30
     1  Zr   0.016176   0.007191   0.002411   0.005018   0.003653   0.000661
     2  O   -0.019802   0.000720  -0.018925  -0.000011  -0.007014  -0.000011
     3  O   -0.000109   0.000014   0.000833  -0.018334  -0.020208   0.000001
     4  O   -0.000373  -0.000011  -0.001724  -0.000014  -0.000140  -0.000459
     5  O    0.000018  -0.000004   0.000012  -0.000015  -0.000073  -0.000009
     6  Si   0.002989  -0.000162   0.009454  -0.000280   0.000182  -0.000625
     7  Si  -0.000441  -0.000386   0.001554   0.056590   0.048208   0.040471
     8  Si   0.057365   0.046231   0.068670  -0.000050   0.022116   0.000118
     9  Si  -0.000206  -0.000044   0.000001  -0.000140  -0.000059   0.000020
    10  O    0.000000  -0.000000   0.000000  -0.000000   0.000000  -0.000000
    11  O   -0.000000   0.000000  -0.000000  -0.000000   0.000000   0.000000
    12  O   -0.000000  -0.000000  -0.000000  -0.000003  -0.000001   0.000000
    13  O    0.218640  -0.005078  -0.009630   0.000000   0.000803   0.000001
    14  O   -0.011908  -0.010118   0.219664  -0.000006   0.017581   0.000004
    15  O    0.008910   0.216824   0.004637  -0.000001  -0.002580   0.000000
    16  O   -0.000058   0.000000   0.000181  -0.000000  -0.000004   0.000113
    17  O    0.000630  -0.000003   0.017956   0.000004  -0.000397  -0.000410
    18  O    0.015002   0.000006  -0.000240  -0.000000   0.000006  -0.000007
    19  O   -0.000023   0.000001   0.000039   0.004613  -0.008563   0.224084
    20  O    0.000000  -0.000000   0.000192   0.229521   0.007668  -0.001488
    21  O   -0.000019   0.000040  -0.003997  -0.002027   0.206467  -0.007161
    22  H    0.000000  -0.000000  -0.000000  -0.000000   0.000000   0.000000
    23  H    0.000000  -0.000000  -0.000000   0.000000   0.000000   0.000000
    24  H    0.000000  -0.000000   0.000000   0.000000  -0.000000  -0.000000
    25  H    0.298865  -0.000012   0.000110   0.000000   0.000001   0.000000
    26  H   -0.000012   0.366067   0.000035   0.000000   0.000021  -0.000000
    27  H    0.000110   0.000035   0.283309  -0.000000  -0.001500   0.000009
    28  H    0.000000   0.000000  -0.000000   0.349164  -0.000016  -0.000016
    29  H    0.000001   0.000021  -0.001500  -0.000016   0.285891   0.000156
    30  H    0.000000  -0.000000   0.000009  -0.000016   0.000156   0.334398
    31  H   -0.000498   0.000000   0.000013  -0.000000   0.000000  -0.000000
    32  H   -0.000001   0.000000  -0.000000   0.000000  -0.000000  -0.000000
    33  H    0.000005  -0.000000  -0.002408  -0.000002   0.000099  -0.001169
              31         32         33
     1  Zr  -0.000079   0.002170  -0.015636
     2  O    0.000179  -0.000025   0.001019
     3  O   -0.000020   0.000041  -0.010129
     4  O   -0.018466   0.010434  -0.009595
     5  O   -0.000011   0.000001  -0.000101
     6  Si   0.063829   0.022641   0.052981
     7  Si   0.000153  -0.000666   0.020590
     8  Si  -0.002038   0.000058   0.000035
     9  Si  -0.000051   0.000015   0.000077
    10  O    0.000000  -0.000000  -0.000000
    11  O   -0.000000   0.000000   0.000000
    12  O    0.000000  -0.000000   0.000000
    13  O    0.002363  -0.000008   0.000229
    14  O    0.000169  -0.000006   0.002106
    15  O   -0.000019   0.000000  -0.000035
    16  O    0.003716   0.233532  -0.000076
    17  O   -0.000739  -0.003650   0.231044
    18  O    0.218136   0.003900   0.002099
    19  O    0.000004   0.000096   0.014805
    20  O   -0.000000  -0.000000  -0.000079
    21  O   -0.000000   0.000001   0.001491
    22  H   -0.000000  -0.000000  -0.000000
    23  H   -0.000000  -0.000000  -0.000000
    24  H    0.000000  -0.000000  -0.000000
    25  H   -0.000498  -0.000001   0.000005
    26  H    0.000000   0.000000  -0.000000
    27  H    0.000013  -0.000000  -0.002408
    28  H   -0.000000   0.000000  -0.000002
    29  H    0.000000  -0.000000   0.000099
    30  H   -0.000000  -0.000000  -0.001169
    31  H    0.331446   0.000001  -0.000038
    32  H    0.000001   0.350064   0.000157
    33  H   -0.000038   0.000157   0.269263
 Mulliken charges:
               1
     1  Zr   0.013664
     2  O   -0.552097
     3  O   -0.422675
     4  O   -0.679811
     5  O   -0.369112
     6  Si   2.227153
     7  Si   1.789898
     8  Si   2.016585
     9  Si   1.599237
    10  O   -0.842711
    11  O   -0.786702
    12  O   -0.793011
    13  O   -0.842540
    14  O   -0.880770
    15  O   -0.877597
    16  O   -0.734542
    17  O   -0.968177
    18  O   -1.081561
    19  O   -0.988375
    20  O   -0.804816
    21  O   -0.829912
    22  H    0.385855
    23  H    0.372319
    24  H    0.365467
    25  H    0.414738
    26  H    0.378667
    27  H    0.429342
    28  H    0.376004
    29  H    0.447704
    30  H    0.411318
    31  H    0.401948
    32  H    0.381242
    33  H    0.443268
 Sum of Mulliken charges =  -0.00000
 Mulliken charges with hydrogens summed into heavy atoms:
               1
     1  Zr   0.013664
     2  O   -0.552097
     3  O   -0.422675
     4  O   -0.679811
     5  O   -0.369112
     6  Si   2.227153
     7  Si   1.789898
     8  Si   2.016585
     9  Si   1.599237
    10  O   -0.470392
    11  O   -0.421234
    12  O   -0.407156
    13  O   -0.427802
    14  O   -0.451428
    15  O   -0.498930
    16  O   -0.353300
    17  O   -0.524909
    18  O   -0.679613
    19  O   -0.577057
    20  O   -0.428812
    21  O   -0.382208
 Electronic spatial extent (au):  <R**2>=           9868.1272
 Charge=              0.0000 electrons
 Dipole moment (field-independent basis, Debye):
    X=              1.0743    Y=             -0.8077    Z=             -2.4840  Tot=              2.8243
 Quadrupole moment (field-independent basis, Debye-Ang):
   XX=           -160.0267   YY=           -154.7918   ZZ=           -157.6402
   XY=             -5.1069   XZ=              2.1618   YZ=              5.6840
 Traceless Quadrupole moment (field-independent basis, Debye-Ang):
   XX=             -2.5405   YY=              2.6945   ZZ=             -0.1539
   XY=             -5.1069   XZ=              2.1618   YZ=              5.6840
 Octapole moment (field-independent basis, Debye-Ang**2):
  XXX=             75.4215  YYY=              5.8943  ZZZ=            -22.0702  XYY=             -3.9983
  XXY=             19.8301  XXZ=             19.9702  XZZ=              6.9780  YZZ=            -16.7799
  YYZ=            -13.0761  XYZ=             27.6111
 Hexadecapole moment (field-independent basis, Debye-Ang**3):
 XXXX=          -6025.7124 YYYY=          -2833.3783 ZZZZ=          -2255.7481 XXXY=             50.5334
 XXXZ=             -8.3928 YYYX=              0.7444 YYYZ=            214.7319 ZZZX=           -198.7141
 ZZZY=            -52.5396 XXYY=          -1495.3014 XXZZ=          -1348.1408 YYZZ=           -927.6954
 XXYZ=             -9.4831 YYXZ=            141.8385 ZZXY=            -55.1774
 N-N= 2.832852693760D+03 E-N=-1.137831100805D+04  KE= 2.373155034212D+03
 1\1\GINC-GRA327\FOpt\RB3LYP\Gen\H12O16Si4Zr1\SARASHS\14-Aug-2020\0\\#n
  B3LYP/Gen Pseudo=cards EmpiricalDispersion=GD3 Opt=modredundant\\Titl
 e\\0,1\Zr,0.6573429233,-0.1270192333,-0.0677451658\O,-0.2263146331,-0.
 9088038014,1.4791413918\O,0.1046474823,1.746175286,-0.121830696\O,-0.2
 671895396,-0.9804580053,-1.594411418\O,2.5916044076,-0.4372690606,-0.0
 825036006\Si,-1.8299858613,-1.3323103463,-1.9531065874\Si,-1.113463239
 7,2.8408921753,-0.0813581701\Si,-1.7279684447,-1.1542742974,2.11563197
 51\Si,4.2143053001,-0.2729423872,0.0502790993\O,4.9723811712,0.0229684
 252,-1.3860310299\O,4.8894780511,-1.6768351699,0.6164168944\O,4.432742
 9307,1.0311385832,1.0371016942\O,-2.324293326,-2.6247743458,1.69567535
 27\O,-2.7268542483,0.0646469935,1.5504436174\O,-1.6033439453,-1.021199
 0957,3.7449366437\O,-1.9983570106,-1.5591411445,-3.5776005433\O,-2.823
 6292982,-0.1858328103,-1.3019935014\O,-2.3456714983,-2.7140348467,-1.1
 834593641\O,-2.0374030541,2.4402696056,-1.4299737468\O,-0.6323931784,4
 .399608076,-0.2963002061\O,-1.964920505,2.759383557,1.3142933202\H,5.3
 197681983,1.4057303888,1.0737979863\H,5.3275417549,-0.7490386517,-1.84
 09702063\H,4.4545149777,-2.1090381498,1.3598299037\H,-2.4093154746,-2.
 8099397269,0.7431231042\H,-2.3883490809,-1.2241436059,4.2650846818\H,-
 3.0619332171,-0.0828852386,0.6450027934\H,-0.5261976646,4.9257914883,0
 .5044114426\H,-2.2693332257,1.8679386714,1.585249592\H,-2.645380942,3.
 1277256723,-1.7294796879\H,-2.305633408,-3.5289840831,-1.6966073135\H,
 -1.2677751275,-1.2616891318,-4.1311618666\H,-2.6080812741,0.7554342093
 ,-1.490126389\\Version=ES64L-G16RevB.01\State=1-A\HF=-2416.946849\RMSD
 =2.604e-09\RMSF=1.791e-05\Dipole=0.429992,-0.3198188,-0.9734238\Quadru
 pole=-1.9345913,2.0307063,-0.0961149,-3.8204321,1.6065228,4.1881064\PG
 =C01 [X(H12O16Si4Zr1)]\\@


 THE FIRST AND LAST THING REQUIRED OF GENIUS IS THE LOVE OF TRUTH.

                          -- GOETHE
 Job cpu time:       0 days 12 hours 13 minutes 50.3 seconds.
 Elapsed time:       0 days  0 hours 55 minutes 22.6 seconds.
 File lengths (MBytes):  RWF=    167 Int=      0 D2E=      0 Chk=     21 Scr=      1
 Normal termination of Gaussian 16 at Fri Aug 14 03:49:13 2020.
