 Entering Gaussian System, Link 0=g16
 Initial command:
 /opt/software/gaussian/g16.b01/l1.exe "/localscratch/sarashs.37242622.0/Gau-27660.inp" -scrdir="/localscratch/sarashs.37242622.0/"
 Entering Link 1 = /opt/software/gaussian/g16.b01/l1.exe PID=     27661.
  
 Copyright (c) 1988-2017, Gaussian, Inc.  All Rights Reserved.
  
 This is part of the Gaussian(R) 16 program.  It is based on
 the Gaussian(R) 09 system (copyright 2009, Gaussian, Inc.),
 the Gaussian(R) 03 system (copyright 2003, Gaussian, Inc.),
 the Gaussian(R) 98 system (copyright 1998, Gaussian, Inc.),
 the Gaussian(R) 94 system (copyright 1995, Gaussian, Inc.),
 the Gaussian 92(TM) system (copyright 1992, Gaussian, Inc.),
 the Gaussian 90(TM) system (copyright 1990, Gaussian, Inc.),
 the Gaussian 88(TM) system (copyright 1988, Gaussian, Inc.),
 the Gaussian 86(TM) system (copyright 1986, Carnegie Mellon
 University), and the Gaussian 82(TM) system (copyright 1983,
 Carnegie Mellon University). Gaussian is a federally registered
 trademark of Gaussian, Inc.
  
 This software contains proprietary and confidential information,
 including trade secrets, belonging to Gaussian, Inc.
  
 This software is provided under written license and may be
 used, copied, transmitted, or stored only in accord with that
 written license.
  
 The following legend is applicable only to US Government
 contracts under FAR:
  
                    RESTRICTED RIGHTS LEGEND
  
 Use, reproduction and disclosure by the US Government is
 subject to restrictions as set forth in subparagraphs (a)
 and (c) of the Commercial Computer Software - Restricted
 Rights clause in FAR 52.227-19.
  
 Gaussian, Inc.
 340 Quinnipiac St., Bldg. 40, Wallingford CT 06492
  
  
 ---------------------------------------------------------------
 Warning -- This program may not be used in any manner that
 competes with the business of Gaussian, Inc. or will provide
 assistance to any competitor of Gaussian, Inc.  The licensee
 of this program is prohibited from giving any competitor of
 Gaussian, Inc. access to this program.  By using this program,
 the user acknowledges that Gaussian, Inc. is engaged in the
 business of creating and licensing software in the field of
 computational chemistry and represents and warrants to the
 licensee that it is not a competitor of Gaussian, Inc. and that
 it will not use this program in any manner prohibited above.
 ---------------------------------------------------------------
  

 Cite this work as:
 Gaussian 16, Revision B.01,
 M. J. Frisch, G. W. Trucks, H. B. Schlegel, G. E. Scuseria, 
 M. A. Robb, J. R. Cheeseman, G. Scalmani, V. Barone, 
 G. A. Petersson, H. Nakatsuji, X. Li, M. Caricato, A. V. Marenich, 
 J. Bloino, B. G. Janesko, R. Gomperts, B. Mennucci, H. P. Hratchian, 
 J. V. Ortiz, A. F. Izmaylov, J. L. Sonnenberg, D. Williams-Young, 
 F. Ding, F. Lipparini, F. Egidi, J. Goings, B. Peng, A. Petrone, 
 T. Henderson, D. Ranasinghe, V. G. Zakrzewski, J. Gao, N. Rega, 
 G. Zheng, W. Liang, M. Hada, M. Ehara, K. Toyota, R. Fukuda, 
 J. Hasegawa, M. Ishida, T. Nakajima, Y. Honda, O. Kitao, H. Nakai, 
 T. Vreven, K. Throssell, J. A. Montgomery, Jr., J. E. Peralta, 
 F. Ogliaro, M. J. Bearpark, J. J. Heyd, E. N. Brothers, K. N. Kudin, 
 V. N. Staroverov, T. A. Keith, R. Kobayashi, J. Normand, 
 K. Raghavachari, A. P. Rendell, J. C. Burant, S. S. Iyengar, 
 J. Tomasi, M. Cossi, J. M. Millam, M. Klene, C. Adamo, R. Cammi, 
 J. W. Ochterski, R. L. Martin, K. Morokuma, O. Farkas, 
 J. B. Foresman, and D. J. Fox, Gaussian, Inc., Wallingford CT, 2016.
 
 ******************************************
 Gaussian 16:  ES64L-G16RevB.01 20-Dec-2017
                14-Aug-2020 
 ******************************************
 %NProcShared=16
 Will use up to   16 processors via shared memory.
 ------------------------------------------------------------------
 #n B3LYP/Gen Pseudo=cards EmpiricalDispersion=GD3 Opt=modredundant
 ------------------------------------------------------------------
 1/18=120,19=15,26=3,38=1/1,3;
 2/9=110,12=2,17=6,18=5,40=1/2;
 3/5=7,11=2,16=1,17=8,25=1,30=1,71=1,74=-5,124=31/1,2,3;
 4//1;
 5/5=2,38=5/2;
 6/7=2,8=2,9=2,10=2,28=1/1;
 7//1,2,3,16;
 1/18=20,19=15,26=3/3(2);
 2/9=110/2;
 99//99;
 2/9=110/2;
 3/5=7,6=1,11=2,16=1,17=8,25=1,30=1,71=1,74=-5,82=7,124=31/1,2,3;
 4/5=5,16=3,69=1/1;
 5/5=2,38=5/2;
 7//1,2,3,16;
 1/18=20,19=15,26=3/3(-5);
 2/9=110/2;
 6/7=2,8=2,9=2,10=2,19=2,28=1/1;
 99/9=1/99;
 -----
 Title
 -----
 Symbolic Z-matrix:
 Charge =  0 Multiplicity = 1
 Zr                    0.65779  -0.12506  -0.07164 
 O                    -0.22285  -0.90624   1.4773 
 O                     0.10302   1.74748  -0.12299 
 O                    -0.2683   -0.97885  -1.59705 
 O                     2.59206  -0.4363   -0.08284 
 Si                   -1.83119  -1.33244  -1.9536 
 Si                   -1.1155    2.84172  -0.08279 
 Si                   -1.72376  -1.15291   2.11517 
 Si                    4.21664  -0.25859   0.00167 
 O                     4.95011  -0.13361  -1.47209 
 O                     4.90209  -1.58712   0.71732 
 O                     4.45126   1.15275   0.82333 
 O                    -2.31924  -2.624     1.69627 
 O                    -2.72422   0.06508   1.55086 
 O                    -1.59734  -1.01957   3.74439 
 O                    -2.00144  -1.55965  -3.57782 
 O                    -2.82509  -0.18676  -1.30145 
 O                    -2.34448  -2.71439  -1.18277 
 O                    -2.04046   2.43957  -1.43023 
 O                    -0.63565   4.40049  -0.29987 
 O                    -1.96551   2.76086   1.31383 
 H                     5.33837   1.52816   0.79928 
 H                     5.29726  -0.95429  -1.83962 
 H                     4.47022  -1.93872   1.50378 
 H                    -2.40577  -2.80951   0.74392 
 H                    -2.38137  -1.22423   4.26535 
 H                    -3.06034  -0.08306   0.64589 
 H                    -0.52731   4.92728   0.50015 
 H                    -2.26909   1.86932   1.58533 
 H                    -2.64854   3.12676  -1.73014 
 H                    -2.30452  -3.52952  -1.69562 
 H                    -1.27114  -1.26305  -4.13223 
 H                    -2.61026   0.75461  -1.48993 
 
 The following ModRedundant input section has been read:
 A       1       5       9 F                                                   
 D       1       5       9      12 F                                           
 D       3       1       5       9 F                                           
 

 GradGradGradGradGradGradGradGradGradGradGradGradGradGradGradGradGradGrad
 Berny optimization.
 Initialization pass.
                           ----------------------------
                           !    Initial Parameters    !
                           ! (Angstroms and Degrees)  !
 --------------------------                            --------------------------
 ! Name  Definition              Value          Derivative Info.                !
 --------------------------------------------------------------------------------
 ! R1    R(1,2)                  1.9455         estimate D2E/DX2                !
 ! R2    R(1,3)                  1.9537         estimate D2E/DX2                !
 ! R3    R(1,4)                  1.9783         estimate D2E/DX2                !
 ! R4    R(1,5)                  1.9592         estimate D2E/DX2                !
 ! R5    R(2,8)                  1.6494         estimate D2E/DX2                !
 ! R6    R(3,7)                  1.6382         estimate D2E/DX2                !
 ! R7    R(4,6)                  1.6416         estimate D2E/DX2                !
 ! R8    R(5,9)                  1.6365         estimate D2E/DX2                !
 ! R9    R(6,16)                 1.6488         estimate D2E/DX2                !
 ! R10   R(6,17)                 1.651          estimate D2E/DX2                !
 ! R11   R(6,18)                 1.6636         estimate D2E/DX2                !
 ! R12   R(7,19)                 1.6831         estimate D2E/DX2                !
 ! R13   R(7,20)                 1.6453         estimate D2E/DX2                !
 ! R14   R(7,21)                 1.6369         estimate D2E/DX2                !
 ! R15   R(8,13)                 1.6414         estimate D2E/DX2                !
 ! R16   R(8,14)                 1.6742         estimate D2E/DX2                !
 ! R17   R(8,15)                 1.6395         estimate D2E/DX2                !
 ! R18   R(9,10)                 1.6509         estimate D2E/DX2                !
 ! R19   R(9,11)                 1.6574         estimate D2E/DX2                !
 ! R20   R(9,12)                 1.6499         estimate D2E/DX2                !
 ! R21   R(10,23)                0.9639         estimate D2E/DX2                !
 ! R22   R(11,24)                0.9637         estimate D2E/DX2                !
 ! R23   R(12,22)                0.9636         estimate D2E/DX2                !
 ! R24   R(13,25)                0.9741         estimate D2E/DX2                !
 ! R25   R(14,27)                0.9767         estimate D2E/DX2                !
 ! R26   R(15,26)                0.9633         estimate D2E/DX2                !
 ! R27   R(16,32)                0.9637         estimate D2E/DX2                !
 ! R28   R(17,33)                0.9838         estimate D2E/DX2                !
 ! R29   R(18,31)                0.9639         estimate D2E/DX2                !
 ! R30   R(19,30)                0.9654         estimate D2E/DX2                !
 ! R31   R(20,28)                0.964          estimate D2E/DX2                !
 ! R32   R(21,29)                0.9802         estimate D2E/DX2                !
 ! A1    A(2,1,3)              106.0959         estimate D2E/DX2                !
 ! A2    A(2,1,4)              103.2214         estimate D2E/DX2                !
 ! A3    A(2,1,5)              112.8091         estimate D2E/DX2                !
 ! A4    A(3,1,4)              105.0977         estimate D2E/DX2                !
 ! A5    A(3,1,5)              115.6243         estimate D2E/DX2                !
 ! A6    A(4,1,5)              112.9055         estimate D2E/DX2                !
 ! A7    A(1,2,8)              141.2479         estimate D2E/DX2                !
 ! A8    A(1,3,7)              148.2962         estimate D2E/DX2                !
 ! A9    A(1,4,6)              134.9216         estimate D2E/DX2                !
 ! A10   A(1,5,9)              164.275          Frozen                          !
 ! A11   A(4,6,16)             109.9952         estimate D2E/DX2                !
 ! A12   A(4,6,17)             109.7479         estimate D2E/DX2                !
 ! A13   A(4,6,18)             111.8422         estimate D2E/DX2                !
 ! A14   A(16,6,17)            114.9972         estimate D2E/DX2                !
 ! A15   A(16,6,18)            108.0658         estimate D2E/DX2                !
 ! A16   A(17,6,18)            101.9869         estimate D2E/DX2                !
 ! A17   A(3,7,19)             103.269          estimate D2E/DX2                !
 ! A18   A(3,7,20)             114.3706         estimate D2E/DX2                !
 ! A19   A(3,7,21)             111.9733         estimate D2E/DX2                !
 ! A20   A(19,7,20)            106.3205         estimate D2E/DX2                !
 ! A21   A(19,7,21)            112.6973         estimate D2E/DX2                !
 ! A22   A(20,7,21)            108.1076         estimate D2E/DX2                !
 ! A23   A(2,8,13)             111.4365         estimate D2E/DX2                !
 ! A24   A(2,8,14)             107.7362         estimate D2E/DX2                !
 ! A25   A(2,8,15)             107.5759         estimate D2E/DX2                !
 ! A26   A(13,8,14)            110.4391         estimate D2E/DX2                !
 ! A27   A(13,8,15)            110.7606         estimate D2E/DX2                !
 ! A28   A(14,8,15)            108.7751         estimate D2E/DX2                !
 ! A29   A(5,9,10)             113.7768         estimate D2E/DX2                !
 ! A30   A(5,9,11)             110.2318         estimate D2E/DX2                !
 ! A31   A(5,9,12)             105.0574         estimate D2E/DX2                !
 ! A32   A(10,9,11)            105.2122         estimate D2E/DX2                !
 ! A33   A(10,9,12)            108.4596         estimate D2E/DX2                !
 ! A34   A(11,9,12)            114.3203         estimate D2E/DX2                !
 ! A35   A(9,10,23)            115.8443         estimate D2E/DX2                !
 ! A36   A(9,11,24)            117.3552         estimate D2E/DX2                !
 ! A37   A(9,12,22)            116.8571         estimate D2E/DX2                !
 ! A38   A(8,13,25)            116.8991         estimate D2E/DX2                !
 ! A39   A(8,14,27)            114.056          estimate D2E/DX2                !
 ! A40   A(8,15,26)            117.2166         estimate D2E/DX2                !
 ! A41   A(6,16,32)            116.4907         estimate D2E/DX2                !
 ! A42   A(6,17,33)            117.1859         estimate D2E/DX2                !
 ! A43   A(6,18,31)            116.3076         estimate D2E/DX2                !
 ! A44   A(7,19,30)            115.1373         estimate D2E/DX2                !
 ! A45   A(7,20,28)            116.1676         estimate D2E/DX2                !
 ! A46   A(7,21,29)            116.2372         estimate D2E/DX2                !
 ! D1    D(3,1,2,8)             57.7292         estimate D2E/DX2                !
 ! D2    D(4,1,2,8)            -52.5301         estimate D2E/DX2                !
 ! D3    D(5,1,2,8)           -174.7067         estimate D2E/DX2                !
 ! D4    D(2,1,3,7)            -50.098          estimate D2E/DX2                !
 ! D5    D(4,1,3,7)             58.8315         estimate D2E/DX2                !
 ! D6    D(5,1,3,7)           -175.9641         estimate D2E/DX2                !
 ! D7    D(2,1,4,6)             42.7683         estimate D2E/DX2                !
 ! D8    D(3,1,4,6)            -68.2312         estimate D2E/DX2                !
 ! D9    D(5,1,4,6)            164.8802         estimate D2E/DX2                !
 ! D10   D(2,1,5,9)           -108.3631         estimate D2E/DX2                !
 ! D11   D(3,1,5,9)             14.0001         Frozen                          !
 ! D12   D(4,1,5,9)            135.0823         estimate D2E/DX2                !
 ! D13   D(1,2,8,13)            93.5308         estimate D2E/DX2                !
 ! D14   D(1,2,8,14)           -27.7655         estimate D2E/DX2                !
 ! D15   D(1,2,8,15)          -144.8802         estimate D2E/DX2                !
 ! D16   D(1,3,7,19)           -61.1012         estimate D2E/DX2                !
 ! D17   D(1,3,7,20)          -176.1751         estimate D2E/DX2                !
 ! D18   D(1,3,7,21)            60.409          estimate D2E/DX2                !
 ! D19   D(1,4,6,16)           160.167          estimate D2E/DX2                !
 ! D20   D(1,4,6,17)            32.6925         estimate D2E/DX2                !
 ! D21   D(1,4,6,18)           -79.742          estimate D2E/DX2                !
 ! D22   D(1,5,9,10)          -100.1296         estimate D2E/DX2                !
 ! D23   D(1,5,9,11)           141.9684         estimate D2E/DX2                !
 ! D24   D(1,5,9,12)            18.3489         Frozen                          !
 ! D25   D(4,6,16,32)          -14.1998         estimate D2E/DX2                !
 ! D26   D(17,6,16,32)         110.2979         estimate D2E/DX2                !
 ! D27   D(18,6,16,32)        -136.5531         estimate D2E/DX2                !
 ! D28   D(4,6,17,33)           51.0095         estimate D2E/DX2                !
 ! D29   D(16,6,17,33)         -73.6179         estimate D2E/DX2                !
 ! D30   D(18,6,17,33)         169.7166         estimate D2E/DX2                !
 ! D31   D(4,6,18,31)          -96.4424         estimate D2E/DX2                !
 ! D32   D(16,6,18,31)          24.7715         estimate D2E/DX2                !
 ! D33   D(17,6,18,31)         146.349          estimate D2E/DX2                !
 ! D34   D(3,7,19,30)         -162.1837         estimate D2E/DX2                !
 ! D35   D(20,7,19,30)         -41.4662         estimate D2E/DX2                !
 ! D36   D(21,7,19,30)          76.796          estimate D2E/DX2                !
 ! D37   D(3,7,20,28)          -98.427          estimate D2E/DX2                !
 ! D38   D(19,7,20,28)         148.2947         estimate D2E/DX2                !
 ! D39   D(21,7,20,28)          27.0455         estimate D2E/DX2                !
 ! D40   D(3,7,21,29)          -49.8995         estimate D2E/DX2                !
 ! D41   D(19,7,21,29)          66.0156         estimate D2E/DX2                !
 ! D42   D(20,7,21,29)        -176.7753         estimate D2E/DX2                !
 ! D43   D(2,8,13,25)          -58.468          estimate D2E/DX2                !
 ! D44   D(14,8,13,25)          61.2404         estimate D2E/DX2                !
 ! D45   D(15,8,13,25)        -178.1888         estimate D2E/DX2                !
 ! D46   D(2,8,14,27)           80.2918         estimate D2E/DX2                !
 ! D47   D(13,8,14,27)         -41.6247         estimate D2E/DX2                !
 ! D48   D(15,8,14,27)        -163.3756         estimate D2E/DX2                !
 ! D49   D(2,8,15,26)         -174.1994         estimate D2E/DX2                !
 ! D50   D(13,8,15,26)         -52.1897         estimate D2E/DX2                !
 ! D51   D(14,8,15,26)          69.3652         estimate D2E/DX2                !
 ! D52   D(5,9,10,23)          -94.85           estimate D2E/DX2                !
 ! D53   D(11,9,10,23)          25.9082         estimate D2E/DX2                !
 ! D54   D(12,9,10,23)         148.6404         estimate D2E/DX2                !
 ! D55   D(5,9,11,24)          -43.8213         estimate D2E/DX2                !
 ! D56   D(10,9,11,24)        -166.8806         estimate D2E/DX2                !
 ! D57   D(12,9,11,24)          74.239          estimate D2E/DX2                !
 ! D58   D(5,9,12,22)         -166.4771         estimate D2E/DX2                !
 ! D59   D(10,9,12,22)         -44.4744         estimate D2E/DX2                !
 ! D60   D(11,9,12,22)          72.554          estimate D2E/DX2                !
 --------------------------------------------------------------------------------
 Trust Radius=3.00D-01 FncErr=1.00D-07 GrdErr=1.00D-06 EigMax=2.50D+02 EigMin=1.00D-04
 Number of steps in this run=    148 maximum allowed number of steps=    198.
 GradGradGradGradGradGradGradGradGradGradGradGradGradGradGradGradGradGrad

                          Input orientation:                          
 ---------------------------------------------------------------------
 Center     Atomic      Atomic             Coordinates (Angstroms)
 Number     Number       Type             X           Y           Z
 ---------------------------------------------------------------------
      1         40           0        0.657790   -0.125060   -0.071640
      2          8           0       -0.222850   -0.906240    1.477300
      3          8           0        0.103020    1.747480   -0.122990
      4          8           0       -0.268300   -0.978850   -1.597050
      5          8           0        2.592060   -0.436300   -0.082840
      6         14           0       -1.831190   -1.332440   -1.953600
      7         14           0       -1.115500    2.841720   -0.082790
      8         14           0       -1.723760   -1.152910    2.115170
      9         14           0        4.216640   -0.258590    0.001670
     10          8           0        4.950110   -0.133610   -1.472090
     11          8           0        4.902090   -1.587120    0.717320
     12          8           0        4.451260    1.152750    0.823330
     13          8           0       -2.319240   -2.624000    1.696270
     14          8           0       -2.724220    0.065080    1.550860
     15          8           0       -1.597340   -1.019570    3.744390
     16          8           0       -2.001440   -1.559650   -3.577820
     17          8           0       -2.825090   -0.186760   -1.301450
     18          8           0       -2.344480   -2.714390   -1.182770
     19          8           0       -2.040460    2.439570   -1.430230
     20          8           0       -0.635650    4.400490   -0.299870
     21          8           0       -1.965510    2.760860    1.313830
     22          1           0        5.338370    1.528160    0.799280
     23          1           0        5.297260   -0.954290   -1.839620
     24          1           0        4.470220   -1.938720    1.503780
     25          1           0       -2.405770   -2.809510    0.743920
     26          1           0       -2.381370   -1.224230    4.265350
     27          1           0       -3.060340   -0.083060    0.645890
     28          1           0       -0.527310    4.927280    0.500150
     29          1           0       -2.269090    1.869320    1.585330
     30          1           0       -2.648540    3.126760   -1.730140
     31          1           0       -2.304520   -3.529520   -1.695620
     32          1           0       -1.271140   -1.263050   -4.132230
     33          1           0       -2.610260    0.754610   -1.489930
 ---------------------------------------------------------------------
                    Distance matrix (angstroms):
                    1          2          3          4          5
     1  Zr   0.000000
     2  O    1.945504   0.000000
     3  O    1.953666   3.115983   0.000000
     4  O    1.978251   3.075543   3.121475   0.000000
     5  O    1.959183   3.252476   3.311469   3.281593   0.000000
     6  Si   3.345827   3.813067   4.071635   1.641578   4.885484
     7  Si   3.456366   4.156670   1.638221   4.196128   4.948880
     8  Si   3.392697   1.649380   4.093745   3.991145   4.896027
     9  Si   3.562109   4.722923   4.578398   4.815534   1.636454
    10  O    4.515013   6.004613   5.371485   5.287896   2.753550
    11  O    4.557868   5.225531   5.903961   5.697301   2.702014
    12  O    4.101729   5.149216   4.489590   5.716310   2.608227
    13  O    4.270002   2.719099   5.318542   4.214123   5.663226
    14  O    3.755882   2.684348   3.691278   4.126823   5.584191
    15  O    4.521929   2.653632   5.050190   5.504452   5.704294
    16  O    4.628483   5.398571   5.225104   2.695283   5.880225
    17  O    3.694143   3.874372   3.701875   2.692947   5.558129
    18  O    4.117386   3.853141   5.198238   2.737563   5.546978
    19  O    3.962783   4.790812   2.604299   3.854086   5.616612
    20  O    4.712290   5.611606   2.759598   5.545712   5.818913
    21  O    4.138812   4.063399   2.714813   5.033803   5.739683
    22  H    5.039788   6.108452   5.320486   6.592590   3.489908
    23  H    5.033692   6.440177   6.101353   5.570898   3.266909
    24  H    4.506211   4.805374   5.941960   5.743698   2.881339
    25  H    4.154132   2.987545   5.273682   3.660633   5.594101
    26  H    5.408711   3.540275   5.853271   6.236426   6.653014
    27  H    3.786965   3.069237   3.734823   3.691708   5.710118
    28  H    5.220876   5.922624   3.301022   6.272775   6.232041
    29  H    3.910208   3.450000   2.925766   4.716225   5.632890
    30  H    4.925117   5.695325   3.472237   4.747556   6.547739
    31  H    4.796138   4.613282   6.009671   3.265245   6.012118
    32  H    4.637260   5.717784   5.198616   2.741094   5.657331
    33  H    3.669539   4.154829   3.196280   2.915671   5.519266
                    6          7          8          9         10
     6  Si   0.000000
     7  Si   4.629876   0.000000
     8  Si   4.074145   4.599791   0.000000
     9  Si   6.446121   6.168531   6.368284   0.000000
    10  O    6.903266   6.897417   7.645126   1.650929   0.000000
    11  O    7.248154   7.514399   6.785603   1.657404   2.628405
    12  O    7.304566   5.887486   6.716829   1.649864   2.678157
    13  O    3.902290   5.872660   1.641396   7.154339   8.311678
    14  O    3.877087   3.600906   1.674176   7.119009   8.250639
    15  O    5.711363   5.457933   1.639549   6.956249   8.418176
    16  O    1.648848   5.689656   5.714252   7.291778   7.402144
    17  O    1.650975   3.685040   3.717481   7.161651   7.777254
    18  O    1.663560   5.795749   3.701340   7.105079   7.743073
    19  O    3.813892   1.683113   5.057279   6.962881   7.449233
    20  O    6.085279   1.645340   6.152776   6.733697   7.289230
    21  O    5.239203   1.636949   4.002272   7.004129   7.997819
    22  H    8.195363   6.644993   7.667684   2.255424   2.841012
    23  H    7.139383   7.656346   8.060678   2.245459   0.963902
    24  H    7.213101   7.521308   6.273491   2.267923   3.513477
    25  H    3.128657   5.855309   2.256056   7.135436   8.135116
    26  H    6.244177   6.086107   2.249625   7.914870   9.373274
    27  H    3.135141   3.587160   2.256060   7.307549   8.285874
    28  H    6.848729   2.243958   6.403787   7.046048   7.713914
    29  H    4.792395   2.249212   3.116406   7.007187   8.091749
    30  H    4.538993   2.268308   5.827281   7.847959   8.272610
    31  H    2.262246   6.678899   4.528540   7.490347   8.013228
    32  H    2.250533   5.768130   6.264743   6.943616   6.859733
    33  H    2.275460   2.927521   4.173878   7.061020   7.612388
                   11         12         13         14         15
    11  O    0.000000
    12  O    2.778736   0.000000
    13  O    7.360779   7.801637   0.000000
    14  O    7.847621   7.293822   2.723289   0.000000
    15  O    7.192208   7.059542   2.700024   2.694049   0.000000
    16  O    8.130665   8.268287   5.389792   5.428215   7.353213
    17  O    8.108375   7.697678   3.896453   2.865182   5.259415
    18  O    7.575873   8.072254   2.880569   3.916936   5.263795
    19  O    8.308141   6.991199   5.957555   3.872032   6.240088
    20  O    8.219046   6.138896   7.494165   5.155881   6.830662
    21  O    8.150134   6.633366   5.410000   2.810526   4.509415
    22  H    3.146749   0.963574   8.756941   8.228659   7.954161
    23  H    2.663564   3.499519   8.561631   8.768045   8.872482
    24  H    0.963667   3.165527   6.826670   7.468427   6.533028
    25  H    7.409437   7.919891   0.974101   3.002637   3.586121
    26  H    8.109809   8.011390   2.926327   3.024619   0.963321
    27  H    8.103554   7.614647   2.847614   0.976674   3.552200
    28  H    8.483098   6.256012   7.852614   5.437959   6.858213
    29  H    8.007886   6.801266   4.494969   1.861079   3.668579
    30  H    9.231616   7.798980   6.702236   4.488271   6.947485
    31  H    7.844133   8.597053   3.510712   4.861783   6.032716
    32  H    7.856967   7.946038   6.076357   6.014390   7.887131
    33  H    8.172579   7.441421   4.653125   3.120071   5.618881
                   16         17         18         19         20
    16  O    0.000000
    17  O    2.783000   0.000000
    18  O    2.680926   2.575652   0.000000
    19  O    4.539540   2.744055   5.168846   0.000000
    20  O    6.937839   5.180702   7.370287   2.663909   0.000000
    21  O    6.526587   4.033241   6.029510   2.763822   2.657243
    22  H    9.086605   8.602098   8.997441   7.761992   6.719176
    23  H    7.527205   8.176264   7.869282   8.094938   8.139037
    24  H    8.237034   8.010008   7.366095   8.376562   8.337184
    25  H    4.516976   3.352340   1.930010   5.693261   7.497128
    26  H    7.859527   5.680008   5.648358   6.780802   7.451594
    27  H    4.597968   1.964238   3.283344   3.422586   5.184188
    28  H    7.802766   5.888884   8.033022   3.493521   0.963990
    29  H    6.203837   3.587492   5.355227   3.077509   3.553720
    30  H    5.078888   3.345797   5.874615   0.965369   2.778450
    31  H    2.741336   3.405937   0.963872   5.980819   8.223035
    32  H    0.963680   3.403891   3.458000   4.647801   6.867788
    33  H    3.175806   0.983796   3.492699   1.779698   4.313672
                   21         22         23         24         25
    21  O    0.000000
    22  H    7.425024   0.000000
    23  H    8.746109   3.623264   0.000000
    24  H    7.971245   3.642700   3.582097   0.000000
    25  H    5.616729   8.876382   8.333858   6.972439   0.000000
    26  H    4.976480   8.898521   9.813505   7.421661   3.861888
    27  H    3.119724   8.553238   8.762778   7.803127   2.805637
    28  H    2.724678   6.785993   8.601919   8.551289   7.965297
    29  H    0.980162   7.655567   8.772269   7.741196   4.755849
    30  H    3.141045   8.529022   8.933235   9.316334   6.435776
    31  H    6.981447   9.498338   8.027428   7.659237   2.545589
    32  H    6.806877   8.706105   6.963855   8.073683   5.239825
    33  H    3.507394   8.307802   8.097623   8.145522   4.211277
                   26         27         28         29         30
    26  H    0.000000
    27  H    3.855355   0.000000
    28  H    7.446835   5.616136   0.000000
    29  H    4.094529   2.306602   3.682734   0.000000
    30  H    7.412718   4.014728   3.565906   3.566157   0.000000
    31  H    6.391669   4.234622   8.916129   6.317702   6.665254
    32  H    8.470742   5.236797   7.767394   6.595312   5.190154
    33  H    6.090275   2.337946   5.070530   3.288799   2.384588
                   31         32         33
    31  H    0.000000
    32  H    3.484513   0.000000
    33  H    4.299948   3.584124   0.000000
 Stoichiometry    H12O16Si4Zr
 Framework group  C1[X(H12O16Si4Zr)]
 Deg. of freedom    93
 Full point group                 C1      NOp   1
 Largest Abelian subgroup         C1      NOp   1
 Largest concise Abelian subgroup C1      NOp   1
                         Standard orientation:                         
 ---------------------------------------------------------------------
 Center     Atomic      Atomic             Coordinates (Angstroms)
 Number     Number       Type             X           Y           Z
 ---------------------------------------------------------------------
      1         40           0        0.657809   -0.126059   -0.067646
      2          8           0       -0.227312   -0.906098    1.479313
      3          8           0        0.104400    1.746825   -0.121098
      4          8           0       -0.264924   -0.979798   -1.595117
      5          8           0        2.591898   -0.438568   -0.073772
      6         14           0       -1.827126   -1.332496   -1.955546
      7         14           0       -1.113503    2.841876   -0.084420
      8         14           0       -1.730014   -1.151554    2.113421
      9         14           0        4.216371   -0.261890    0.014840
     10          8           0        4.953700   -0.137926   -1.457079
     11          8           0        4.899113   -1.590607    0.732728
     12          8           0        4.449808    1.149596    0.836587
     13          8           0       -2.325381   -2.622407    1.693528
     14          8           0       -2.728225    0.066885    1.546105
     15          8           0       -1.607685   -1.017703    3.742911
     16          8           0       -1.993359   -1.560186   -3.580115
     17          8           0       -2.821945   -0.185929   -1.306363
     18          8           0       -2.343296   -2.713829   -1.185534
     19          8           0       -2.035267    2.439841   -1.434082
     20          8           0       -0.632076    4.400253   -0.300834
     21          8           0       -1.967144    2.762081    1.310044
     22          1           0        5.337222    1.524417    0.814677
     23          1           0        5.301254   -0.958967   -1.823420
     24          1           0        4.464998   -1.941638    1.518205
     25          1           0       -2.409590   -2.808207    0.741027
     26          1           0       -2.393183   -1.221660    4.261933
     27          1           0       -3.062120   -0.081365    0.640330
     28          1           0       -0.525444    4.927263    0.499270
     29          1           0       -2.272004    1.870839    1.581088
     30          1           0       -2.642126    3.127319   -1.735800
     31          1           0       -2.302555   -3.529172   -1.697984
     32          1           0       -1.261445   -1.264266   -4.132757
     33          1           0       -2.606016    0.755232   -1.494633
 ---------------------------------------------------------------------
 Rotational constants (GHZ):           0.2124147           0.1338367           0.1240630
 General basis read from cards:  (5D, 7F)
 ======================================================================================================
                                       Pseudopotential Parameters
 ======================================================================================================
  Center     Atomic      Valence      Angular      Power
  Number     Number     Electrons     Momentum     of R      Exponent        Coefficient   SO-Coeffient
 ======================================================================================================
    1         40           12
                                      G and up 
                                                     2        1.0000000        0.00000000    0.00000000
                                      S - G
                                                     2        8.6365280      150.24299400    0.00000000
                                                     2        3.7176390       18.78003600    0.00000000
                                      P - G
                                                     2        7.6267280       33.19279100    0.00000000
                                                     2        7.4532070       66.38903900    0.00000000
                                                     2        3.3583890        4.62072600    0.00000000
                                                     2        3.2297380        9.26027000    0.00000000
                                      D - G
                                                     2        5.9380860       13.99338300    0.00000000
                                                     2        5.8255440       20.99588200    0.00000000
                                                     2        2.2050190        2.28516600    0.00000000
                                                     2        2.2062920        3.44126000    0.00000000
                                      F - G
                                                     2        4.8002150       -5.23932000    0.00000000
                                                     2        4.7989920       -6.98742400    0.00000000
    2          8
                                   No pseudopotential on this center.
    3          8
                                   No pseudopotential on this center.
    4          8
                                   No pseudopotential on this center.
    5          8
                                   No pseudopotential on this center.
    6         14
                                   No pseudopotential on this center.
    7         14
                                   No pseudopotential on this center.
    8         14
                                   No pseudopotential on this center.
    9         14
                                   No pseudopotential on this center.
   10          8
                                   No pseudopotential on this center.
   11          8
                                   No pseudopotential on this center.
   12          8
                                   No pseudopotential on this center.
   13          8
                                   No pseudopotential on this center.
   14          8
                                   No pseudopotential on this center.
   15          8
                                   No pseudopotential on this center.
   16          8
                                   No pseudopotential on this center.
   17          8
                                   No pseudopotential on this center.
   18          8
                                   No pseudopotential on this center.
   19          8
                                   No pseudopotential on this center.
   20          8
                                   No pseudopotential on this center.
   21          8
                                   No pseudopotential on this center.
   22          1
                                   No pseudopotential on this center.
   23          1
                                   No pseudopotential on this center.
   24          1
                                   No pseudopotential on this center.
   25          1
                                   No pseudopotential on this center.
   26          1
                                   No pseudopotential on this center.
   27          1
                                   No pseudopotential on this center.
   28          1
                                   No pseudopotential on this center.
   29          1
                                   No pseudopotential on this center.
   30          1
                                   No pseudopotential on this center.
   31          1
                                   No pseudopotential on this center.
   32          1
                                   No pseudopotential on this center.
   33          1
                                   No pseudopotential on this center.
 ======================================================================================================
 There are   570 symmetry adapted cartesian basis functions of A   symmetry.
 There are   524 symmetry adapted basis functions of A   symmetry.
   524 basis functions,  1074 primitive gaussians,   570 cartesian basis functions
   104 alpha electrons      104 beta electrons
       nuclear repulsion energy      2832.8927885611 Hartrees.
 NAtoms=   33 NActive=   33 NUniq=   33 SFac= 1.00D+00 NAtFMM=   60 NAOKFM=F Big=F
 Integral buffers will be    131072 words long.
 Raffenetti 2 integral format.
 Two-electron integral symmetry is turned on.
 Nuclear repulsion after empirical dispersion term =     2832.8519844930 Hartrees.
 One-electron integrals computed using PRISM.
 PrsmSu:  requested number of processors reduced to:   4 ShMem   1 Linda.
   1 Symmetry operations used in ECPInt.
 ECPInt:  NShTT=   13203 NPrTT=   78401 LenC2=   11526 LenP2D=   44635.
 LDataN:  DoStor=T MaxTD1= 8 Len=  415
 Number of processors reduced to  13 by ecpmxn.
 NBasis=   524 RedAO= T EigKep=  3.16D-05  NBF=   524
 NBsUse=   524 1.00D-06 EigRej= -1.00D+00 NBFU=   524
 Defaulting to unpruned grid for atomic number  40.
 ExpMin= 1.01D-02 ExpMax= 1.61D+04 ExpMxC= 2.43D+03 IAcc=3 IRadAn=         5 AccDes= 0.00D+00
 Harris functional with IExCor=  402 and IRadAn=       5 diagonalized for initial guess.
 HarFok:  IExCor=  402 AccDes= 0.00D+00 IRadAn=         5 IDoV= 1 UseB2=F ITyADJ=14
 ICtDFT=  3500011 ScaDFX=  1.000000  1.000000  1.000000  1.000000
 Defaulting to unpruned grid for atomic number  40.
 FoFCou: FMM=F IPFlag=           0 FMFlag=      100000 FMFlg1=           0
         NFxFlg=           0 DoJE=T BraDBF=F KetDBF=T FulRan=T
         wScrn=  0.000000 ICntrl=       500 IOpCl=  0 I1Cent=   200000004 NGrid=           0
         NMat0=    1 NMatS0=      1 NMatT0=    0 NMatD0=    1 NMtDS0=    0 NMtDT0=    0
 Petite list used in FoFCou.
 Requested convergence on RMS density matrix=1.00D-08 within 128 cycles.
 Requested convergence on MAX density matrix=1.00D-06.
 Requested convergence on             energy=1.00D-06.
 No special actions if energy rises.
 Defaulting to unpruned grid for atomic number  40.
 Defaulting to unpruned grid for atomic number  40.
 Defaulting to unpruned grid for atomic number  40.
 Defaulting to unpruned grid for atomic number  40.
 Defaulting to unpruned grid for atomic number  40.
 Defaulting to unpruned grid for atomic number  40.
 Defaulting to unpruned grid for atomic number  40.
 Defaulting to unpruned grid for atomic number  40.
 Defaulting to unpruned grid for atomic number  40.
 Defaulting to unpruned grid for atomic number  40.
 Defaulting to unpruned grid for atomic number  40.
 Defaulting to unpruned grid for atomic number  40.
 Defaulting to unpruned grid for atomic number  40.
 Defaulting to unpruned grid for atomic number  40.
 Defaulting to unpruned grid for atomic number  40.
 Defaulting to unpruned grid for atomic number  40.
 SCF Done:  E(RB3LYP) =  -2416.94685640     A.U. after   14 cycles
            NFock= 14  Conv=0.25D-08     -V/T= 2.0185

 **********************************************************************

            Population analysis using the SCF Density.

 **********************************************************************

 Orbital symmetries:
       Occupied  (A) (A) (A) (A) (A) (A) (A) (A) (A) (A) (A) (A)
                 (A) (A) (A) (A) (A) (A) (A) (A) (A) (A) (A) (A)
                 (A) (A) (A) (A) (A) (A) (A) (A) (A) (A) (A) (A)
                 (A) (A) (A) (A) (A) (A) (A) (A) (A) (A) (A) (A)
                 (A) (A) (A) (A) (A) (A) (A) (A) (A) (A) (A) (A)
                 (A) (A) (A) (A) (A) (A) (A) (A) (A) (A) (A) (A)
                 (A) (A) (A) (A) (A) (A) (A) (A) (A) (A) (A) (A)
                 (A) (A) (A) (A) (A) (A) (A) (A) (A) (A) (A) (A)
                 (A) (A) (A) (A) (A) (A) (A) (A)
       Virtual   (A) (A) (A) (A) (A) (A) (A) (A) (A) (A) (A) (A)
                 (A) (A) (A) (A) (A) (A) (A) (A) (A) (A) (A) (A)
                 (A) (A) (A) (A) (A) (A) (A) (A) (A) (A) (A) (A)
                 (A) (A) (A) (A) (A) (A) (A) (A) (A) (A) (A) (A)
                 (A) (A) (A) (A) (A) (A) (A) (A) (A) (A) (A) (A)
                 (A) (A) (A) (A) (A) (A) (A) (A) (A) (A) (A) (A)
                 (A) (A) (A) (A) (A) (A) (A) (A) (A) (A) (A) (A)
                 (A) (A) (A) (A) (A) (A) (A) (A) (A) (A) (A) (A)
                 (A) (A) (A) (A) (A) (A) (A) (A) (A) (A) (A) (A)
                 (A) (A) (A) (A) (A) (A) (A) (A) (A) (A) (A) (A)
                 (A) (A) (A) (A) (A) (A) (A) (A) (A) (A) (A) (A)
                 (A) (A) (A) (A) (A) (A) (A) (A) (A) (A) (A) (A)
                 (A) (A) (A) (A) (A) (A) (A) (A) (A) (A) (A) (A)
                 (A) (A) (A) (A) (A) (A) (A) (A) (A) (A) (A) (A)
                 (A) (A) (A) (A) (A) (A) (A) (A) (A) (A) (A) (A)
                 (A) (A) (A) (A) (A) (A) (A) (A) (A) (A) (A) (A)
                 (A) (A) (A) (A) (A) (A) (A) (A) (A) (A) (A) (A)
                 (A) (A) (A) (A) (A) (A) (A) (A) (A) (A) (A) (A)
                 (A) (A) (A) (A) (A) (A) (A) (A) (A) (A) (A) (A)
                 (A) (A) (A) (A) (A) (A) (A) (A) (A) (A) (A) (A)
                 (A) (A) (A) (A) (A) (A) (A) (A) (A) (A) (A) (A)
                 (A) (A) (A) (A) (A) (A) (A) (A) (A) (A) (A) (A)
                 (A) (A) (A) (A) (A) (A) (A) (A) (A) (A) (A) (A)
                 (A) (A) (A) (A) (A) (A) (A) (A) (A) (A) (A) (A)
                 (A) (A) (A) (A) (A) (A) (A) (A) (A) (A) (A) (A)
                 (A) (A) (A) (A) (A) (A) (A) (A) (A) (A) (A) (A)
                 (A) (A) (A) (A) (A) (A) (A) (A) (A) (A) (A) (A)
                 (A) (A) (A) (A) (A) (A) (A) (A) (A) (A) (A) (A)
                 (A) (A) (A) (A) (A) (A) (A) (A) (A) (A) (A) (A)
                 (A) (A) (A) (A) (A) (A) (A) (A) (A) (A) (A) (A)
                 (A) (A) (A) (A) (A) (A) (A) (A) (A) (A) (A) (A)
                 (A) (A) (A) (A) (A) (A) (A) (A) (A) (A) (A) (A)
                 (A) (A) (A) (A) (A) (A) (A) (A) (A) (A) (A) (A)
                 (A) (A) (A) (A) (A) (A) (A) (A) (A) (A) (A) (A)
                 (A) (A) (A) (A) (A) (A) (A) (A) (A) (A) (A) (A)
 The electronic state is 1-A.
 Alpha  occ. eigenvalues --  -66.22803 -66.21755 -66.21491 -66.21039 -19.18588
 Alpha  occ. eigenvalues --  -19.18351 -19.17785 -19.17025 -19.16733 -19.16535
 Alpha  occ. eigenvalues --  -19.16443 -19.16223 -19.16185 -19.16011 -19.16000
 Alpha  occ. eigenvalues --  -19.15502 -19.15334 -19.15255 -19.14897 -19.14707
 Alpha  occ. eigenvalues --   -5.36863  -5.35836  -5.35567  -5.35099  -3.72847
 Alpha  occ. eigenvalues --   -3.72821  -3.72774  -3.71828  -3.71780  -3.71745
 Alpha  occ. eigenvalues --   -3.71536  -3.71527  -3.71488  -3.71064  -3.71055
 Alpha  occ. eigenvalues --   -3.71030  -2.13364  -1.29607  -1.29523  -1.29366
 Alpha  occ. eigenvalues --   -1.05679  -1.04775  -1.04152  -1.03499  -1.02563
 Alpha  occ. eigenvalues --   -1.02169  -1.01472  -1.00920  -1.00764  -1.00666
 Alpha  occ. eigenvalues --   -0.99833  -0.99306  -0.97371  -0.96282  -0.95726
 Alpha  occ. eigenvalues --   -0.95404  -0.60989  -0.59160  -0.58975  -0.58491
 Alpha  occ. eigenvalues --   -0.55539  -0.54531  -0.53866  -0.53042  -0.52991
 Alpha  occ. eigenvalues --   -0.52493  -0.52150  -0.51708  -0.48777  -0.47604
 Alpha  occ. eigenvalues --   -0.47202  -0.46721  -0.43375  -0.42652  -0.41861
 Alpha  occ. eigenvalues --   -0.41394  -0.41111  -0.40527  -0.39829  -0.39335
 Alpha  occ. eigenvalues --   -0.38804  -0.38676  -0.38653  -0.38145  -0.38019
 Alpha  occ. eigenvalues --   -0.37626  -0.37483  -0.37191  -0.36539  -0.36409
 Alpha  occ. eigenvalues --   -0.36079  -0.35628  -0.35474  -0.35092  -0.34897
 Alpha  occ. eigenvalues --   -0.34605  -0.34002  -0.33694  -0.33483  -0.33259
 Alpha  occ. eigenvalues --   -0.32817  -0.32177  -0.32054  -0.31302
 Alpha virt. eigenvalues --   -0.04326  -0.03161  -0.03039  -0.02753  -0.02092
 Alpha virt. eigenvalues --   -0.01172  -0.00554  -0.00126   0.00125   0.00285
 Alpha virt. eigenvalues --    0.00761   0.00928   0.01028   0.01950   0.02345
 Alpha virt. eigenvalues --    0.03249   0.03333   0.03853   0.03944   0.04062
 Alpha virt. eigenvalues --    0.04156   0.04706   0.05557   0.05849   0.06191
 Alpha virt. eigenvalues --    0.06478   0.07092   0.07462   0.07713   0.08663
 Alpha virt. eigenvalues --    0.08797   0.09054   0.09188   0.09680   0.09954
 Alpha virt. eigenvalues --    0.10359   0.10663   0.10863   0.11259   0.11691
 Alpha virt. eigenvalues --    0.11820   0.12561   0.13275   0.13333   0.13605
 Alpha virt. eigenvalues --    0.14033   0.14439   0.14880   0.15057   0.15278
 Alpha virt. eigenvalues --    0.15354   0.15740   0.16192   0.16705   0.16936
 Alpha virt. eigenvalues --    0.17375   0.17516   0.17702   0.18148   0.18438
 Alpha virt. eigenvalues --    0.18496   0.18776   0.19216   0.19705   0.19752
 Alpha virt. eigenvalues --    0.20131   0.20294   0.20634   0.20941   0.21207
 Alpha virt. eigenvalues --    0.21752   0.21985   0.22316   0.22423   0.22762
 Alpha virt. eigenvalues --    0.23330   0.23746   0.24044   0.24165   0.24482
 Alpha virt. eigenvalues --    0.24835   0.25087   0.25610   0.25825   0.26147
 Alpha virt. eigenvalues --    0.26615   0.26678   0.26907   0.27218   0.27459
 Alpha virt. eigenvalues --    0.27942   0.28284   0.28544   0.28808   0.29036
 Alpha virt. eigenvalues --    0.29459   0.29730   0.30076   0.30396   0.30651
 Alpha virt. eigenvalues --    0.30800   0.31360   0.31484   0.31610   0.32108
 Alpha virt. eigenvalues --    0.32344   0.32768   0.33078   0.33577   0.34031
 Alpha virt. eigenvalues --    0.34473   0.34649   0.35339   0.35682   0.36276
 Alpha virt. eigenvalues --    0.36970   0.37547   0.38026   0.38460   0.38800
 Alpha virt. eigenvalues --    0.39362   0.39925   0.40048   0.41107   0.41595
 Alpha virt. eigenvalues --    0.42749   0.43103   0.43898   0.44313   0.44912
 Alpha virt. eigenvalues --    0.45356   0.45623   0.45934   0.46631   0.47455
 Alpha virt. eigenvalues --    0.47900   0.48619   0.48848   0.49362   0.49551
 Alpha virt. eigenvalues --    0.50041   0.50872   0.51061   0.51343   0.53120
 Alpha virt. eigenvalues --    0.54151   0.54424   0.55141   0.56737   0.57300
 Alpha virt. eigenvalues --    0.58231   0.58693   0.59091   0.59327   0.60355
 Alpha virt. eigenvalues --    0.61226   0.61695   0.62139   0.64104   0.65877
 Alpha virt. eigenvalues --    0.66958   0.68004   0.68462   0.68730   0.69474
 Alpha virt. eigenvalues --    0.70045   0.70561   0.72995   0.74450   0.75119
 Alpha virt. eigenvalues --    0.75477   0.77376   0.78578   0.78989   0.80357
 Alpha virt. eigenvalues --    0.81133   0.81488   0.82583   0.84143   0.85397
 Alpha virt. eigenvalues --    0.86669   0.87677   0.89762   0.90590   0.91214
 Alpha virt. eigenvalues --    0.94413   0.95711   0.96271   0.96884   0.97495
 Alpha virt. eigenvalues --    0.98102   0.98779   0.99227   0.99777   1.00392
 Alpha virt. eigenvalues --    1.00758   1.01484   1.02119   1.03226   1.04057
 Alpha virt. eigenvalues --    1.04294   1.05551   1.06390   1.06703   1.07956
 Alpha virt. eigenvalues --    1.09750   1.12338   1.15237   1.16196   1.16464
 Alpha virt. eigenvalues --    1.18702   1.19085   1.19852   1.20595   1.21008
 Alpha virt. eigenvalues --    1.21394   1.21756   1.22360   1.22869   1.22957
 Alpha virt. eigenvalues --    1.23466   1.23941   1.24304   1.25204   1.25716
 Alpha virt. eigenvalues --    1.26064   1.27160   1.27494   1.28137   1.28439
 Alpha virt. eigenvalues --    1.28988   1.29820   1.30117   1.30860   1.31427
 Alpha virt. eigenvalues --    1.32460   1.32673   1.33022   1.33464   1.34475
 Alpha virt. eigenvalues --    1.35285   1.36034   1.36519   1.36886   1.37758
 Alpha virt. eigenvalues --    1.39176   1.39739   1.40212   1.41200   1.41495
 Alpha virt. eigenvalues --    1.42781   1.43728   1.44242   1.45273   1.46362
 Alpha virt. eigenvalues --    1.46991   1.48805   1.51055   1.51394   1.52789
 Alpha virt. eigenvalues --    1.56730   1.57225   1.57709   1.59288   1.59792
 Alpha virt. eigenvalues --    1.60071   1.61202   1.61924   1.62469   1.63072
 Alpha virt. eigenvalues --    1.63221   1.63835   1.65203   1.65397   1.66626
 Alpha virt. eigenvalues --    1.67260   1.68001   1.69289   1.69605   1.70112
 Alpha virt. eigenvalues --    1.71367   1.71461   1.71571   1.72622   1.73308
 Alpha virt. eigenvalues --    1.74105   1.74973   1.75620   1.76061   1.76696
 Alpha virt. eigenvalues --    1.77195   1.77378   1.78506   1.78715   1.79620
 Alpha virt. eigenvalues --    1.80583   1.81452   1.82232   1.82471   1.83055
 Alpha virt. eigenvalues --    1.83367   1.84820   1.85095   1.85926   1.86637
 Alpha virt. eigenvalues --    1.87181   1.88069   1.88631   1.89809   1.90470
 Alpha virt. eigenvalues --    1.91217   1.91387   1.92517   1.92812   1.93923
 Alpha virt. eigenvalues --    1.94755   1.94950   1.95900   1.97286   1.98379
 Alpha virt. eigenvalues --    1.98929   2.00531   2.01187   2.02781   2.03650
 Alpha virt. eigenvalues --    2.05909   2.06552   2.07674   2.09773   2.10417
 Alpha virt. eigenvalues --    2.11191   2.13038   2.14295   2.16145   2.16328
 Alpha virt. eigenvalues --    2.17788   2.18819   2.19093   2.20815   2.26417
 Alpha virt. eigenvalues --    2.32577   2.33485   2.35432   2.39479   2.40430
 Alpha virt. eigenvalues --    2.41170   2.41359   2.41720   2.42742   2.43742
 Alpha virt. eigenvalues --    2.44014   2.45726   2.46697   2.47608   2.49006
 Alpha virt. eigenvalues --    2.50215   2.50310   2.51672   2.52754   2.53348
 Alpha virt. eigenvalues --    2.55452   2.58282   2.59250   2.60072   2.60701
 Alpha virt. eigenvalues --    2.61117   2.61774   2.62067   2.62422   2.62792
 Alpha virt. eigenvalues --    2.63151   2.64036   2.64609   2.64985   2.65969
 Alpha virt. eigenvalues --    2.66294   2.66618   2.67339   2.67556   2.69380
 Alpha virt. eigenvalues --    2.69708   2.70312   2.71219   2.71670   2.72393
 Alpha virt. eigenvalues --    2.72864   2.74338   2.75563   2.76757   2.77475
 Alpha virt. eigenvalues --    2.78942   2.80544   2.81485   2.82464   2.83455
 Alpha virt. eigenvalues --    2.83734   2.84705   2.86673   2.87790   2.88139
 Alpha virt. eigenvalues --    3.14687   3.20315   3.35832   3.41104   3.46756
 Alpha virt. eigenvalues --    3.47861   3.48595   3.48631   3.51093   3.51107
 Alpha virt. eigenvalues --    3.52889   3.54175   3.60309   3.61076   3.62061
 Alpha virt. eigenvalues --    3.66202   4.32001   4.59473   7.89388  31.29206
          Condensed to atoms (all electrons):
               1          2          3          4          5          6
     1  Zr  15.090465  -0.131780  -0.001988  -0.136772  -0.194221  -0.590368
     2  O   -0.131780   9.067406   0.019574  -0.042545  -0.057582   0.089978
     3  O   -0.001988   0.019574   8.829080   0.015489  -0.043491  -0.004541
     4  O   -0.136772  -0.042545   0.015489   8.811780  -0.059691  -0.675332
     5  O   -0.194221  -0.057582  -0.043491  -0.059691   9.432690  -0.006812
     6  Si  -0.590368   0.089978  -0.004541  -0.675332  -0.006812  13.980905
     7  Si  -0.616037  -0.027862  -0.876343  -0.006711  -0.033699   0.084484
     8  Si  -0.579532  -1.000191  -0.020408   0.072059  -0.014042  -0.020333
     9  Si  -0.322614  -0.040973  -0.026588  -0.033671  -1.242329   0.038424
    10  O   -0.013330   0.001022  -0.002061   0.001021   0.130457  -0.002445
    11  O   -0.063174   0.003516   0.002961   0.001200   0.314350  -0.000844
    12  O    0.040846  -0.000013   0.004718   0.002118   0.157181  -0.002904
    13  O   -0.039672   0.187410   0.001670  -0.015643  -0.000664   0.036327
    14  O   -0.020156   0.264135  -0.017564  -0.008834   0.001942   0.029619
    15  O   -0.082284   0.292652  -0.000706   0.001244   0.000568  -0.000352
    16  O   -0.125846   0.004685  -0.000483   0.344882   0.003207  -0.422776
    17  O   -0.080966  -0.039997   0.007845   0.219170   0.001293  -0.453815
    18  O   -0.027109  -0.014364   0.003728   0.198635  -0.000607  -0.451045
    19  O    0.000178   0.009053   0.264479   0.010146   0.002120  -0.007226
    20  O   -0.145899  -0.000574   0.163847  -0.000871   0.001464   0.009004
    21  O    0.035674   0.010443   0.146471   0.003388   0.000221  -0.011770
    22  H   -0.008929  -0.000018  -0.000016  -0.000009   0.005740   0.000085
    23  H   -0.007643  -0.000013  -0.000006  -0.000056  -0.025242   0.000082
    24  H   -0.005211  -0.000196  -0.000011   0.000002  -0.005450   0.000064
    25  H    0.017321  -0.020082  -0.000111  -0.000284   0.000019   0.002472
    26  H    0.007292   0.000577   0.000014  -0.000011  -0.000004  -0.000142
    27  H    0.004902  -0.019277   0.000845  -0.001714   0.000010   0.008619
    28  H    0.005105  -0.000011  -0.018430  -0.000014  -0.000015  -0.000283
    29  H    0.004327  -0.007090  -0.020295  -0.000141  -0.000073   0.000127
    30  H    0.000773  -0.000012   0.000080  -0.000452  -0.000008  -0.000679
    31  H   -0.000097   0.000173  -0.000019  -0.018430  -0.000009   0.063681
    32  H    0.002068  -0.000024   0.000039   0.010424   0.000001   0.022858
    33  H   -0.016127   0.001018  -0.010097  -0.009580  -0.000101   0.053336
               7          8          9         10         11         12
     1  Zr  -0.616037  -0.579532  -0.322614  -0.013330  -0.063174   0.040846
     2  O   -0.027862  -1.000191  -0.040973   0.001022   0.003516  -0.000013
     3  O   -0.876343  -0.020408  -0.026588  -0.002061   0.002961   0.004718
     4  O   -0.006711   0.072059  -0.033671   0.001021   0.001200   0.002118
     5  O   -0.033699  -0.014042  -1.242329   0.130457   0.314350   0.157181
     6  Si   0.084484  -0.020333   0.038424  -0.002445  -0.000844  -0.002904
     7  Si  13.795822   0.181886   0.020252  -0.000259  -0.000840   0.004087
     8  Si   0.181886  13.799671   0.025955  -0.000949   0.001155  -0.000711
     9  Si   0.020252   0.025955  14.282552  -0.071198  -0.184343  -0.216670
    10  O   -0.000259  -0.000949  -0.071198   8.525608   0.015036   0.031965
    11  O   -0.000840   0.001155  -0.184343   0.015036   8.517742  -0.050442
    12  O    0.004087  -0.000711  -0.216670   0.031965  -0.050442   8.601639
    13  O    0.007418  -0.094957   0.000275   0.000000   0.000018   0.000009
    14  O    0.009668  -0.368475  -0.001464  -0.000002   0.000001   0.000018
    15  O   -0.002694  -0.304973  -0.000664   0.000000  -0.000024  -0.000017
    16  O    0.003820  -0.010137  -0.001008   0.000005  -0.000002  -0.000001
    17  O   -0.000667   0.096769   0.002547  -0.000002   0.000002  -0.000006
    18  O   -0.000677   0.074417   0.004206  -0.000003  -0.000001  -0.000001
    19  O   -0.407775  -0.015891   0.001052   0.000007  -0.000002  -0.000020
    20  O   -0.108591   0.009681   0.003183   0.000002  -0.000003  -0.000026
    21  O    0.024242  -0.040191  -0.001845   0.000001   0.000001   0.000026
    22  H   -0.000195   0.000088   0.047264  -0.006570  -0.005092   0.219805
    23  H    0.000060   0.000062   0.081022   0.228555  -0.006167   0.005887
    24  H    0.000056  -0.000099   0.037285   0.007365   0.242450  -0.007458
    25  H   -0.000468   0.057394  -0.000212   0.000000  -0.000000  -0.000000
    26  H   -0.000379   0.046102  -0.000043  -0.000000   0.000000  -0.000000
    27  H    0.001259   0.068311  -0.000011   0.000000  -0.000000  -0.000000
    28  H    0.056628  -0.000074  -0.000134  -0.000000  -0.000000  -0.000004
    29  H    0.048129   0.021862  -0.000056   0.000000   0.000000  -0.000001
    30  H    0.040216   0.000104   0.000024  -0.000000  -0.000000   0.000000
    31  H    0.000154  -0.001964  -0.000052   0.000000  -0.000000   0.000000
    32  H   -0.000660   0.000053   0.000006  -0.000000   0.000000   0.000000
    33  H    0.020624   0.000129   0.000078  -0.000000   0.000000   0.000000
              13         14         15         16         17         18
     1  Zr  -0.039672  -0.020156  -0.082284  -0.125846  -0.080966  -0.027109
     2  O    0.187410   0.264135   0.292652   0.004685  -0.039997  -0.014364
     3  O    0.001670  -0.017564  -0.000706  -0.000483   0.007845   0.003728
     4  O   -0.015643  -0.008834   0.001244   0.344882   0.219170   0.198635
     5  O   -0.000664   0.001942   0.000568   0.003207   0.001293  -0.000607
     6  Si   0.036327   0.029619  -0.000352  -0.422776  -0.453815  -0.451045
     7  Si   0.007418   0.009668  -0.002694   0.003820  -0.000667  -0.000677
     8  Si  -0.094957  -0.368475  -0.304973  -0.010137   0.096769   0.074417
     9  Si   0.000275  -0.001464  -0.000664  -0.001008   0.002547   0.004206
    10  O    0.000000  -0.000002   0.000000   0.000005  -0.000002  -0.000003
    11  O    0.000018   0.000001  -0.000024  -0.000002   0.000002  -0.000001
    12  O    0.000009   0.000018  -0.000017  -0.000001  -0.000006  -0.000001
    13  O    8.628984   0.087195  -0.090703   0.003727  -0.030881  -0.045477
    14  O    0.087195   8.675447   0.055428   0.003672  -0.035891  -0.026846
    15  O   -0.090703   0.055428   8.776869  -0.000174   0.003593   0.001669
    16  O    0.003727   0.003672  -0.000174   8.902167  -0.091535  -0.115059
    17  O   -0.030881  -0.035891   0.003593  -0.091535   8.935840   0.227518
    18  O   -0.045477  -0.026846   0.001669  -0.115059   0.227518   9.013424
    19  O    0.000186  -0.000396   0.000139  -0.001558  -0.030087   0.000168
    20  O    0.000008  -0.000238   0.000038   0.000065  -0.000988   0.000015
    21  O   -0.000250   0.016072  -0.000607  -0.000214  -0.005560   0.000476
    22  H   -0.000000  -0.000000  -0.000000   0.000000   0.000000  -0.000000
    23  H    0.000000   0.000000  -0.000000  -0.000000   0.000000  -0.000000
    24  H   -0.000000   0.000000   0.000002   0.000000  -0.000000  -0.000000
    25  H    0.218269  -0.011971   0.008916  -0.000052   0.000634   0.014900
    26  H   -0.005137  -0.010075   0.217065   0.000000  -0.000003   0.000006
    27  H   -0.009766   0.219204   0.004628   0.000184   0.017908  -0.000265
    28  H   -0.000000  -0.000005  -0.000001  -0.000000   0.000004  -0.000000
    29  H    0.000795   0.017582  -0.002570  -0.000004  -0.000394   0.000006
    30  H    0.000001   0.000000   0.000000   0.000116  -0.000396  -0.000007
    31  H    0.002357   0.000166  -0.000018   0.003803  -0.000758   0.218137
    32  H   -0.000008  -0.000006   0.000000   0.233420  -0.003638   0.003886
    33  H    0.000230   0.002081  -0.000035  -0.000118   0.231006   0.002107
              19         20         21         22         23         24
     1  Zr   0.000178  -0.145899   0.035674  -0.008929  -0.007643  -0.005211
     2  O    0.009053  -0.000574   0.010443  -0.000018  -0.000013  -0.000196
     3  O    0.264479   0.163847   0.146471  -0.000016  -0.000006  -0.000011
     4  O    0.010146  -0.000871   0.003388  -0.000009  -0.000056   0.000002
     5  O    0.002120   0.001464   0.000221   0.005740  -0.025242  -0.005450
     6  Si  -0.007226   0.009004  -0.011770   0.000085   0.000082   0.000064
     7  Si  -0.407775  -0.108591   0.024242  -0.000195   0.000060   0.000056
     8  Si  -0.015891   0.009681  -0.040191   0.000088   0.000062  -0.000099
     9  Si   0.001052   0.003183  -0.001845   0.047264   0.081022   0.037285
    10  O    0.000007   0.000002   0.000001  -0.006570   0.228555   0.007365
    11  O   -0.000002  -0.000003   0.000001  -0.005092  -0.006167   0.242450
    12  O   -0.000020  -0.000026   0.000026   0.219805   0.005887  -0.007458
    13  O    0.000186   0.000008  -0.000250  -0.000000   0.000000  -0.000000
    14  O   -0.000396  -0.000238   0.016072  -0.000000   0.000000   0.000000
    15  O    0.000139   0.000038  -0.000607  -0.000000  -0.000000   0.000002
    16  O   -0.001558   0.000065  -0.000214   0.000000  -0.000000   0.000000
    17  O   -0.030087  -0.000988  -0.005560   0.000000   0.000000  -0.000000
    18  O    0.000168   0.000015   0.000476  -0.000000  -0.000000  -0.000000
    19  O    8.872499   0.032104   0.023521  -0.000000   0.000000  -0.000000
    20  O    0.032104   8.656838  -0.050446   0.000000   0.000000  -0.000000
    21  O    0.023521  -0.050446   8.485674  -0.000000   0.000000   0.000000
    22  H   -0.000000   0.000000  -0.000000   0.361654   0.000057   0.000122
    23  H    0.000000   0.000000   0.000000   0.000057   0.351011   0.000014
    24  H   -0.000000  -0.000000   0.000000   0.000122   0.000014   0.365112
    25  H   -0.000024   0.000000  -0.000019   0.000000   0.000000   0.000000
    26  H    0.000001  -0.000000   0.000039  -0.000000  -0.000000  -0.000000
    27  H    0.000028   0.000192  -0.004024  -0.000000  -0.000000   0.000000
    28  H    0.004615   0.229591  -0.002074  -0.000000   0.000000  -0.000000
    29  H   -0.008567   0.007667   0.206463   0.000000   0.000000  -0.000000
    30  H    0.224223  -0.001477  -0.007144   0.000000   0.000000  -0.000000
    31  H    0.000004  -0.000000  -0.000000  -0.000000  -0.000000   0.000000
    32  H    0.000097  -0.000000   0.000001  -0.000000  -0.000000  -0.000000
    33  H    0.014845  -0.000081   0.001470  -0.000000  -0.000000  -0.000000
              25         26         27         28         29         30
     1  Zr   0.017321   0.007292   0.004902   0.005105   0.004327   0.000773
     2  O   -0.020082   0.000577  -0.019277  -0.000011  -0.007090  -0.000012
     3  O   -0.000111   0.000014   0.000845  -0.018430  -0.020295   0.000080
     4  O   -0.000284  -0.000011  -0.001714  -0.000014  -0.000141  -0.000452
     5  O    0.000019  -0.000004   0.000010  -0.000015  -0.000073  -0.000008
     6  Si   0.002472  -0.000142   0.008619  -0.000283   0.000127  -0.000679
     7  Si  -0.000468  -0.000379   0.001259   0.056628   0.048129   0.040216
     8  Si   0.057394   0.046102   0.068311  -0.000074   0.021862   0.000104
     9  Si  -0.000212  -0.000043  -0.000011  -0.000134  -0.000056   0.000024
    10  O    0.000000  -0.000000   0.000000  -0.000000   0.000000  -0.000000
    11  O   -0.000000   0.000000  -0.000000  -0.000000   0.000000  -0.000000
    12  O   -0.000000  -0.000000  -0.000000  -0.000004  -0.000001   0.000000
    13  O    0.218269  -0.005137  -0.009766  -0.000000   0.000795   0.000001
    14  O   -0.011971  -0.010075   0.219204  -0.000005   0.017582   0.000000
    15  O    0.008916   0.217065   0.004628  -0.000001  -0.002570   0.000000
    16  O   -0.000052   0.000000   0.000184  -0.000000  -0.000004   0.000116
    17  O    0.000634  -0.000003   0.017908   0.000004  -0.000394  -0.000396
    18  O    0.014900   0.000006  -0.000265  -0.000000   0.000006  -0.000007
    19  O   -0.000024   0.000001   0.000028   0.004615  -0.008567   0.224223
    20  O    0.000000  -0.000000   0.000192   0.229591   0.007667  -0.001477
    21  O   -0.000019   0.000039  -0.004024  -0.002074   0.206463  -0.007144
    22  H    0.000000  -0.000000  -0.000000  -0.000000   0.000000   0.000000
    23  H    0.000000  -0.000000  -0.000000   0.000000   0.000000   0.000000
    24  H    0.000000  -0.000000   0.000000  -0.000000  -0.000000  -0.000000
    25  H    0.298901  -0.000012   0.000114   0.000000   0.000001   0.000000
    26  H   -0.000012   0.365976   0.000036   0.000000   0.000021  -0.000000
    27  H    0.000114   0.000036   0.283367  -0.000000  -0.001496   0.000009
    28  H    0.000000   0.000000  -0.000000   0.349193  -0.000017  -0.000016
    29  H    0.000001   0.000021  -0.001496  -0.000017   0.285943   0.000155
    30  H    0.000000  -0.000000   0.000009  -0.000016   0.000155   0.334240
    31  H   -0.000493   0.000000   0.000013  -0.000000   0.000000  -0.000000
    32  H   -0.000001   0.000000  -0.000000   0.000000  -0.000000  -0.000000
    33  H    0.000006  -0.000000  -0.002409  -0.000002   0.000100  -0.001156
              31         32         33
     1  Zr  -0.000097   0.002068  -0.016127
     2  O    0.000173  -0.000024   0.001018
     3  O   -0.000019   0.000039  -0.010097
     4  O   -0.018430   0.010424  -0.009580
     5  O   -0.000009   0.000001  -0.000101
     6  Si   0.063681   0.022858   0.053336
     7  Si   0.000154  -0.000660   0.020624
     8  Si  -0.001964   0.000053   0.000129
     9  Si  -0.000052   0.000006   0.000078
    10  O    0.000000  -0.000000  -0.000000
    11  O   -0.000000   0.000000   0.000000
    12  O    0.000000   0.000000   0.000000
    13  O    0.002357  -0.000008   0.000230
    14  O    0.000166  -0.000006   0.002081
    15  O   -0.000018   0.000000  -0.000035
    16  O    0.003803   0.233420  -0.000118
    17  O   -0.000758  -0.003638   0.231006
    18  O    0.218137   0.003886   0.002107
    19  O    0.000004   0.000097   0.014845
    20  O   -0.000000  -0.000000  -0.000081
    21  O   -0.000000   0.000001   0.001470
    22  H   -0.000000  -0.000000  -0.000000
    23  H   -0.000000  -0.000000  -0.000000
    24  H    0.000000  -0.000000  -0.000000
    25  H   -0.000493  -0.000001   0.000006
    26  H    0.000000   0.000000  -0.000000
    27  H    0.000013  -0.000000  -0.002409
    28  H   -0.000000   0.000000  -0.000002
    29  H    0.000000  -0.000000   0.000100
    30  H   -0.000000  -0.000000  -0.001156
    31  H    0.331383   0.000001  -0.000038
    32  H    0.000001   0.349942   0.000157
    33  H   -0.000038   0.000157   0.269257
 Mulliken charges:
               1
     1  Zr   0.000804
     2  O   -0.549040
     3  O   -0.417683
     4  O   -0.680797
     5  O   -0.367223
     6  Si   2.231600
     7  Si   1.785050
     8  Si   2.017226
     9  Si   1.599751
    10  O   -0.844224
    11  O   -0.787498
    12  O   -0.790026
    13  O   -0.841722
    14  O   -0.880307
    15  O   -0.876989
    16  O   -0.734784
    17  O   -0.968545
    18  O   -1.081837
    19  O   -0.987921
    20  O   -0.804506
    21  O   -0.830042
    22  H    0.386014
    23  H    0.372377
    24  H    0.365954
    25  H    0.414783
    26  H    0.378675
    27  H    0.429333
    28  H    0.375945
    29  H    0.447529
    30  H    0.411407
    31  H    0.402009
    32  H    0.381385
    33  H    0.443302
 Sum of Mulliken charges =  -0.00000
 Mulliken charges with hydrogens summed into heavy atoms:
               1
     1  Zr   0.000804
     2  O   -0.549040
     3  O   -0.417683
     4  O   -0.680797
     5  O   -0.367223
     6  Si   2.231600
     7  Si   1.785050
     8  Si   2.017226
     9  Si   1.599751
    10  O   -0.471847
    11  O   -0.421545
    12  O   -0.404012
    13  O   -0.426938
    14  O   -0.450974
    15  O   -0.498313
    16  O   -0.353400
    17  O   -0.525243
    18  O   -0.679828
    19  O   -0.576514
    20  O   -0.428561
    21  O   -0.382513
 Electronic spatial extent (au):  <R**2>=           9869.3222
 Charge=             -0.0000 electrons
 Dipole moment (field-independent basis, Debye):
    X=              1.0861    Y=             -0.7641    Z=             -2.3805  Tot=              2.7258
 Quadrupole moment (field-independent basis, Debye-Ang):
   XX=           -160.2097   YY=           -154.6373   ZZ=           -157.8284
   XY=             -4.8718   XZ=              2.2809   YZ=              5.7323
 Traceless Quadrupole moment (field-independent basis, Debye-Ang):
   XX=             -2.6512   YY=              2.9212   ZZ=             -0.2699
   XY=             -4.8718   XZ=              2.2809   YZ=              5.7323
 Octapole moment (field-independent basis, Debye-Ang**2):
  XXX=             74.2677  YYY=              6.8718  ZZZ=            -17.5728  XYY=             -1.6686
  XXY=             20.2661  XXZ=             19.0564  XZZ=              5.0015  YZZ=            -17.1907
  YYZ=            -16.4475  XYZ=             28.1453
 Hexadecapole moment (field-independent basis, Debye-Ang**3):
 XXXX=          -6031.5064 YYYY=          -2835.6095 ZZZZ=          -2263.2216 XXXY=             58.3276
 XXXZ=            -28.2031 YYYX=              4.9379 YYYZ=            218.6215 ZZZX=           -179.3705
 ZZZY=            -55.9212 XXYY=          -1479.6248 XXZZ=          -1365.7109 YYZZ=           -923.7412
 XXYZ=             -7.3494 YYXZ=            126.8501 ZZXY=            -61.1442
 N-N= 2.832851984493D+03 E-N=-1.137830521052D+04  KE= 2.373154931214D+03
 PrsmSu:  requested number of processors reduced to:   2 ShMem   1 Linda.
 PrsmSu:  requested number of processors reduced to:  10 ShMem   1 Linda.
   1 Symmetry operations used in ECPInt.
 ECPInt:  NShTT=   13203 NPrTT=   78401 LenC2=   11526 LenP2D=   44635.
 LDataN:  DoStor=T MaxTD1= 9 Len=  602
 Number of processors reduced to  14 by ecpmxn.
 Calling FoFJK, ICntrl=      2127 FMM=F ISym2X=0 I1Cent= 0 IOpClX= 0 NMat=1 NMatS=1 NMatT=0.
 CoulSu:  requested number of processors reduced to:  10 ShMem   1 Linda.
 Defaulting to unpruned grid for atomic number  40.
 Defaulting to unpruned grid for atomic number  40.
 Defaulting to unpruned grid for atomic number  40.
 Defaulting to unpruned grid for atomic number  40.
 Defaulting to unpruned grid for atomic number  40.
 Defaulting to unpruned grid for atomic number  40.
 Defaulting to unpruned grid for atomic number  40.
 Defaulting to unpruned grid for atomic number  40.
 Defaulting to unpruned grid for atomic number  40.
 Defaulting to unpruned grid for atomic number  40.
 Defaulting to unpruned grid for atomic number  40.
 Defaulting to unpruned grid for atomic number  40.
 Defaulting to unpruned grid for atomic number  40.
 Defaulting to unpruned grid for atomic number  40.
 Defaulting to unpruned grid for atomic number  40.
 Defaulting to unpruned grid for atomic number  40.
 ***** Axes restored to original set *****
 -------------------------------------------------------------------
 Center     Atomic                   Forces (Hartrees/Bohr)
 Number     Number              X              Y              Z
 -------------------------------------------------------------------
      1       40          -0.000025519   -0.000024776   -0.000076206
      2        8           0.000005848    0.000005526    0.000031045
      3        8          -0.000001229   -0.000004411    0.000006895
      4        8           0.000005286    0.000007700    0.000023158
      5        8           0.000013148    0.000027145    0.000014214
      6       14          -0.000014883    0.000005336   -0.000005341
      7       14           0.000017235   -0.000005969   -0.000017107
      8       14          -0.000007549   -0.000018367   -0.000014447
      9       14          -0.000011075   -0.000011630    0.000012869
     10        8           0.000007680    0.000016938   -0.000004282
     11        8           0.000010073   -0.000002526   -0.000002663
     12        8           0.000010371   -0.000000740    0.000006508
     13        8          -0.000001987    0.000011263    0.000007498
     14        8           0.000002158    0.000002441    0.000006484
     15        8           0.000002765    0.000002541   -0.000000180
     16        8           0.000002000   -0.000000306    0.000003390
     17        8           0.000009232   -0.000001346   -0.000003027
     18        8          -0.000008656    0.000005814    0.000005338
     19        8          -0.000000361    0.000003544    0.000004100
     20        8          -0.000002966    0.000002460    0.000006492
     21        8          -0.000005856    0.000003201    0.000008003
     22        1          -0.000000237   -0.000006187   -0.000001160
     23        1          -0.000008398   -0.000013574   -0.000002953
     24        1          -0.000005257   -0.000005002    0.000001712
     25        1           0.000001794   -0.000001128   -0.000005429
     26        1          -0.000000720    0.000002936    0.000002200
     27        1          -0.000001583    0.000001967   -0.000005126
     28        1           0.000003672   -0.000000551   -0.000002377
     29        1           0.000000690   -0.000001275    0.000000169
     30        1           0.000001992    0.000001065   -0.000000489
     31        1           0.000005706   -0.000003490   -0.000001940
     32        1          -0.000001747    0.000001315    0.000000217
     33        1          -0.000001625    0.000000083    0.000002434
 -------------------------------------------------------------------
 Cartesian Forces:  Max     0.000076206 RMS     0.000011760

 GradGradGradGradGradGradGradGradGradGradGradGradGradGradGradGradGradGrad
 Berny optimization.
 FormGI is forming the generalized inverse of G from B-inverse, IUseBI=4.
 Internal  Forces:  Max     0.000057895 RMS     0.000008887
 Search for a local minimum.
 Step number   1 out of a maximum of  148
 All quantities printed in internal units (Hartrees-Bohrs-Radians)
 Mixed Optimization -- En-DIIS/RFO-DIIS
 Second derivative matrix not updated -- first step.
 ITU=  0
     Eigenvalues ---    0.00230   0.00230   0.00230   0.03240   0.03358
     Eigenvalues ---    0.03498   0.03580   0.03665   0.03665   0.03680
     Eigenvalues ---    0.03686   0.03693   0.03739   0.03789   0.03792
     Eigenvalues ---    0.03816   0.03834   0.03850   0.05521   0.09402
     Eigenvalues ---    0.09687   0.11077   0.11224   0.11833   0.11884
     Eigenvalues ---    0.11890   0.12177   0.12239   0.12299   0.12782
     Eigenvalues ---    0.12895   0.13099   0.13313   0.16000   0.16000
     Eigenvalues ---    0.16000   0.16000   0.16000   0.16000   0.16000
     Eigenvalues ---    0.16000   0.16000   0.16000   0.16000   0.16000
     Eigenvalues ---    0.19173   0.19314   0.19332   0.20013   0.20203
     Eigenvalues ---    0.20204   0.20208   0.20515   0.20653   0.20795
     Eigenvalues ---    0.20989   0.21175   0.21186   0.21227   0.25000
     Eigenvalues ---    0.25000   0.25000   0.38002   0.39187   0.40659
     Eigenvalues ---    0.41547   0.42502   0.42509   0.42670   0.42743
     Eigenvalues ---    0.42824   0.43363   0.43951   0.43980   0.44273
     Eigenvalues ---    0.44485   0.44689   0.44769   0.50655   0.51353
     Eigenvalues ---    0.52036   0.52548   0.54334   0.54624   0.54643
     Eigenvalues ---    0.54649   0.54689   0.54692   0.54712   0.54765
     Eigenvalues --- 1000.000001000.000001000.000001000.000001000.00000
     Eigenvalues --- 1000.000001000.000001000.000001000.000001000.00000
     Eigenvalues --- 1000.000001000.000001000.000001000.000001000.00000
     Eigenvalues --- 1000.000001000.000001000.000001000.000001000.00000
     Eigenvalues --- 1000.000001000.000001000.000001000.000001000.00000
     Eigenvalues --- 1000.000001000.000001000.000001000.000001000.00000
     Eigenvalues --- 1000.000001000.000001000.000001000.000001000.00000
     Eigenvalues --- 1000.000001000.000001000.000001000.000001000.00000
     Eigenvalues --- 1000.000001000.000001000.000001000.000001000.00000
     Eigenvalues --- 1000.000001000.000001000.00000
 RFO step:  Lambda=-8.19380507D-08 EMin= 2.30000000D-03
 Linear search not attempted -- first point.
 Iteration  1 RMS(Cart)=  0.00096608 RMS(Int)=  0.00000021
 Iteration  2 RMS(Cart)=  0.00000039 RMS(Int)=  0.00000001
 Iteration  1 RMS(Cart)=  0.00000000 RMS(Int)=  0.00000000
 Variable       Old X    -DE/DX   Delta X   Delta X   Delta X     New X
                                 (Linear)    (Quad)   (Total)
    R1        3.67647   0.00001   0.00000   0.00007   0.00007   3.67654
    R2        3.69189  -0.00001   0.00000  -0.00003  -0.00003   3.69186
    R3        3.73835  -0.00002   0.00000  -0.00012  -0.00012   3.73823
    R4        3.70232   0.00001   0.00000   0.00007   0.00007   3.70239
    R5        3.11688  -0.00000   0.00000  -0.00000  -0.00000   3.11687
    R6        3.09579  -0.00001   0.00000  -0.00001  -0.00001   3.09578
    R7        3.10213   0.00000   0.00000   0.00001   0.00001   3.10214
    R8        3.09245   0.00000   0.00000   0.00001   0.00001   3.09246
    R9        3.11587  -0.00000   0.00000  -0.00001  -0.00001   3.11586
   R10        3.11989  -0.00001   0.00000  -0.00002  -0.00002   3.11987
   R11        3.14367   0.00000   0.00000   0.00000   0.00000   3.14368
   R12        3.18062  -0.00000   0.00000  -0.00001  -0.00001   3.18062
   R13        3.10924   0.00000   0.00000   0.00000   0.00000   3.10924
   R14        3.09339   0.00001   0.00000   0.00002   0.00002   3.09341
   R15        3.10179  -0.00001   0.00000  -0.00002  -0.00002   3.10177
   R16        3.16373   0.00000   0.00000   0.00000   0.00000   3.16374
   R17        3.09830   0.00000   0.00000   0.00001   0.00001   3.09830
   R18        3.11980   0.00001   0.00000   0.00002   0.00002   3.11982
   R19        3.13204   0.00001   0.00000   0.00001   0.00001   3.13205
   R20        3.11779   0.00000   0.00000   0.00000   0.00000   3.11780
   R21        1.82151   0.00001   0.00000   0.00001   0.00001   1.82153
   R22        1.82107   0.00000   0.00000   0.00001   0.00001   1.82107
   R23        1.82089  -0.00000   0.00000  -0.00000  -0.00000   1.82089
   R24        1.84078   0.00001   0.00000   0.00001   0.00001   1.84079
   R25        1.84565   0.00001   0.00000   0.00001   0.00001   1.84566
   R26        1.82041   0.00000   0.00000   0.00000   0.00000   1.82042
   R27        1.82109  -0.00000   0.00000  -0.00000  -0.00000   1.82109
   R28        1.85910  -0.00000   0.00000  -0.00000  -0.00000   1.85910
   R29        1.82145   0.00001   0.00000   0.00001   0.00001   1.82146
   R30        1.82428  -0.00000   0.00000  -0.00000  -0.00000   1.82428
   R31        1.82168  -0.00000   0.00000  -0.00000  -0.00000   1.82167
   R32        1.85224   0.00000   0.00000   0.00000   0.00000   1.85224
    A1        1.85172  -0.00000   0.00000  -0.00019  -0.00019   1.85153
    A2        1.80155  -0.00000   0.00000   0.00001   0.00001   1.80156
    A3        1.96889  -0.00002   0.00000  -0.00020  -0.00020   1.96869
    A4        1.83430   0.00000   0.00000   0.00016   0.00016   1.83446
    A5        2.01802  -0.00001   0.00000  -0.00006  -0.00006   2.01797
    A6        1.97057   0.00003   0.00000   0.00029   0.00029   1.97086
    A7        2.46524  -0.00002   0.00000  -0.00007  -0.00007   2.46517
    A8        2.58826   0.00000   0.00000   0.00002   0.00002   2.58828
    A9        2.35483  -0.00001   0.00000  -0.00004  -0.00004   2.35479
   A10        2.86714   0.00006   0.00000   0.00000  -0.00000   2.86714
   A11        1.91978  -0.00000   0.00000   0.00000   0.00000   1.91978
   A12        1.91546  -0.00000   0.00000  -0.00001  -0.00001   1.91545
   A13        1.95201  -0.00000   0.00000  -0.00003  -0.00003   1.95199
   A14        2.00708   0.00000   0.00000   0.00002   0.00002   2.00710
   A15        1.88610   0.00000   0.00000   0.00001   0.00001   1.88612
   A16        1.78001  -0.00000   0.00000  -0.00000  -0.00000   1.78000
[...]
 Alpha virt. eigenvalues --    3.14692   3.20324   3.35831   3.41106   3.46757
 Alpha virt. eigenvalues --    3.47861   3.48594   3.48630   3.51090   3.51108
 Alpha virt. eigenvalues --    3.52887   3.54171   3.60320   3.61099   3.62071
 Alpha virt. eigenvalues --    3.66193   4.32128   4.59471   7.89511  31.29208
          Condensed to atoms (all electrons):
               1          2          3          4          5          6
     1  Zr  15.090493  -0.130469  -0.001806  -0.137544  -0.194042  -0.590480
     2  O   -0.130469   9.067106   0.019530  -0.042578  -0.057540   0.089889
     3  O   -0.001806   0.019530   8.829267   0.015508  -0.043507  -0.004546
     4  O   -0.137544  -0.042578   0.015508   8.811684  -0.059750  -0.674637
     5  O   -0.194042  -0.057540  -0.043507  -0.059750   9.432110  -0.006734
     6  Si  -0.590480   0.089889  -0.004546  -0.674637  -0.006734  13.980457
     7  Si  -0.616378  -0.028004  -0.876733  -0.006669  -0.033739   0.084317
     8  Si  -0.580694  -1.000610  -0.020406   0.072151  -0.014076  -0.020437
     9  Si  -0.322534  -0.041049  -0.026594  -0.033436  -1.241475   0.038422
    10  O   -0.013227   0.001024  -0.002060   0.001013   0.130488  -0.002442
    11  O   -0.063316   0.003518   0.002964   0.001193   0.314417  -0.000838
    12  O    0.040985  -0.000012   0.004705   0.002105   0.156906  -0.002907
    13  O   -0.039386   0.187309   0.001668  -0.015678  -0.000666   0.036356
    14  O   -0.019761   0.264129  -0.017598  -0.008816   0.001938   0.029592
    15  O   -0.082378   0.292741  -0.000708   0.001244   0.000572  -0.000334
    16  O   -0.125894   0.004686  -0.000488   0.344758   0.003194  -0.422773
    17  O   -0.081533  -0.040047   0.007834   0.219282   0.001290  -0.453832
    18  O   -0.027093  -0.014421   0.003730   0.198702  -0.000602  -0.451292
    19  O    0.000387   0.009048   0.264495   0.010173   0.002124  -0.007260
    20  O   -0.145825  -0.000574   0.163828  -0.000870   0.001463   0.009011
    21  O    0.035657   0.010441   0.146560   0.003388   0.000221  -0.011771
    22  H   -0.008941  -0.000018  -0.000015  -0.000009   0.005755   0.000086
    23  H   -0.007666  -0.000013  -0.000006  -0.000056  -0.025269   0.000082
    24  H   -0.005219  -0.000196  -0.000011   0.000002  -0.005447   0.000064
    25  H    0.017284  -0.020071  -0.000111  -0.000292   0.000019   0.002509
    26  H    0.007300   0.000581   0.000014  -0.000011  -0.000004  -0.000143
    27  H    0.004803  -0.019250   0.000848  -0.001714   0.000010   0.008623
    28  H    0.005093  -0.000011  -0.018425  -0.000014  -0.000015  -0.000283
    29  H    0.004323  -0.007083  -0.020303  -0.000141  -0.000074   0.000125
    30  H    0.000764  -0.000012   0.000078  -0.000452  -0.000008  -0.000681
    31  H   -0.000117   0.000173  -0.000019  -0.018442  -0.000009   0.063721
    32  H    0.002081  -0.000024   0.000040   0.010423   0.000001   0.022859
    33  H   -0.016090   0.001021  -0.010102  -0.009577  -0.000101   0.053305
               7          8          9         10         11         12
     1  Zr  -0.616378  -0.580694  -0.322534  -0.013227  -0.063316   0.040985
     2  O   -0.028004  -1.000610  -0.041049   0.001024   0.003518  -0.000012
     3  O   -0.876733  -0.020406  -0.026594  -0.002060   0.002964   0.004705
     4  O   -0.006669   0.072151  -0.033436   0.001013   0.001193   0.002105
     5  O   -0.033739  -0.014076  -1.241475   0.130488   0.314417   0.156906
     6  Si   0.084317  -0.020437   0.038422  -0.002442  -0.000838  -0.002907
     7  Si  13.796919   0.182137   0.020256  -0.000261  -0.000836   0.004084
     8  Si   0.182137  13.801353   0.025925  -0.000954   0.001165  -0.000718
     9  Si   0.020256   0.025925  14.281050  -0.071199  -0.184389  -0.216341
    10  O   -0.000261  -0.000954  -0.071199   8.525562   0.015031   0.031955
    11  O   -0.000836   0.001165  -0.184389   0.015031   8.517880  -0.050539
    12  O    0.004084  -0.000718  -0.216341   0.031955  -0.050539   8.601562
    13  O    0.007409  -0.094897   0.000264   0.000000   0.000018   0.000009
    14  O    0.009740  -0.368878  -0.001467  -0.000002   0.000001   0.000018
    15  O   -0.002705  -0.305063  -0.000656   0.000000  -0.000024  -0.000017
    16  O    0.003844  -0.010150  -0.001014   0.000005  -0.000002  -0.000001
    17  O   -0.000581   0.096898   0.002559  -0.000002   0.000002  -0.000006
    18  O   -0.000684   0.074556   0.004205  -0.000003  -0.000001  -0.000001
    19  O   -0.408041  -0.015935   0.001051   0.000007  -0.000002  -0.000020
    20  O   -0.108600   0.009675   0.003178   0.000002  -0.000003  -0.000026
    21  O    0.024156  -0.040197  -0.001845   0.000001   0.000001   0.000026
    22  H   -0.000194   0.000088   0.047281  -0.006568  -0.005092   0.219787
    23  H    0.000061   0.000063   0.081094   0.228549  -0.006183   0.005897
    24  H    0.000056  -0.000099   0.037291   0.007358   0.242448  -0.007453
    25  H   -0.000468   0.057387  -0.000212   0.000000  -0.000000  -0.000000
    26  H   -0.000379   0.046084  -0.000043  -0.000000   0.000000  -0.000000
    27  H    0.001254   0.068326  -0.000011   0.000000  -0.000000  -0.000000
    28  H    0.056625  -0.000073  -0.000134  -0.000000  -0.000000  -0.000004
    29  H    0.048146   0.021860  -0.000056   0.000000   0.000000  -0.000001
    30  H    0.040220   0.000106   0.000023  -0.000000  -0.000000   0.000000
    31  H    0.000155  -0.001962  -0.000053   0.000000  -0.000000   0.000000
    32  H   -0.000661   0.000053   0.000006  -0.000000   0.000000   0.000000
    33  H    0.020618   0.000125   0.000078  -0.000000   0.000000   0.000000
              13         14         15         16         17         18
     1  Zr  -0.039386  -0.019761  -0.082378  -0.125894  -0.081533  -0.027093
     2  O    0.187309   0.264129   0.292741   0.004686  -0.040047  -0.014421
     3  O    0.001668  -0.017598  -0.000708  -0.000488   0.007834   0.003730
     4  O   -0.015678  -0.008816   0.001244   0.344758   0.219282   0.198702
     5  O   -0.000666   0.001938   0.000572   0.003194   0.001290  -0.000602
     6  Si   0.036356   0.029592  -0.000334  -0.422773  -0.453832  -0.451292
     7  Si   0.007409   0.009740  -0.002705   0.003844  -0.000581  -0.000684
     8  Si  -0.094897  -0.368878  -0.305063  -0.010150   0.096898   0.074556
     9  Si   0.000264  -0.001467  -0.000656  -0.001014   0.002559   0.004205
    10  O    0.000000  -0.000002   0.000000   0.000005  -0.000002  -0.000003
    11  O    0.000018   0.000001  -0.000024  -0.000002   0.000002  -0.000001
    12  O    0.000009   0.000018  -0.000017  -0.000001  -0.000006  -0.000001
    13  O    8.628908   0.087241  -0.090696   0.003738  -0.030934  -0.045587
    14  O    0.087241   8.675715   0.055431   0.003673  -0.035913  -0.026868
    15  O   -0.090696   0.055431   8.776955  -0.000175   0.003597   0.001671
    16  O    0.003738   0.003673  -0.000175   8.902497  -0.091670  -0.115214
    17  O   -0.030934  -0.035913   0.003597  -0.091670   8.936666   0.227663
    18  O   -0.045587  -0.026868   0.001671  -0.115214   0.227663   9.013686
    19  O    0.000186  -0.000413   0.000139  -0.001560  -0.030150   0.000169
    20  O    0.000008  -0.000238   0.000039   0.000065  -0.000986   0.000015
    21  O   -0.000252   0.016045  -0.000603  -0.000214  -0.005575   0.000476
    22  H   -0.000000  -0.000000  -0.000000   0.000000   0.000000  -0.000000
    23  H    0.000000   0.000000  -0.000000  -0.000000   0.000000  -0.000000
    24  H   -0.000000   0.000000   0.000002   0.000000  -0.000000  -0.000000
    25  H    0.218286  -0.011968   0.008914  -0.000052   0.000631   0.014887
    26  H   -0.005135  -0.010071   0.217060   0.000000  -0.000003   0.000006
    27  H   -0.009757   0.219212   0.004629   0.000184   0.017916  -0.000259
    28  H   -0.000000  -0.000005  -0.000001  -0.000000   0.000004  -0.000000
    29  H    0.000794   0.017608  -0.002567  -0.000004  -0.000395   0.000006
    30  H    0.000001   0.000001   0.000000   0.000116  -0.000393  -0.000007
    31  H    0.002359   0.000166  -0.000018   0.003809  -0.000758   0.218120
    32  H   -0.000008  -0.000006   0.000000   0.233405  -0.003637   0.003885
    33  H    0.000231   0.002076  -0.000035  -0.000108   0.230985   0.002104
              19         20         21         22         23         24
     1  Zr   0.000387  -0.145825   0.035657  -0.008941  -0.007666  -0.005219
     2  O    0.009048  -0.000574   0.010441  -0.000018  -0.000013  -0.000196
     3  O    0.264495   0.163828   0.146560  -0.000015  -0.000006  -0.000011
     4  O    0.010173  -0.000870   0.003388  -0.000009  -0.000056   0.000002
     5  O    0.002124   0.001463   0.000221   0.005755  -0.025269  -0.005447
     6  Si  -0.007260   0.009011  -0.011771   0.000086   0.000082   0.000064
     7  Si  -0.408041  -0.108600   0.024156  -0.000194   0.000061   0.000056
     8  Si  -0.015935   0.009675  -0.040197   0.000088   0.000063  -0.000099
     9  Si   0.001051   0.003178  -0.001845   0.047281   0.081094   0.037291
    10  O    0.000007   0.000002   0.000001  -0.006568   0.228549   0.007358
    11  O   -0.000002  -0.000003   0.000001  -0.005092  -0.006183   0.242448
    12  O   -0.000020  -0.000026   0.000026   0.219787   0.005897  -0.007453
    13  O    0.000186   0.000008  -0.000252  -0.000000   0.000000  -0.000000
    14  O   -0.000413  -0.000238   0.016045  -0.000000   0.000000   0.000000
    15  O    0.000139   0.000039  -0.000603  -0.000000  -0.000000   0.000002
    16  O   -0.001560   0.000065  -0.000214   0.000000  -0.000000   0.000000
    17  O   -0.030150  -0.000986  -0.005575   0.000000   0.000000  -0.000000
    18  O    0.000169   0.000015   0.000476  -0.000000  -0.000000  -0.000000
    19  O    8.872510   0.032206   0.023512  -0.000000   0.000000  -0.000000
    20  O    0.032206   8.656759  -0.050501   0.000000   0.000000  -0.000000
    21  O    0.023512  -0.050501   8.485762  -0.000000   0.000000   0.000000
    22  H   -0.000000   0.000000  -0.000000   0.361662   0.000056   0.000122
    23  H    0.000000   0.000000   0.000000   0.000056   0.351038   0.000014
    24  H   -0.000000  -0.000000   0.000000   0.000122   0.000014   0.365113
    25  H   -0.000024   0.000000  -0.000019   0.000000   0.000000   0.000000
    26  H    0.000001  -0.000000   0.000039  -0.000000  -0.000000  -0.000000
    27  H    0.000032   0.000192  -0.004020  -0.000000  -0.000000   0.000000
    28  H    0.004613   0.229608  -0.002074  -0.000000   0.000000  -0.000000
    29  H   -0.008568   0.007669   0.206439   0.000000   0.000000  -0.000000
    30  H    0.224234  -0.001476  -0.007142   0.000000   0.000000  -0.000000
    31  H    0.000004  -0.000000  -0.000000  -0.000000  -0.000000   0.000000
    32  H    0.000098  -0.000000   0.000001  -0.000000  -0.000000  -0.000000
    33  H    0.014839  -0.000082   0.001471  -0.000000  -0.000000  -0.000000
              25         26         27         28         29         30
     1  Zr   0.017284   0.007300   0.004803   0.005093   0.004323   0.000764
     2  O   -0.020071   0.000581  -0.019250  -0.000011  -0.007083  -0.000012
     3  O   -0.000111   0.000014   0.000848  -0.018425  -0.020303   0.000078
     4  O   -0.000292  -0.000011  -0.001714  -0.000014  -0.000141  -0.000452
     5  O    0.000019  -0.000004   0.000010  -0.000015  -0.000074  -0.000008
     6  Si   0.002509  -0.000143   0.008623  -0.000283   0.000125  -0.000681
     7  Si  -0.000468  -0.000379   0.001254   0.056625   0.048146   0.040220
     8  Si   0.057387   0.046084   0.068326  -0.000073   0.021860   0.000106
     9  Si  -0.000212  -0.000043  -0.000011  -0.000134  -0.000056   0.000023
    10  O    0.000000  -0.000000   0.000000  -0.000000   0.000000  -0.000000
    11  O   -0.000000   0.000000  -0.000000  -0.000000   0.000000  -0.000000
    12  O   -0.000000  -0.000000  -0.000000  -0.000004  -0.000001   0.000000
    13  O    0.218286  -0.005135  -0.009757  -0.000000   0.000794   0.000001
    14  O   -0.011968  -0.010071   0.219212  -0.000005   0.017608   0.000001
    15  O    0.008914   0.217060   0.004629  -0.000001  -0.002567   0.000000
    16  O   -0.000052   0.000000   0.000184  -0.000000  -0.000004   0.000116
    17  O    0.000631  -0.000003   0.017916   0.000004  -0.000395  -0.000393
    18  O    0.014887   0.000006  -0.000259  -0.000000   0.000006  -0.000007
    19  O   -0.000024   0.000001   0.000032   0.004613  -0.008568   0.224234
    20  O    0.000000  -0.000000   0.000192   0.229608   0.007669  -0.001476
    21  O   -0.000019   0.000039  -0.004020  -0.002074   0.206439  -0.007142
    22  H    0.000000  -0.000000  -0.000000  -0.000000   0.000000   0.000000
    23  H    0.000000  -0.000000  -0.000000   0.000000   0.000000   0.000000
    24  H    0.000000  -0.000000   0.000000  -0.000000  -0.000000  -0.000000
    25  H    0.298848  -0.000012   0.000114   0.000000   0.000001   0.000000
    26  H   -0.000012   0.365984   0.000036   0.000000   0.000021  -0.000000
    27  H    0.000114   0.000036   0.283350  -0.000000  -0.001499   0.000009
    28  H    0.000000   0.000000  -0.000000   0.349171  -0.000017  -0.000016
    29  H    0.000001   0.000021  -0.001499  -0.000017   0.285959   0.000155
    30  H    0.000000  -0.000000   0.000009  -0.000016   0.000155   0.334193
    31  H   -0.000494   0.000000   0.000013  -0.000000   0.000000  -0.000000
    32  H   -0.000001   0.000000  -0.000000   0.000000  -0.000000  -0.000000
    33  H    0.000006  -0.000000  -0.002410  -0.000002   0.000100  -0.001158
              31         32         33
     1  Zr  -0.000117   0.002081  -0.016090
     2  O    0.000173  -0.000024   0.001021
     3  O   -0.000019   0.000040  -0.010102
     4  O   -0.018442   0.010423  -0.009577
     5  O   -0.000009   0.000001  -0.000101
     6  Si   0.063721   0.022859   0.053305
     7  Si   0.000155  -0.000661   0.020618
     8  Si  -0.001962   0.000053   0.000125
     9  Si  -0.000053   0.000006   0.000078
    10  O    0.000000  -0.000000  -0.000000
    11  O   -0.000000   0.000000   0.000000
    12  O    0.000000   0.000000   0.000000
    13  O    0.002359  -0.000008   0.000231
    14  O    0.000166  -0.000006   0.002076
    15  O   -0.000018   0.000000  -0.000035
    16  O    0.003809   0.233405  -0.000108
    17  O   -0.000758  -0.003637   0.230985
    18  O    0.218120   0.003885   0.002104
    19  O    0.000004   0.000098   0.014839
    20  O   -0.000000  -0.000000  -0.000082
    21  O   -0.000000   0.000001   0.001471
    22  H   -0.000000  -0.000000  -0.000000
    23  H   -0.000000  -0.000000  -0.000000
    24  H    0.000000  -0.000000  -0.000000
    25  H   -0.000494  -0.000001   0.000006
    26  H    0.000000   0.000000  -0.000000
    27  H    0.000013  -0.000000  -0.002410
    28  H   -0.000000   0.000000  -0.000002
    29  H    0.000000  -0.000000   0.000100
    30  H   -0.000000  -0.000000  -0.001158
    31  H    0.331390   0.000001  -0.000038
    32  H    0.000001   0.349942   0.000157
    33  H   -0.000038   0.000157   0.269124
 Mulliken charges:
               1
     1  Zr   0.001224
     2  O   -0.549214
     3  O   -0.417631
     4  O   -0.680940
     5  O   -0.367451
     6  Si   2.231972
     7  Si   1.784936
     8  Si   2.017199
     9  Si   1.599824
    10  O   -0.844275
    11  O   -0.787414
    12  O   -0.789994
    13  O   -0.841789
    14  O   -0.880582
    15  O   -0.877014
    16  O   -0.734655
    17  O   -0.968912
    18  O   -1.081847
    19  O   -0.987853
    20  O   -0.804539
    21  O   -0.829985
    22  H    0.386002
    23  H    0.372340
    24  H    0.365956
    25  H    0.414838
    26  H    0.378676
    27  H    0.429368
    28  H    0.375959
    29  H    0.447503
    30  H    0.411445
    31  H    0.402000
    32  H    0.381387
    33  H    0.443465
 Sum of Mulliken charges =  -0.00000
 Mulliken charges with hydrogens summed into heavy atoms:
               1
     1  Zr   0.001224
     2  O   -0.549214
     3  O   -0.417631
     4  O   -0.680940
     5  O   -0.367451
     6  Si   2.231972
     7  Si   1.784936
     8  Si   2.017199
     9  Si   1.599824
    10  O   -0.471935
    11  O   -0.421458
    12  O   -0.403992
    13  O   -0.426951
    14  O   -0.451213
    15  O   -0.498338
    16  O   -0.353268
    17  O   -0.525447
    18  O   -0.679846
    19  O   -0.576408
    20  O   -0.428580
    21  O   -0.382482
 Electronic spatial extent (au):  <R**2>=           9868.9338
 Charge=              0.0000 electrons
 Dipole moment (field-independent basis, Debye):
    X=              1.0806    Y=             -0.7633    Z=             -2.3878  Tot=              2.7299
 Quadrupole moment (field-independent basis, Debye-Ang):
   XX=           -160.2361   YY=           -154.6345   ZZ=           -157.8183
   XY=             -4.8732   XZ=              2.2885   YZ=              5.7381
 Traceless Quadrupole moment (field-independent basis, Debye-Ang):
   XX=             -2.6731   YY=              2.9285   ZZ=             -0.2553
   XY=             -4.8732   XZ=              2.2885   YZ=              5.7381
 Octapole moment (field-independent basis, Debye-Ang**2):
  XXX=             74.1700  YYY=              6.8914  ZZZ=            -17.6608  XYY=             -1.7039
  XXY=             20.2856  XXZ=             19.0412  XZZ=              4.9673  YZZ=            -17.2488
  YYZ=            -16.4506  XYZ=             28.1139
 Hexadecapole moment (field-independent basis, Debye-Ang**3):
 XXXX=          -6032.8050 YYYY=          -2835.5659 ZZZZ=          -2262.1077 XXXY=             58.1603
 XXXZ=            -27.8122 YYYX=              5.0412 YYYZ=            218.5233 ZZZX=           -179.4248
 ZZZY=            -55.8227 XXYY=          -1479.5522 XXZZ=          -1365.9733 YYZZ=           -923.6493
 XXYZ=             -7.2231 YYXZ=            127.0337 ZZXY=            -60.9543
 N-N= 2.832916577890D+03 E-N=-1.137843400309D+04  KE= 2.373155183686D+03
 1\1\GINC-GRA352\FOpt\RB3LYP\Gen\H12O16Si4Zr1\SARASHS\14-Aug-2020\0\\#n
  B3LYP/Gen Pseudo=cards EmpiricalDispersion=GD3 Opt=modredundant\\Titl
 e\\0,1\Zr,0.6577823861,-0.125484235,-0.0731886754\O,-0.222284535,-0.90
 64033454,1.4762821501\O,0.103063709,1.7470120382,-0.1240314024\O,-0.26
 89696061,-0.9793139018,-1.5980520249\O,2.5921927132,-0.436249651,-0.08
 3095195\Si,-1.8321811071,-1.3325099803,-1.9537055792\Si,-1.1152699923,
 2.8414273521,-0.0833810633\Si,-1.7229910425,-1.1530805146,2.1146212955
 \Si,4.2166616768,-0.258180631,0.0027192259\O,4.9508799482,-0.132107829
 5,-1.4706402276\O,4.9019623577,-1.5870899004,0.7178463904\O,4.45088070
 87,1.1527332008,0.8252044236\O,-2.3187992938,-2.6239980886,1.695706453
 8\O,-2.7236595894,0.0650784641,1.5510344039\O,-1.595848244,-1.01986668
 67,3.7438042127\O,-2.0034278128,-1.5597314026,-3.5777992232\O,-2.82525
 20791,-0.1865454668,-1.3008391793\O,-2.345291011,-2.7143096044,-1.1824
 704767\O,-2.040882196,2.4390834147,-1.4303090061\O,-0.6353484823,4.400
 1185522,-0.3008738839\O,-1.9646987255,2.7610147693,1.3136345573\H,5.33
 80567972,1.5280129384,0.8016814037\H,5.2976937036,-0.9527310872,-1.838
 6631489\H,4.4695959086,-1.9393928013,1.5037321515\H,-2.405630776,-2.80
 92317317,0.7433251999\H,-2.3796508556,-1.2243529097,4.2651750345\H,-3.
 0601841578,-0.0825665782,0.6461291615\H,-0.5264860055,4.9269796761,0.4
 990211431\H,-2.2682628861,1.8695419044,1.5854146169\H,-2.6490002249,3.
 1262818499,-1.7301105861\H,-2.3054022521,-3.5294924174,-1.6952661633\H
 ,-1.2734243318,-1.2632814091,-4.1326775413\H,-2.610374702,0.7548460124
 ,-1.4890684476\\Version=ES64L-G16RevB.01\State=1-A\HF=-2416.9468565\RM
 SD=3.793e-09\RMSF=1.636e-05\Dipole=0.4234344,-0.2998985,-0.9403492\Qua
 drupole=-1.9739682,2.1705056,-0.1965374,-3.6178671,1.7013034,4.2753218
 \PG=C01 [X(H12O16Si4Zr1)]\\@


 EXPERIENCE IS THE FRUIT OF THE TREE OF ERRORS.
 Job cpu time:       0 days  7 hours 28 minutes 50.5 seconds.
 Elapsed time:       0 days  0 hours 33 minutes 35.2 seconds.
 File lengths (MBytes):  RWF=    167 Int=      0 D2E=      0 Chk=     21 Scr=      1
 Normal termination of Gaussian 16 at Fri Aug 14 03:27:22 2020.
