 Entering Gaussian System, Link 0=g16
 Initial command:
 /opt/software/gaussian/g16.b01/l1.exe "/localscratch/sarashs.37242627.0/Gau-22166.inp" -scrdir="/localscratch/sarashs.37242627.0/"
 Entering Link 1 = /opt/software/gaussian/g16.b01/l1.exe PID=     22167.
  
 Copyright (c) 1988-2017, Gaussian, Inc.  All Rights Reserved.
  
 This is part of the Gaussian(R) 16 program.  It is based on
 the Gaussian(R) 09 system (copyright 2009, Gaussian, Inc.),
 the Gaussian(R) 03 system (copyright 2003, Gaussian, Inc.),
 the Gaussian(R) 98 system (copyright 1998, Gaussian, Inc.),
 the Gaussian(R) 94 system (copyright 1995, Gaussian, Inc.),
 the Gaussian 92(TM) system (copyright 1992, Gaussian, Inc.),
 the Gaussian 90(TM) system (copyright 1990, Gaussian, Inc.),
 the Gaussian 88(TM) system (copyright 1988, Gaussian, Inc.),
 the Gaussian 86(TM) system (copyright 1986, Carnegie Mellon
 University), and the Gaussian 82(TM) system (copyright 1983,
 Carnegie Mellon University). Gaussian is a federally registered
 trademark of Gaussian, Inc.
  
 This software contains proprietary and confidential information,
 including trade secrets, belonging to Gaussian, Inc.
  
 This software is provided under written license and may be
 used, copied, transmitted, or stored only in accord with that
 written license.
  
 The following legend is applicable only to US Government
 contracts under FAR:
  
                    RESTRICTED RIGHTS LEGEND
  
 Use, reproduction and disclosure by the US Government is
 subject to restrictions as set forth in subparagraphs (a)
 and (c) of the Commercial Computer Software - Restricted
 Rights clause in FAR 52.227-19.
  
 Gaussian, Inc.
 340 Quinnipiac St., Bldg. 40, Wallingford CT 06492
  
  
 ---------------------------------------------------------------
 Warning -- This program may not be used in any manner that
 competes with the business of Gaussian, Inc. or will provide
 assistance to any competitor of Gaussian, Inc.  The licensee
 of this program is prohibited from giving any competitor of
 Gaussian, Inc. access to this program.  By using this program,
 the user acknowledges that Gaussian, Inc. is engaged in the
 business of creating and licensing software in the field of
 computational chemistry and represents and warrants to the
 licensee that it is not a competitor of Gaussian, Inc. and that
 it will not use this program in any manner prohibited above.
 ---------------------------------------------------------------
  

 Cite this work as:
 Gaussian 16, Revision B.01,
 M. J. Frisch, G. W. Trucks, H. B. Schlegel, G. E. Scuseria, 
 M. A. Robb, J. R. Cheeseman, G. Scalmani, V. Barone, 
 G. A. Petersson, H. Nakatsuji, X. Li, M. Caricato, A. V. Marenich, 
 J. Bloino, B. G. Janesko, R. Gomperts, B. Mennucci, H. P. Hratchian, 
 J. V. Ortiz, A. F. Izmaylov, J. L. Sonnenberg, D. Williams-Young, 
 F. Ding, F. Lipparini, F. Egidi, J. Goings, B. Peng, A. Petrone, 
 T. Henderson, D. Ranasinghe, V. G. Zakrzewski, J. Gao, N. Rega, 
 G. Zheng, W. Liang, M. Hada, M. Ehara, K. Toyota, R. Fukuda, 
 J. Hasegawa, M. Ishida, T. Nakajima, Y. Honda, O. Kitao, H. Nakai, 
 T. Vreven, K. Throssell, J. A. Montgomery, Jr., J. E. Peralta, 
 F. Ogliaro, M. J. Bearpark, J. J. Heyd, E. N. Brothers, K. N. Kudin, 
 V. N. Staroverov, T. A. Keith, R. Kobayashi, J. Normand, 
 K. Raghavachari, A. P. Rendell, J. C. Burant, S. S. Iyengar, 
 J. Tomasi, M. Cossi, J. M. Millam, M. Klene, C. Adamo, R. Cammi, 
 J. W. Ochterski, R. L. Martin, K. Morokuma, O. Farkas, 
 J. B. Foresman, and D. J. Fox, Gaussian, Inc., Wallingford CT, 2016.
 
 ******************************************
 Gaussian 16:  ES64L-G16RevB.01 20-Dec-2017
                14-Aug-2020 
 ******************************************
 %NProcShared=16
 Will use up to   16 processors via shared memory.
 ------------------------------------------------------------------
 #n B3LYP/Gen Pseudo=cards EmpiricalDispersion=GD3 Opt=modredundant
 ------------------------------------------------------------------
 1/18=120,19=15,26=3,38=1/1,3;
 2/9=110,12=2,17=6,18=5,40=1/2;
 3/5=7,11=2,16=1,17=8,25=1,30=1,71=1,74=-5,124=31/1,2,3;
 4//1;
 5/5=2,38=5/2;
 6/7=2,8=2,9=2,10=2,28=1/1;
 7//1,2,3,16;
 1/18=20,19=15,26=3/3(2);
 2/9=110/2;
 99//99;
 2/9=110/2;
 3/5=7,6=1,11=2,16=1,17=8,25=1,30=1,71=1,74=-5,82=7,124=31/1,2,3;
 4/5=5,16=3,69=1/1;
 5/5=2,38=5/2;
 7//1,2,3,16;
 1/18=20,19=15,26=3/3(-5);
 2/9=110/2;
 6/7=2,8=2,9=2,10=2,19=2,28=1/1;
 99/9=1/99;
 -----
 Title
 -----
 Symbolic Z-matrix:
 Charge =  0 Multiplicity = 1
 Zr                    0.65779  -0.12506  -0.07164 
 O                    -0.22285  -0.90624   1.4773 
 O                     0.10302   1.74748  -0.12299 
 O                    -0.2683   -0.97885  -1.59705 
 O                     2.59206  -0.4363   -0.08284 
 Si                   -1.83119  -1.33244  -1.9536 
 Si                   -1.1155    2.84172  -0.08279 
 Si                   -1.72376  -1.15291   2.11517 
 Si                    4.21769  -0.24985  -0.05958 
 O                     4.91819  -0.3291   -1.55243 
 O                     4.92185  -1.46793   0.81645 
 O                     4.4671    1.26083   0.55498 
 O                    -2.31924  -2.624     1.69627 
 O                    -2.72422   0.06508   1.55086 
 O                    -1.59734  -1.01957   3.74439 
 O                    -2.00144  -1.55965  -3.57782 
 O                    -2.82509  -0.18676  -1.30145 
 O                    -2.34448  -2.71439  -1.18277 
 O                    -2.04046   2.43957  -1.43023 
 O                    -0.63565   4.40049  -0.29987 
 O                    -1.96551   2.76086   1.31383 
 H                     5.35258   1.62873   0.45992 
 H                     5.25906  -1.19276  -1.81131 
 H                     4.50824  -1.70781   1.65313 
 H                    -2.40577  -2.80951   0.74392 
 H                    -2.38137  -1.22423   4.26535 
 H                    -3.06034  -0.08306   0.64589 
 H                    -0.52731   4.92728   0.50015 
 H                    -2.26909   1.86932   1.58533 
 H                    -2.64854   3.12676  -1.73014 
 H                    -2.30452  -3.52952  -1.69562 
 H                    -1.27114  -1.26305  -4.13223 
 H                    -2.61026   0.75461  -1.48993 
 
 The following ModRedundant input section has been read:
 A       1       5       9 F                                                   
 D       1       5       9      12 F                                           
 D       3       1       5       9 F                                           
 

 GradGradGradGradGradGradGradGradGradGradGradGradGradGradGradGradGradGrad
 Berny optimization.
 Initialization pass.
                           ----------------------------
                           !    Initial Parameters    !
                           ! (Angstroms and Degrees)  !
 --------------------------                            --------------------------
 ! Name  Definition              Value          Derivative Info.                !
 --------------------------------------------------------------------------------
 ! R1    R(1,2)                  1.9455         estimate D2E/DX2                !
 ! R2    R(1,3)                  1.9537         estimate D2E/DX2                !
 ! R3    R(1,4)                  1.9783         estimate D2E/DX2                !
 ! R4    R(1,5)                  1.9592         estimate D2E/DX2                !
 ! R5    R(2,8)                  1.6494         estimate D2E/DX2                !
 ! R6    R(3,7)                  1.6382         estimate D2E/DX2                !
 ! R7    R(4,6)                  1.6416         estimate D2E/DX2                !
 ! R8    R(5,9)                  1.6365         estimate D2E/DX2                !
 ! R9    R(6,16)                 1.6488         estimate D2E/DX2                !
 ! R10   R(6,17)                 1.651          estimate D2E/DX2                !
 ! R11   R(6,18)                 1.6636         estimate D2E/DX2                !
 ! R12   R(7,19)                 1.6831         estimate D2E/DX2                !
 ! R13   R(7,20)                 1.6453         estimate D2E/DX2                !
 ! R14   R(7,21)                 1.6369         estimate D2E/DX2                !
 ! R15   R(8,13)                 1.6414         estimate D2E/DX2                !
 ! R16   R(8,14)                 1.6742         estimate D2E/DX2                !
 ! R17   R(8,15)                 1.6395         estimate D2E/DX2                !
 ! R18   R(9,10)                 1.6509         estimate D2E/DX2                !
 ! R19   R(9,11)                 1.6574         estimate D2E/DX2                !
 ! R20   R(9,12)                 1.6499         estimate D2E/DX2                !
 ! R21   R(10,23)                0.9639         estimate D2E/DX2                !
 ! R22   R(11,24)                0.9637         estimate D2E/DX2                !
 ! R23   R(12,22)                0.9636         estimate D2E/DX2                !
 ! R24   R(13,25)                0.9741         estimate D2E/DX2                !
 ! R25   R(14,27)                0.9767         estimate D2E/DX2                !
 ! R26   R(15,26)                0.9633         estimate D2E/DX2                !
 ! R27   R(16,32)                0.9637         estimate D2E/DX2                !
 ! R28   R(17,33)                0.9838         estimate D2E/DX2                !
 ! R29   R(18,31)                0.9639         estimate D2E/DX2                !
 ! R30   R(19,30)                0.9654         estimate D2E/DX2                !
 ! R31   R(20,28)                0.964          estimate D2E/DX2                !
 ! R32   R(21,29)                0.9802         estimate D2E/DX2                !
 ! A1    A(2,1,3)              106.0959         estimate D2E/DX2                !
 ! A2    A(2,1,4)              103.2214         estimate D2E/DX2                !
 ! A3    A(2,1,5)              112.8091         estimate D2E/DX2                !
 ! A4    A(3,1,4)              105.0977         estimate D2E/DX2                !
 ! A5    A(3,1,5)              115.6243         estimate D2E/DX2                !
 ! A6    A(4,1,5)              112.9055         estimate D2E/DX2                !
 ! A7    A(1,2,8)              141.2479         estimate D2E/DX2                !
 ! A8    A(1,3,7)              148.2962         estimate D2E/DX2                !
 ! A9    A(1,4,6)              134.9216         estimate D2E/DX2                !
 ! A10   A(1,5,9)              164.275          Frozen                          !
 ! A11   A(4,6,16)             109.9952         estimate D2E/DX2                !
 ! A12   A(4,6,17)             109.7479         estimate D2E/DX2                !
 ! A13   A(4,6,18)             111.8422         estimate D2E/DX2                !
 ! A14   A(16,6,17)            114.9972         estimate D2E/DX2                !
 ! A15   A(16,6,18)            108.0658         estimate D2E/DX2                !
 ! A16   A(17,6,18)            101.9869         estimate D2E/DX2                !
 ! A17   A(3,7,19)             103.269          estimate D2E/DX2                !
 ! A18   A(3,7,20)             114.3706         estimate D2E/DX2                !
 ! A19   A(3,7,21)             111.9733         estimate D2E/DX2                !
 ! A20   A(19,7,20)            106.3205         estimate D2E/DX2                !
 ! A21   A(19,7,21)            112.6973         estimate D2E/DX2                !
 ! A22   A(20,7,21)            108.1076         estimate D2E/DX2                !
 ! A23   A(2,8,13)             111.4365         estimate D2E/DX2                !
 ! A24   A(2,8,14)             107.7362         estimate D2E/DX2                !
 ! A25   A(2,8,15)             107.5759         estimate D2E/DX2                !
 ! A26   A(13,8,14)            110.4391         estimate D2E/DX2                !
 ! A27   A(13,8,15)            110.7606         estimate D2E/DX2                !
 ! A28   A(14,8,15)            108.7751         estimate D2E/DX2                !
 ! A29   A(5,9,10)             113.777          estimate D2E/DX2                !
 ! A30   A(5,9,11)             110.2322         estimate D2E/DX2                !
 ! A31   A(5,9,12)             105.0575         estimate D2E/DX2                !
 ! A32   A(10,9,11)            105.2123         estimate D2E/DX2                !
 ! A33   A(10,9,12)            108.4596         estimate D2E/DX2                !
 ! A34   A(11,9,12)            114.3196         estimate D2E/DX2                !
 ! A35   A(9,10,23)            115.8436         estimate D2E/DX2                !
 ! A36   A(9,11,24)            117.3547         estimate D2E/DX2                !
 ! A37   A(9,12,22)            116.8575         estimate D2E/DX2                !
 ! A38   A(8,13,25)            116.8991         estimate D2E/DX2                !
 ! A39   A(8,14,27)            114.056          estimate D2E/DX2                !
 ! A40   A(8,15,26)            117.2166         estimate D2E/DX2                !
 ! A41   A(6,16,32)            116.4907         estimate D2E/DX2                !
 ! A42   A(6,17,33)            117.1859         estimate D2E/DX2                !
 ! A43   A(6,18,31)            116.3076         estimate D2E/DX2                !
 ! A44   A(7,19,30)            115.1373         estimate D2E/DX2                !
 ! A45   A(7,20,28)            116.1676         estimate D2E/DX2                !
 ! A46   A(7,21,29)            116.2372         estimate D2E/DX2                !
 ! D1    D(3,1,2,8)             57.7292         estimate D2E/DX2                !
 ! D2    D(4,1,2,8)            -52.5301         estimate D2E/DX2                !
 ! D3    D(5,1,2,8)           -174.7067         estimate D2E/DX2                !
 ! D4    D(2,1,3,7)            -50.098          estimate D2E/DX2                !
 ! D5    D(4,1,3,7)             58.8315         estimate D2E/DX2                !
 ! D6    D(5,1,3,7)           -175.9641         estimate D2E/DX2                !
 ! D7    D(2,1,4,6)             42.7683         estimate D2E/DX2                !
 ! D8    D(3,1,4,6)            -68.2312         estimate D2E/DX2                !
 ! D9    D(5,1,4,6)            164.8802         estimate D2E/DX2                !
 ! D10   D(2,1,5,9)           -116.3636         estimate D2E/DX2                !
 ! D11   D(3,1,5,9)              5.9996         Frozen                          !
 ! D12   D(4,1,5,9)            127.0818         estimate D2E/DX2                !
 ! D13   D(1,2,8,13)            93.5308         estimate D2E/DX2                !
 ! D14   D(1,2,8,14)           -27.7655         estimate D2E/DX2                !
 ! D15   D(1,2,8,15)          -144.8802         estimate D2E/DX2                !
 ! D16   D(1,3,7,19)           -61.1012         estimate D2E/DX2                !
 ! D17   D(1,3,7,20)          -176.1751         estimate D2E/DX2                !
 ! D18   D(1,3,7,21)            60.409          estimate D2E/DX2                !
 ! D19   D(1,4,6,16)           160.167          estimate D2E/DX2                !
 ! D20   D(1,4,6,17)            32.6925         estimate D2E/DX2                !
 ! D21   D(1,4,6,18)           -79.742          estimate D2E/DX2                !
 ! D22   D(1,5,9,10)          -100.129          estimate D2E/DX2                !
 ! D23   D(1,5,9,11)           141.9685         estimate D2E/DX2                !
 ! D24   D(1,5,9,12)            18.3497         Frozen                          !
 ! D25   D(4,6,16,32)          -14.1998         estimate D2E/DX2                !
 ! D26   D(17,6,16,32)         110.2979         estimate D2E/DX2                !
 ! D27   D(18,6,16,32)        -136.5531         estimate D2E/DX2                !
 ! D28   D(4,6,17,33)           51.0095         estimate D2E/DX2                !
 ! D29   D(16,6,17,33)         -73.6179         estimate D2E/DX2                !
 ! D30   D(18,6,17,33)         169.7166         estimate D2E/DX2                !
 ! D31   D(4,6,18,31)          -96.4424         estimate D2E/DX2                !
 ! D32   D(16,6,18,31)          24.7715         estimate D2E/DX2                !
 ! D33   D(17,6,18,31)         146.349          estimate D2E/DX2                !
 ! D34   D(3,7,19,30)         -162.1837         estimate D2E/DX2                !
 ! D35   D(20,7,19,30)         -41.4662         estimate D2E/DX2                !
 ! D36   D(21,7,19,30)          76.796          estimate D2E/DX2                !
 ! D37   D(3,7,20,28)          -98.427          estimate D2E/DX2                !
 ! D38   D(19,7,20,28)         148.2947         estimate D2E/DX2                !
 ! D39   D(21,7,20,28)          27.0455         estimate D2E/DX2                !
 ! D40   D(3,7,21,29)          -49.8995         estimate D2E/DX2                !
 ! D41   D(19,7,21,29)          66.0156         estimate D2E/DX2                !
 ! D42   D(20,7,21,29)        -176.7753         estimate D2E/DX2                !
 ! D43   D(2,8,13,25)          -58.468          estimate D2E/DX2                !
 ! D44   D(14,8,13,25)          61.2404         estimate D2E/DX2                !
 ! D45   D(15,8,13,25)        -178.1888         estimate D2E/DX2                !
 ! D46   D(2,8,14,27)           80.2918         estimate D2E/DX2                !
 ! D47   D(13,8,14,27)         -41.6247         estimate D2E/DX2                !
 ! D48   D(15,8,14,27)        -163.3756         estimate D2E/DX2                !
 ! D49   D(2,8,15,26)         -174.1994         estimate D2E/DX2                !
 ! D50   D(13,8,15,26)         -52.1897         estimate D2E/DX2                !
 ! D51   D(14,8,15,26)          69.3652         estimate D2E/DX2                !
 ! D52   D(5,9,10,23)          -94.8505         estimate D2E/DX2                !
 ! D53   D(11,9,10,23)          25.9083         estimate D2E/DX2                !
 ! D54   D(12,9,10,23)         148.6397         estimate D2E/DX2                !
 ! D55   D(5,9,11,24)          -43.8203         estimate D2E/DX2                !
 ! D56   D(10,9,11,24)        -166.8802         estimate D2E/DX2                !
 ! D57   D(12,9,11,24)          74.2399         estimate D2E/DX2                !
 ! D58   D(5,9,12,22)         -166.4767         estimate D2E/DX2                !
 ! D59   D(10,9,12,22)         -44.4737         estimate D2E/DX2                !
 ! D60   D(11,9,12,22)          72.5543         estimate D2E/DX2                !
 --------------------------------------------------------------------------------
 Trust Radius=3.00D-01 FncErr=1.00D-07 GrdErr=1.00D-06 EigMax=2.50D+02 EigMin=1.00D-04
 Number of steps in this run=    148 maximum allowed number of steps=    198.
 GradGradGradGradGradGradGradGradGradGradGradGradGradGradGradGradGradGrad

                          Input orientation:                          
 ---------------------------------------------------------------------
 Center     Atomic      Atomic             Coordinates (Angstroms)
 Number     Number       Type             X           Y           Z
 ---------------------------------------------------------------------
      1         40           0        0.657790   -0.125060   -0.071640
      2          8           0       -0.222850   -0.906240    1.477300
      3          8           0        0.103020    1.747480   -0.122990
      4          8           0       -0.268300   -0.978850   -1.597050
      5          8           0        2.592060   -0.436300   -0.082840
      6         14           0       -1.831190   -1.332440   -1.953600
      7         14           0       -1.115500    2.841720   -0.082790
      8         14           0       -1.723760   -1.152910    2.115170
      9         14           0        4.217690   -0.249850   -0.059580
     10          8           0        4.918190   -0.329100   -1.552430
     11          8           0        4.921850   -1.467930    0.816450
     12          8           0        4.467100    1.260830    0.554980
     13          8           0       -2.319240   -2.624000    1.696270
     14          8           0       -2.724220    0.065080    1.550860
     15          8           0       -1.597340   -1.019570    3.744390
     16          8           0       -2.001440   -1.559650   -3.577820
     17          8           0       -2.825090   -0.186760   -1.301450
     18          8           0       -2.344480   -2.714390   -1.182770
     19          8           0       -2.040460    2.439570   -1.430230
     20          8           0       -0.635650    4.400490   -0.299870
     21          8           0       -1.965510    2.760860    1.313830
     22          1           0        5.352580    1.628730    0.459920
     23          1           0        5.259060   -1.192760   -1.811310
     24          1           0        4.508240   -1.707810    1.653130
     25          1           0       -2.405770   -2.809510    0.743920
     26          1           0       -2.381370   -1.224230    4.265350
     27          1           0       -3.060340   -0.083060    0.645890
     28          1           0       -0.527310    4.927280    0.500150
     29          1           0       -2.269090    1.869320    1.585330
     30          1           0       -2.648540    3.126760   -1.730140
     31          1           0       -2.304520   -3.529520   -1.695620
     32          1           0       -1.271140   -1.263050   -4.132230
     33          1           0       -2.610260    0.754610   -1.489930
 ---------------------------------------------------------------------
                    Distance matrix (angstroms):
                    1          2          3          4          5
     1  Zr   0.000000
     2  O    1.945504   0.000000
     3  O    1.953666   3.115983   0.000000
     4  O    1.978251   3.075543   3.121475   0.000000
     5  O    1.959183   3.252476   3.311469   3.281593   0.000000
     6  Si   3.345827   3.813067   4.071635   1.641578   4.885484
     7  Si   3.456366   4.156670   1.638221   4.196128   4.948880
     8  Si   3.392697   1.649380   4.093745   3.991145   4.896027
     9  Si   3.562107   4.744602   4.574260   4.797850   1.636453
    10  O    4.515017   5.995219   5.435195   5.227221   2.753555
    11  O    4.557874   5.217294   5.868776   5.744723   2.702019
    12  O    4.101730   5.248095   4.443159   5.663163   2.608225
    13  O    4.270002   2.719099   5.318542   4.214123   5.663226
    14  O    3.755882   2.684348   3.691278   4.126823   5.584191
    15  O    4.521929   2.653632   5.050190   5.504452   5.704294
    16  O    4.628483   5.398571   5.225104   2.695283   5.880225
    17  O    3.694143   3.874372   3.701875   2.692947   5.558129
    18  O    4.117386   3.853141   5.198238   2.737563   5.546978
    19  O    3.962783   4.790812   2.604299   3.854086   5.616612
    20  O    4.712290   5.611606   2.759598   5.545712   5.818913
    21  O    4.138812   4.063399   2.714813   5.033803   5.739683
    22  H    5.039781   6.208587   5.283159   6.528774   3.489901
    23  H    5.033699   6.399093   6.170914   5.535646   3.266914
    24  H    4.506206   4.801733   5.873636   5.823263   2.881332
    25  H    4.154132   2.987545   5.273682   3.660633   5.594101
    26  H    5.408711   3.540275   5.853271   6.236426   6.653014
    27  H    3.786965   3.069237   3.734823   3.691708   5.710118
    28  H    5.220876   5.922624   3.301022   6.272775   6.232041
    29  H    3.910208   3.450000   2.925766   4.716225   5.632890
    30  H    4.925117   5.695325   3.472237   4.747556   6.547739
    31  H    4.796138   4.613282   6.009671   3.265245   6.012118
    32  H    4.637260   5.717784   5.198616   2.741094   5.657331
    33  H    3.669539   4.154829   3.196280   2.915671   5.519266
                    6          7          8          9         10
     6  Si   0.000000
     7  Si   4.629876   0.000000
     8  Si   4.074145   4.599791   0.000000
     9  Si   6.430261   6.164516   6.391078   0.000000
    10  O    6.835332   6.972758   7.631871   1.650934   0.000000
    11  O    7.300348   7.472035   6.778646   1.657404   2.628410
    12  O    7.258545   5.837070   6.825473   1.649862   2.678159
    13  O    3.902290   5.872660   1.641396   7.172939   8.258390
    14  O    3.877087   3.600906   1.674176   7.133219   8.257858
    15  O    5.711363   5.457933   1.639549   6.991225   8.425270
    16  O    1.648848   5.689656   5.714252   7.264377   7.314215
    17  O    1.650975   3.685040   3.717481   7.151711   7.748654
    18  O    1.663560   5.795749   3.701340   7.099126   7.653276
    19  O    3.813892   1.683113   5.057279   6.948101   7.490212
    20  O    6.085279   1.645340   6.152776   6.725943   7.401558
    21  O    5.239203   1.636949   4.002272   7.013030   8.071470
    22  H    8.136348   6.603176   7.781514   2.255420   2.841011
    23  H    7.093053   7.739498   8.011155   2.245460   0.963909
    24  H    7.303272   7.438958   6.273693   2.267916   3.513476
    25  H    3.128657   5.855309   2.256056   7.146166   8.066353
    26  H    6.244177   6.086107   2.249625   7.949970   9.377174
    27  H    3.135141   3.587160   2.256060   7.314043   8.279498
    28  H    6.848729   2.243958   6.403787   7.044927   7.841944
    29  H    4.792395   2.249212   3.116406   7.019610   8.144666
    30  H    4.538993   2.268308   5.827281   7.831818   8.320454
    31  H    2.262246   6.678899   4.528540   7.481449   7.901312
    32  H    2.250533   5.768130   6.264743   6.909436   6.770187
    33  H    2.275460   2.927521   4.173878   7.048102   7.606306
                   11         12         13         14         15
    11  O    0.000000
    12  O    2.778722   0.000000
    13  O    7.385389   7.902459   0.000000
    14  O    7.832743   7.357763   2.723289   0.000000
    15  O    7.160565   7.221495   2.700024   2.694049   0.000000
    16  O    8.200608   8.177845   5.389792   5.428215   7.353213
    17  O    8.132772   7.662760   3.896453   2.865182   5.259415
    18  O    7.638723   8.075876   2.880569   3.916936   5.263795
    19  O    8.293967   6.904985   5.957555   3.872032   6.240088
    20  O    8.159064   6.051966   7.494165   5.155881   6.830662
    21  O    8.097270   6.648640   5.410000   2.810526   4.509415
    22  H    3.146736   0.963567   8.858391   8.298786   8.130352
    23  H    2.663560   3.499519   8.472437   8.753234   8.826439
    24  H    0.963664   3.165509   6.888813   7.447286   6.490389
    25  H    7.449773   7.989975   0.974101   3.002637   3.586121
    26  H    8.080305   8.175813   2.926327   3.024619   0.963321
    27  H    8.103229   7.647003   2.847614   0.976674   3.552200
    28  H    8.407859   6.195966   7.852614   5.437959   6.858213
    29  H    7.964800   6.841647   4.494969   1.861079   3.668579
    30  H    9.214505   7.702974   6.702236   4.488271   6.947485
    31  H    7.923451   8.594620   3.510712   4.861783   6.032716
    32  H    7.929977   7.827343   6.076357   6.014390   7.887131
    33  H    8.184849   7.384236   4.653125   3.120071   5.618881
                   16         17         18         19         20
    16  O    0.000000
    17  O    2.783000   0.000000
    18  O    2.680926   2.575652   0.000000
    19  O    4.539540   2.744055   5.168846   0.000000
    20  O    6.937839   5.180702   7.370287   2.663909   0.000000
    21  O    6.526587   4.033241   6.029510   2.763822   2.657243
    22  H    8.975005   8.559948   8.989208   7.673798   6.642201
    23  H    7.481312   8.162443   7.779733   8.162232   8.265380
    24  H    8.352288   8.051141   7.484337   8.342262   8.221018
    25  H    4.516976   3.352340   1.930010   5.693261   7.497128
    26  H    7.859527   5.680008   5.648358   6.780802   7.451594
    27  H    4.597968   1.964238   3.283344   3.422586   5.184188
    28  H    7.802766   5.888884   8.033022   3.493521   0.963990
    29  H    6.203837   3.587492   5.355227   3.077509   3.553720
    30  H    5.078888   3.345797   5.874615   0.965369   2.778450
    31  H    2.741336   3.405937   0.963872   5.980819   8.223035
    32  H    0.963680   3.403891   3.458000   4.647801   6.867788
    33  H    3.175806   0.983796   3.492699   1.779698   4.313672
                   21         22         23         24         25
    21  O    0.000000
    22  H    7.454215   0.000000
    23  H    8.808633   3.623263   0.000000
    24  H    7.873600   3.642686   3.582088   0.000000
    25  H    5.616729   8.942630   8.239703   7.060024   0.000000
    26  H    4.976480   9.079354   9.762323   7.384055   3.861888
    27  H    3.119724   8.587318   8.745381   7.806263   2.805637
    28  H    2.724678   6.742044   8.733832   8.408956   7.965297
    29  H    0.980162   7.708066   8.808322   7.663723   4.755849
    30  H    3.141045   8.429613   9.010826   9.275725   6.435776
    31  H    6.981447   9.480774   7.917170   7.806821   2.545589
    32  H    6.806877   8.562938   6.930738   8.189593   5.239825
    33  H    3.507394   8.244563   8.113059   8.161825   4.211277
                   26         27         28         29         30
    26  H    0.000000
    27  H    3.855355   0.000000
    28  H    7.446835   5.616136   0.000000
    29  H    4.094529   2.306602   3.682734   0.000000
    30  H    7.412718   4.014728   3.565906   3.566157   0.000000
    31  H    6.391669   4.234622   8.916129   6.317702   6.665254
    32  H    8.470742   5.236797   7.767394   6.595312   5.190154
    33  H    6.090275   2.337946   5.070530   3.288799   2.384588
                   31         32         33
    31  H    0.000000
    32  H    3.484513   0.000000
    33  H    4.299948   3.584124   0.000000
 Stoichiometry    H12O16Si4Zr
 Framework group  C1[X(H12O16Si4Zr)]
 Deg. of freedom    93
 Full point group                 C1      NOp   1
 Largest Abelian subgroup         C1      NOp   1
 Largest concise Abelian subgroup C1      NOp   1
                         Standard orientation:                         
 ---------------------------------------------------------------------
 Center     Atomic      Atomic             Coordinates (Angstroms)
 Number     Number       Type             X           Y           Z
 ---------------------------------------------------------------------
      1         40           0        0.657968   -0.129594   -0.045098
      2          8           0       -0.251128   -0.904455    1.490519
      3          8           0        0.109535    1.744378   -0.110406
      4          8           0       -0.244497   -0.984516   -1.583975
      5          8           0        2.591246   -0.446338   -0.022636
      6         14           0       -1.802107   -1.334557   -1.966207
      7         14           0       -1.106343    2.842160   -0.093588
      8         14           0       -1.763371   -1.145299    2.103356
      9         14           0        4.216774   -0.264436    0.027827
     10          8           0        4.942330   -0.349350   -1.452693
     11          8           0        4.902431   -1.482341    0.918652
     12          8           0        4.460037    1.247043    0.642888
     13          8           0       -2.355867   -2.615725    1.677943
     14          8           0       -2.750586    0.074124    1.519164
     15          8           0       -1.664294   -1.008301    3.734164
     16          8           0       -1.945362   -1.565288   -3.592535
     17          8           0       -2.803657   -0.184461   -1.333833
     18          8           0       -2.332401   -2.713142   -1.200883
     19          8           0       -2.009406    2.439310   -1.455593
     20          8           0       -0.618393    4.399025   -0.306240
     21          8           0       -1.980210    2.767152    1.288560
     22          1           0        5.348060    1.612198    0.562018
     23          1           0        5.285070   -1.214608   -1.703648
     24          1           0        4.473964   -1.718985    1.748752
     25          1           0       -2.426721   -2.803337    0.724710
     26          1           0       -2.457655   -1.209454    4.242203
     27          1           0       -3.071691   -0.075294    0.608967
     28          1           0       -0.522161    4.927477    0.494232
     29          1           0       -2.290924    1.877148    1.557010
     30          1           0       -2.610320    3.127478   -1.767465
     31          1           0       -2.286068   -3.529644   -1.711007
     32          1           0       -1.204890   -1.272125   -4.135155
     33          1           0       -2.582948    0.755829   -1.520905
 ---------------------------------------------------------------------
 Rotational constants (GHZ):           0.2124629           0.1338001           0.1240375
 General basis read from cards:  (5D, 7F)
 ======================================================================================================
                                       Pseudopotential Parameters
 ======================================================================================================
  Center     Atomic      Valence      Angular      Power
  Number     Number     Electrons     Momentum     of R      Exponent        Coefficient   SO-Coeffient
 ======================================================================================================
    1         40           12
                                      G and up 
                                                     2        1.0000000        0.00000000    0.00000000
                                      S - G
                                                     2        8.6365280      150.24299400    0.00000000
                                                     2        3.7176390       18.78003600    0.00000000
                                      P - G
                                                     2        7.6267280       33.19279100    0.00000000
                                                     2        7.4532070       66.38903900    0.00000000
                                                     2        3.3583890        4.62072600    0.00000000
                                                     2        3.2297380        9.26027000    0.00000000
                                      D - G
                                                     2        5.9380860       13.99338300    0.00000000
                                                     2        5.8255440       20.99588200    0.00000000
                                                     2        2.2050190        2.28516600    0.00000000
                                                     2        2.2062920        3.44126000    0.00000000
                                      F - G
                                                     2        4.8002150       -5.23932000    0.00000000
                                                     2        4.7989920       -6.98742400    0.00000000
    2          8
                                   No pseudopotential on this center.
    3          8
                                   No pseudopotential on this center.
    4          8
                                   No pseudopotential on this center.
    5          8
                                   No pseudopotential on this center.
    6         14
                                   No pseudopotential on this center.
    7         14
                                   No pseudopotential on this center.
    8         14
                                   No pseudopotential on this center.
    9         14
                                   No pseudopotential on this center.
   10          8
                                   No pseudopotential on this center.
   11          8
                                   No pseudopotential on this center.
   12          8
                                   No pseudopotential on this center.
   13          8
                                   No pseudopotential on this center.
   14          8
                                   No pseudopotential on this center.
   15          8
                                   No pseudopotential on this center.
   16          8
                                   No pseudopotential on this center.
   17          8
                                   No pseudopotential on this center.
   18          8
                                   No pseudopotential on this center.
   19          8
                                   No pseudopotential on this center.
   20          8
                                   No pseudopotential on this center.
   21          8
                                   No pseudopotential on this center.
   22          1
                                   No pseudopotential on this center.
   23          1
                                   No pseudopotential on this center.
   24          1
                                   No pseudopotential on this center.
   25          1
                                   No pseudopotential on this center.
   26          1
                                   No pseudopotential on this center.
   27          1
                                   No pseudopotential on this center.
   28          1
                                   No pseudopotential on this center.
   29          1
                                   No pseudopotential on this center.
   30          1
                                   No pseudopotential on this center.
   31          1
                                   No pseudopotential on this center.
   32          1
                                   No pseudopotential on this center.
   33          1
                                   No pseudopotential on this center.
 ======================================================================================================
 There are   570 symmetry adapted cartesian basis functions of A   symmetry.
 There are   524 symmetry adapted basis functions of A   symmetry.
   524 basis functions,  1074 primitive gaussians,   570 cartesian basis functions
   104 alpha electrons      104 beta electrons
       nuclear repulsion energy      2832.8823445131 Hartrees.
 NAtoms=   33 NActive=   33 NUniq=   33 SFac= 1.00D+00 NAtFMM=   60 NAOKFM=F Big=F
 Integral buffers will be    131072 words long.
 Raffenetti 2 integral format.
 Two-electron integral symmetry is turned on.
 Nuclear repulsion after empirical dispersion term =     2832.8415376474 Hartrees.
 One-electron integrals computed using PRISM.
 PrsmSu:  requested number of processors reduced to:   4 ShMem   1 Linda.
   1 Symmetry operations used in ECPInt.
 ECPInt:  NShTT=   13203 NPrTT=   78401 LenC2=   11530 LenP2D=   44644.
 LDataN:  DoStor=T MaxTD1= 8 Len=  415
 Number of processors reduced to  13 by ecpmxn.
 NBasis=   524 RedAO= T EigKep=  3.11D-05  NBF=   524
 NBsUse=   524 1.00D-06 EigRej= -1.00D+00 NBFU=   524
 Defaulting to unpruned grid for atomic number  40.
 ExpMin= 1.01D-02 ExpMax= 1.61D+04 ExpMxC= 2.43D+03 IAcc=3 IRadAn=         5 AccDes= 0.00D+00
 Harris functional with IExCor=  402 and IRadAn=       5 diagonalized for initial guess.
 HarFok:  IExCor=  402 AccDes= 0.00D+00 IRadAn=         5 IDoV= 1 UseB2=F ITyADJ=14
 ICtDFT=  3500011 ScaDFX=  1.000000  1.000000  1.000000  1.000000
 Defaulting to unpruned grid for atomic number  40.
 FoFCou: FMM=F IPFlag=           0 FMFlag=      100000 FMFlg1=           0
         NFxFlg=           0 DoJE=T BraDBF=F KetDBF=T FulRan=T
         wScrn=  0.000000 ICntrl=       500 IOpCl=  0 I1Cent=   200000004 NGrid=           0
         NMat0=    1 NMatS0=      1 NMatT0=    0 NMatD0=    1 NMtDS0=    0 NMtDT0=    0
 Petite list used in FoFCou.
 Requested convergence on RMS density matrix=1.00D-08 within 128 cycles.
 Requested convergence on MAX density matrix=1.00D-06.
 Requested convergence on             energy=1.00D-06.
 No special actions if energy rises.
 Defaulting to unpruned grid for atomic number  40.
 Defaulting to unpruned grid for atomic number  40.
 Defaulting to unpruned grid for atomic number  40.
 Defaulting to unpruned grid for atomic number  40.
 Defaulting to unpruned grid for atomic number  40.
 Defaulting to unpruned grid for atomic number  40.
 Defaulting to unpruned grid for atomic number  40.
 Defaulting to unpruned grid for atomic number  40.
 Defaulting to unpruned grid for atomic number  40.
 Defaulting to unpruned grid for atomic number  40.
 Defaulting to unpruned grid for atomic number  40.
 Defaulting to unpruned grid for atomic number  40.
 Defaulting to unpruned grid for atomic number  40.
 Defaulting to unpruned grid for atomic number  40.
 Defaulting to unpruned grid for atomic number  40.
 Defaulting to unpruned grid for atomic number  40.
 SCF Done:  E(RB3LYP) =  -2416.94683061     A.U. after   14 cycles
            NFock= 14  Conv=0.25D-08     -V/T= 2.0185

 **********************************************************************

            Population analysis using the SCF Density.

 **********************************************************************

 Orbital symmetries:
       Occupied  (A) (A) (A) (A) (A) (A) (A) (A) (A) (A) (A) (A)
                 (A) (A) (A) (A) (A) (A) (A) (A) (A) (A) (A) (A)
                 (A) (A) (A) (A) (A) (A) (A) (A) (A) (A) (A) (A)
                 (A) (A) (A) (A) (A) (A) (A) (A) (A) (A) (A) (A)
                 (A) (A) (A) (A) (A) (A) (A) (A) (A) (A) (A) (A)
                 (A) (A) (A) (A) (A) (A) (A) (A) (A) (A) (A) (A)
                 (A) (A) (A) (A) (A) (A) (A) (A) (A) (A) (A) (A)
                 (A) (A) (A) (A) (A) (A) (A) (A) (A) (A) (A) (A)
                 (A) (A) (A) (A) (A) (A) (A) (A)
       Virtual   (A) (A) (A) (A) (A) (A) (A) (A) (A) (A) (A) (A)
                 (A) (A) (A) (A) (A) (A) (A) (A) (A) (A) (A) (A)
                 (A) (A) (A) (A) (A) (A) (A) (A) (A) (A) (A) (A)
                 (A) (A) (A) (A) (A) (A) (A) (A) (A) (A) (A) (A)
                 (A) (A) (A) (A) (A) (A) (A) (A) (A) (A) (A) (A)
                 (A) (A) (A) (A) (A) (A) (A) (A) (A) (A) (A) (A)
                 (A) (A) (A) (A) (A) (A) (A) (A) (A) (A) (A) (A)
                 (A) (A) (A) (A) (A) (A) (A) (A) (A) (A) (A) (A)
                 (A) (A) (A) (A) (A) (A) (A) (A) (A) (A) (A) (A)
                 (A) (A) (A) (A) (A) (A) (A) (A) (A) (A) (A) (A)
                 (A) (A) (A) (A) (A) (A) (A) (A) (A) (A) (A) (A)
                 (A) (A) (A) (A) (A) (A) (A) (A) (A) (A) (A) (A)
                 (A) (A) (A) (A) (A) (A) (A) (A) (A) (A) (A) (A)
                 (A) (A) (A) (A) (A) (A) (A) (A) (A) (A) (A) (A)
                 (A) (A) (A) (A) (A) (A) (A) (A) (A) (A) (A) (A)
                 (A) (A) (A) (A) (A) (A) (A) (A) (A) (A) (A) (A)
                 (A) (A) (A) (A) (A) (A) (A) (A) (A) (A) (A) (A)
                 (A) (A) (A) (A) (A) (A) (A) (A) (A) (A) (A) (A)
                 (A) (A) (A) (A) (A) (A) (A) (A) (A) (A) (A) (A)
                 (A) (A) (A) (A) (A) (A) (A) (A) (A) (A) (A) (A)
                 (A) (A) (A) (A) (A) (A) (A) (A) (A) (A) (A) (A)
                 (A) (A) (A) (A) (A) (A) (A) (A) (A) (A) (A) (A)
                 (A) (A) (A) (A) (A) (A) (A) (A) (A) (A) (A) (A)
                 (A) (A) (A) (A) (A) (A) (A) (A) (A) (A) (A) (A)
                 (A) (A) (A) (A) (A) (A) (A) (A) (A) (A) (A) (A)
                 (A) (A) (A) (A) (A) (A) (A) (A) (A) (A) (A) (A)
                 (A) (A) (A) (A) (A) (A) (A) (A) (A) (A) (A) (A)
                 (A) (A) (A) (A) (A) (A) (A) (A) (A) (A) (A) (A)
                 (A) (A) (A) (A) (A) (A) (A) (A) (A) (A) (A) (A)
                 (A) (A) (A) (A) (A) (A) (A) (A) (A) (A) (A) (A)
                 (A) (A) (A) (A) (A) (A) (A) (A) (A) (A) (A) (A)
                 (A) (A) (A) (A) (A) (A) (A) (A) (A) (A) (A) (A)
                 (A) (A) (A) (A) (A) (A) (A) (A) (A) (A) (A) (A)
                 (A) (A) (A) (A) (A) (A) (A) (A) (A) (A) (A) (A)
                 (A) (A) (A) (A) (A) (A) (A) (A) (A) (A) (A) (A)
 The electronic state is 1-A.
 Alpha  occ. eigenvalues --  -66.22792 -66.21755 -66.21493 -66.21044 -19.18577
 Alpha  occ. eigenvalues --  -19.18348 -19.17770 -19.17018 -19.16732 -19.16529
 Alpha  occ. eigenvalues --  -19.16449 -19.16229 -19.16189 -19.16014 -19.16001
 Alpha  occ. eigenvalues --  -19.15500 -19.15336 -19.15258 -19.14904 -19.14705
 Alpha  occ. eigenvalues --   -5.36852  -5.35836  -5.35569  -5.35104  -3.72836
 Alpha  occ. eigenvalues --   -3.72809  -3.72763  -3.71828  -3.71780  -3.71746
 Alpha  occ. eigenvalues --   -3.71538  -3.71530  -3.71490  -3.71069  -3.71060
 Alpha  occ. eigenvalues --   -3.71034  -2.13362  -1.29605  -1.29521  -1.29366
 Alpha  occ. eigenvalues --   -1.05669  -1.04773  -1.04154  -1.03504  -1.02550
 Alpha  occ. eigenvalues --   -1.02165  -1.01468  -1.00921  -1.00767  -1.00673
 Alpha  occ. eigenvalues --   -0.99837  -0.99306  -0.97366  -0.96276  -0.95727
 Alpha  occ. eigenvalues --   -0.95405  -0.60979  -0.59159  -0.58977  -0.58497
 Alpha  occ. eigenvalues --   -0.55526  -0.54529  -0.53864  -0.53045  -0.52997
 Alpha  occ. eigenvalues --   -0.52494  -0.52156  -0.51702  -0.48766  -0.47606
 Alpha  occ. eigenvalues --   -0.47201  -0.46722  -0.43369  -0.42652  -0.41853
 Alpha  occ. eigenvalues --   -0.41389  -0.41106  -0.40522  -0.39816  -0.39353
 Alpha  occ. eigenvalues --   -0.38799  -0.38677  -0.38643  -0.38147  -0.38020
 Alpha  occ. eigenvalues --   -0.37629  -0.37469  -0.37219  -0.36552  -0.36398
 Alpha  occ. eigenvalues --   -0.36049  -0.35613  -0.35500  -0.35095  -0.34883
 Alpha  occ. eigenvalues --   -0.34602  -0.34017  -0.33677  -0.33503  -0.33239
 Alpha  occ. eigenvalues --   -0.32833  -0.32179  -0.32054  -0.31299
 Alpha virt. eigenvalues --   -0.04319  -0.03169  -0.03038  -0.02751  -0.02089
 Alpha virt. eigenvalues --   -0.01170  -0.00548  -0.00101   0.00090   0.00298
 Alpha virt. eigenvalues --    0.00759   0.00914   0.01042   0.01945   0.02341
 Alpha virt. eigenvalues --    0.03312   0.03330   0.03845   0.03969   0.04034
 Alpha virt. eigenvalues --    0.04194   0.04638   0.05480   0.05876   0.06236
 Alpha virt. eigenvalues --    0.06500   0.07085   0.07477   0.07711   0.08660
 Alpha virt. eigenvalues --    0.08791   0.09091   0.09208   0.09678   0.09937
 Alpha virt. eigenvalues --    0.10299   0.10699   0.10883   0.11322   0.11712
 Alpha virt. eigenvalues --    0.11807   0.12595   0.13217   0.13336   0.13444
 Alpha virt. eigenvalues --    0.14027   0.14535   0.14830   0.15007   0.15267
 Alpha virt. eigenvalues --    0.15324   0.15707   0.16231   0.16678   0.16921
 Alpha virt. eigenvalues --    0.17354   0.17547   0.17748   0.18175   0.18388
 Alpha virt. eigenvalues --    0.18572   0.19015   0.19213   0.19697   0.19814
 Alpha virt. eigenvalues --    0.20140   0.20207   0.20562   0.20847   0.21258
 Alpha virt. eigenvalues --    0.21746   0.22131   0.22304   0.22382   0.22712
 Alpha virt. eigenvalues --    0.23225   0.23718   0.24044   0.24142   0.24532
 Alpha virt. eigenvalues --    0.24734   0.25067   0.25638   0.25943   0.26142
 Alpha virt. eigenvalues --    0.26606   0.26748   0.26909   0.27152   0.27527
 Alpha virt. eigenvalues --    0.27908   0.28334   0.28538   0.28794   0.29062
 Alpha virt. eigenvalues --    0.29494   0.29716   0.30049   0.30344   0.30640
 Alpha virt. eigenvalues --    0.30850   0.31381   0.31500   0.31786   0.31911
 Alpha virt. eigenvalues --    0.32392   0.32692   0.33084   0.33511   0.34038
 Alpha virt. eigenvalues --    0.34475   0.34869   0.35361   0.35487   0.36325
 Alpha virt. eigenvalues --    0.36861   0.37584   0.38093   0.38527   0.38813
 Alpha virt. eigenvalues --    0.39539   0.39786   0.40219   0.41019   0.41547
 Alpha virt. eigenvalues --    0.42869   0.43111   0.43758   0.44195   0.44689
 Alpha virt. eigenvalues --    0.45467   0.45566   0.46014   0.46626   0.47369
 Alpha virt. eigenvalues --    0.47981   0.48736   0.48869   0.49247   0.49510
 Alpha virt. eigenvalues --    0.50045   0.50802   0.51213   0.51381   0.53001
 Alpha virt. eigenvalues --    0.54228   0.54346   0.55095   0.56513   0.57305
 Alpha virt. eigenvalues --    0.58118   0.58599   0.59061   0.59202   0.60361
 Alpha virt. eigenvalues --    0.61255   0.61770   0.62183   0.64229   0.65880
 Alpha virt. eigenvalues --    0.67178   0.68207   0.68401   0.68514   0.69467
 Alpha virt. eigenvalues --    0.69972   0.70891   0.73070   0.74574   0.75038
 Alpha virt. eigenvalues --    0.75450   0.77389   0.78643   0.78885   0.80228
 Alpha virt. eigenvalues --    0.80985   0.81384   0.82612   0.84204   0.85308
 Alpha virt. eigenvalues --    0.86470   0.87752   0.89414   0.90616   0.91282
 Alpha virt. eigenvalues --    0.94617   0.95687   0.96251   0.96855   0.97558
 Alpha virt. eigenvalues --    0.98012   0.98686   0.99168   0.99750   1.00470
 Alpha virt. eigenvalues --    1.00853   1.01570   1.02321   1.03250   1.04027
 Alpha virt. eigenvalues --    1.04337   1.05416   1.06490   1.06705   1.07976
 Alpha virt. eigenvalues --    1.09697   1.12355   1.15241   1.16216   1.16523
 Alpha virt. eigenvalues --    1.18716   1.19147   1.19814   1.20562   1.20929
 Alpha virt. eigenvalues --    1.21474   1.21664   1.22372   1.22906   1.22989
 Alpha virt. eigenvalues --    1.23438   1.23845   1.24400   1.25126   1.25727
 Alpha virt. eigenvalues --    1.26177   1.27176   1.27344   1.28145   1.28399
 Alpha virt. eigenvalues --    1.29019   1.29799   1.30125   1.30752   1.31481
 Alpha virt. eigenvalues --    1.32476   1.32744   1.32992   1.33785   1.34512
 Alpha virt. eigenvalues --    1.35352   1.35962   1.36680   1.36965   1.37685
 Alpha virt. eigenvalues --    1.39174   1.39740   1.40165   1.41132   1.41494
 Alpha virt. eigenvalues --    1.42830   1.43865   1.44337   1.45169   1.46311
 Alpha virt. eigenvalues --    1.47115   1.48696   1.50716   1.51279   1.52858
 Alpha virt. eigenvalues --    1.56670   1.57115   1.57641   1.59274   1.59869
 Alpha virt. eigenvalues --    1.60084   1.61229   1.61876   1.62371   1.63107
 Alpha virt. eigenvalues --    1.63207   1.63899   1.65122   1.65421   1.66680
 Alpha virt. eigenvalues --    1.66955   1.67977   1.69364   1.69827   1.70114
 Alpha virt. eigenvalues --    1.71252   1.71317   1.71585   1.72476   1.73497
 Alpha virt. eigenvalues --    1.74231   1.74936   1.75471   1.76090   1.76932
 Alpha virt. eigenvalues --    1.77226   1.77503   1.78419   1.78601   1.79501
 Alpha virt. eigenvalues --    1.80706   1.81488   1.82247   1.82393   1.83002
 Alpha virt. eigenvalues --    1.83487   1.84913   1.85129   1.85944   1.86770
 Alpha virt. eigenvalues --    1.87129   1.88077   1.88493   1.89858   1.90443
 Alpha virt. eigenvalues --    1.91120   1.91313   1.92423   1.92854   1.93883
 Alpha virt. eigenvalues --    1.94580   1.95017   1.95876   1.97351   1.98419
 Alpha virt. eigenvalues --    1.99075   2.00574   2.01237   2.02838   2.03617
 Alpha virt. eigenvalues --    2.06039   2.06590   2.07622   2.09673   2.10452
 Alpha virt. eigenvalues --    2.11078   2.13080   2.14180   2.16047   2.16472
 Alpha virt. eigenvalues --    2.17729   2.18767   2.19198   2.20746   2.26208
 Alpha virt. eigenvalues --    2.32734   2.33566   2.35286   2.39497   2.40407
 Alpha virt. eigenvalues --    2.41176   2.41416   2.41740   2.42748   2.43721
 Alpha virt. eigenvalues --    2.43988   2.45829   2.46724   2.47565   2.48947
 Alpha virt. eigenvalues --    2.50210   2.50314   2.51680   2.52806   2.53408
 Alpha virt. eigenvalues --    2.55491   2.57931   2.59363   2.60098   2.60690
 Alpha virt. eigenvalues --    2.61098   2.61751   2.62021   2.62350   2.62793
 Alpha virt. eigenvalues --    2.63105   2.64062   2.64559   2.64979   2.65979
 Alpha virt. eigenvalues --    2.66282   2.66583   2.67378   2.67528   2.69384
 Alpha virt. eigenvalues --    2.69767   2.70311   2.71214   2.71646   2.72377
 Alpha virt. eigenvalues --    2.72843   2.74285   2.75561   2.76755   2.77468
 Alpha virt. eigenvalues --    2.78946   2.80492   2.81524   2.82486   2.83319
 Alpha virt. eigenvalues --    2.83794   2.84721   2.86704   2.87791   2.88136
 Alpha virt. eigenvalues --    3.14246   3.19956   3.35924   3.41048   3.46735
 Alpha virt. eigenvalues --    3.47912   3.48545   3.48621   3.51075   3.51143
 Alpha virt. eigenvalues --    3.52952   3.54425   3.60306   3.61081   3.62062
 Alpha virt. eigenvalues --    3.66216   4.28056   4.58810   7.86831  31.29117
          Condensed to atoms (all electrons):
               1          2          3          4          5          6
     1  Zr  15.113675  -0.165604  -0.002535  -0.149139  -0.204641  -0.547079
     2  O   -0.165604   9.082810   0.019976  -0.042088  -0.057777   0.095948
     3  O   -0.002535   0.019976   8.831488   0.013541  -0.041134  -0.006553
     4  O   -0.149139  -0.042088   0.013541   8.819737  -0.057382  -0.678685
     5  O   -0.204641  -0.057777  -0.041134  -0.057382   9.444310  -0.005074
     6  Si  -0.547079   0.095948  -0.006553  -0.678685  -0.005074  13.943910
     7  Si  -0.617644  -0.026274  -0.877370  -0.005261  -0.032801   0.084309
     8  Si  -0.535995  -1.001605  -0.021564   0.075350  -0.013271  -0.036000
     9  Si  -0.325648  -0.042165  -0.027471  -0.036275  -1.277768   0.036504
    10  O   -0.009837   0.000976  -0.002072   0.001344   0.132569  -0.002475
    11  O   -0.056392   0.003991   0.002825   0.001132   0.315347  -0.001013
    12  O    0.031756   0.000150   0.004759   0.002266   0.170998  -0.002438
    13  O   -0.057277   0.192333   0.001745  -0.015653  -0.000633   0.040599
    14  O   -0.033421   0.268451  -0.016964  -0.008892   0.002169   0.032639
    15  O   -0.075091   0.290541  -0.000768   0.001236   0.000504  -0.001816
    16  O   -0.130386   0.004651  -0.000451   0.344759   0.003151  -0.418038
    17  O   -0.078131  -0.040780   0.006955   0.223628   0.001164  -0.460841
    18  O   -0.031644  -0.013643   0.003695   0.200473  -0.000577  -0.450809
    19  O   -0.006820   0.009431   0.262050   0.009904   0.002072  -0.005096
    20  O   -0.146718  -0.000553   0.163844  -0.000899   0.001410   0.008891
    21  O    0.033005   0.011244   0.147552   0.003294   0.000293  -0.010970
    22  H   -0.008891  -0.000020  -0.000029  -0.000012   0.005782   0.000081
    23  H   -0.007455  -0.000013  -0.000008  -0.000054  -0.025078   0.000059
    24  H   -0.005143  -0.000221  -0.000008  -0.000001  -0.005810   0.000029
    25  H    0.019194  -0.020434  -0.000113  -0.000209   0.000019   0.001803
    26  H    0.007233   0.000487   0.000016  -0.000012  -0.000003  -0.000106
    27  H    0.007572  -0.019692   0.000839  -0.001761   0.000006   0.007913
    28  H    0.005249  -0.000011  -0.018581  -0.000015  -0.000016  -0.000282
    29  H    0.005223  -0.007209  -0.020383  -0.000146  -0.000073   0.000077
    30  H    0.001025  -0.000013   0.000178  -0.000448  -0.000008  -0.000814
    31  H    0.000123   0.000160  -0.000019  -0.018421  -0.000007   0.063480
    32  H    0.001833  -0.000022   0.000038   0.010335   0.000001   0.023313
    33  H   -0.016375   0.001013  -0.009997  -0.009512  -0.000102   0.053482
               7          8          9         10         11         12
     1  Zr  -0.617644  -0.535995  -0.325648  -0.009837  -0.056392   0.031756
     2  O   -0.026274  -1.001605  -0.042165   0.000976   0.003991   0.000150
     3  O   -0.877370  -0.021564  -0.027471  -0.002072   0.002825   0.004759
     4  O   -0.005261   0.075350  -0.036275   0.001344   0.001132   0.002266
     5  O   -0.032801  -0.013271  -1.277768   0.132569   0.315347   0.170998
     6  Si   0.084309  -0.036000   0.036504  -0.002475  -0.001013  -0.002438
     7  Si  13.793183   0.179941   0.020994  -0.000244  -0.000631   0.004431
     8  Si   0.179941  13.768599   0.025397  -0.000732   0.000905  -0.000112
     9  Si   0.020994   0.025397  14.370165  -0.080732  -0.194778  -0.231686
    10  O   -0.000244  -0.000732  -0.080732   8.526002   0.017181   0.033832
    11  O   -0.000631   0.000905  -0.194778   0.017181   8.518043  -0.049564
    12  O    0.004431  -0.000112  -0.231686   0.033832  -0.049564   8.601304
    13  O    0.007904  -0.092126   0.000546  -0.000000   0.000016   0.000011
    14  O    0.010757  -0.368682  -0.001367  -0.000002  -0.000000   0.000017
    15  O   -0.003138  -0.305762  -0.000869   0.000000  -0.000024  -0.000020
    16  O    0.003870  -0.009441  -0.000890   0.000003  -0.000001  -0.000001
    17  O   -0.000615   0.097155   0.002441  -0.000004  -0.000000  -0.000005
    18  O   -0.000365   0.073806   0.004324  -0.000005  -0.000003  -0.000001
    19  O   -0.401272  -0.014709   0.001107   0.000007  -0.000002  -0.000006
    20  O   -0.107303   0.009943   0.003305  -0.000002  -0.000002  -0.000001
    21  O    0.022949  -0.040075  -0.002006   0.000002   0.000001   0.000036
    22  H   -0.000244   0.000079   0.046762  -0.006761  -0.005228   0.220709
    23  H    0.000060   0.000065   0.080577   0.228646  -0.006303   0.005937
    24  H    0.000072  -0.000118   0.037900   0.007358   0.242415  -0.007579
    25  H   -0.000507   0.057125  -0.000224  -0.000000  -0.000000  -0.000000
    26  H   -0.000361   0.045987  -0.000040   0.000000   0.000000  -0.000000
    27  H    0.000985   0.067682  -0.000025   0.000000  -0.000000  -0.000000
    28  H    0.056758  -0.000103  -0.000125  -0.000000  -0.000000  -0.000004
    29  H    0.047931   0.021510  -0.000051   0.000000   0.000000  -0.000001
    30  H    0.039903   0.000060   0.000028   0.000000  -0.000000   0.000000
    31  H    0.000150  -0.001961  -0.000051   0.000000  -0.000000  -0.000000
    32  H   -0.000654   0.000058  -0.000005  -0.000000   0.000000   0.000000
    33  H    0.020538   0.000193   0.000080  -0.000000   0.000000   0.000000
              13         14         15         16         17         18
     1  Zr  -0.057277  -0.033421  -0.075091  -0.130386  -0.078131  -0.031644
     2  O    0.192333   0.268451   0.290541   0.004651  -0.040780  -0.013643
     3  O    0.001745  -0.016964  -0.000768  -0.000451   0.006955   0.003695
     4  O   -0.015653  -0.008892   0.001236   0.344759   0.223628   0.200473
     5  O   -0.000633   0.002169   0.000504   0.003151   0.001164  -0.000577
     6  Si   0.040599   0.032639  -0.001816  -0.418038  -0.460841  -0.450809
     7  Si   0.007904   0.010757  -0.003138   0.003870  -0.000615  -0.000365
     8  Si  -0.092126  -0.368682  -0.305762  -0.009441   0.097155   0.073806
     9  Si   0.000546  -0.001367  -0.000869  -0.000890   0.002441   0.004324
    10  O   -0.000000  -0.000002   0.000000   0.000003  -0.000004  -0.000005
    11  O    0.000016  -0.000000  -0.000024  -0.000001  -0.000000  -0.000003
    12  O    0.000011   0.000017  -0.000020  -0.000001  -0.000005  -0.000001
    13  O    8.632279   0.087757  -0.091342   0.003701  -0.030802  -0.044855
    14  O    0.087757   8.678913   0.055082   0.003698  -0.036058  -0.026782
    15  O   -0.091342   0.055082   8.775067  -0.000174   0.003549   0.001636
    16  O    0.003701   0.003698  -0.000174   8.901768  -0.090960  -0.115625
    17  O   -0.030802  -0.036058   0.003549  -0.090960   8.937311   0.227919
    18  O   -0.044855  -0.026782   0.001636  -0.115625   0.227919   9.015812
    19  O    0.000217  -0.000267   0.000128  -0.001650  -0.030406   0.000202
    20  O    0.000009  -0.000194   0.000038   0.000064  -0.001018   0.000014
    21  O   -0.000234   0.016389  -0.000582  -0.000215  -0.005519   0.000473
    22  H    0.000000   0.000000  -0.000000   0.000000   0.000000  -0.000000
    23  H    0.000000   0.000000  -0.000000  -0.000000   0.000000  -0.000000
    24  H   -0.000000   0.000000   0.000001   0.000000   0.000000  -0.000000
    25  H    0.217772  -0.012025   0.008921  -0.000045   0.000625   0.014749
    26  H   -0.005175  -0.010026   0.217447   0.000000  -0.000003   0.000006
    27  H   -0.009926   0.218895   0.004628   0.000182   0.017833  -0.000295
    28  H   -0.000000  -0.000005  -0.000001  -0.000000   0.000004  -0.000000
    29  H    0.000787   0.017599  -0.002566  -0.000004  -0.000395   0.000006
    30  H    0.000001  -0.000002   0.000000   0.000119  -0.000385  -0.000007
    31  H    0.002338   0.000162  -0.000018   0.003899  -0.000802   0.218019
    32  H   -0.000007  -0.000006   0.000000   0.233267  -0.003652   0.003899
    33  H    0.000228   0.002040  -0.000034  -0.000150   0.231023   0.002116
              19         20         21         22         23         24
     1  Zr  -0.006820  -0.146718   0.033005  -0.008891  -0.007455  -0.005143
     2  O    0.009431  -0.000553   0.011244  -0.000020  -0.000013  -0.000221
     3  O    0.262050   0.163844   0.147552  -0.000029  -0.000008  -0.000008
     4  O    0.009904  -0.000899   0.003294  -0.000012  -0.000054  -0.000001
     5  O    0.002072   0.001410   0.000293   0.005782  -0.025078  -0.005810
     6  Si  -0.005096   0.008891  -0.010970   0.000081   0.000059   0.000029
     7  Si  -0.401272  -0.107303   0.022949  -0.000244   0.000060   0.000072
     8  Si  -0.014709   0.009943  -0.040075   0.000079   0.000065  -0.000118
     9  Si   0.001107   0.003305  -0.002006   0.046762   0.080577   0.037900
    10  O    0.000007  -0.000002   0.000002  -0.006761   0.228646   0.007358
    11  O   -0.000002  -0.000002   0.000001  -0.005228  -0.006303   0.242415
    12  O   -0.000006  -0.000001   0.000036   0.220709   0.005937  -0.007579
    13  O    0.000217   0.000009  -0.000234   0.000000   0.000000  -0.000000
    14  O   -0.000267  -0.000194   0.016389   0.000000   0.000000   0.000000
    15  O    0.000128   0.000038  -0.000582  -0.000000  -0.000000   0.000001
    16  O   -0.001650   0.000064  -0.000215   0.000000  -0.000000   0.000000
    17  O   -0.030406  -0.001018  -0.005519   0.000000   0.000000   0.000000
    18  O    0.000202   0.000014   0.000473  -0.000000  -0.000000  -0.000000
    19  O    8.871475   0.031677   0.023991  -0.000000   0.000000  -0.000000
    20  O    0.031677   8.655926  -0.050326   0.000001   0.000000  -0.000000
    21  O    0.023991  -0.050326   8.486662  -0.000000   0.000000   0.000000
    22  H   -0.000000   0.000001  -0.000000   0.361398   0.000056   0.000121
    23  H    0.000000   0.000000   0.000000   0.000056   0.350918   0.000012
    24  H   -0.000000  -0.000000   0.000000   0.000121   0.000012   0.364889
    25  H   -0.000026   0.000000  -0.000020   0.000000   0.000000   0.000000
    26  H    0.000001  -0.000000   0.000038  -0.000000  -0.000000  -0.000000
    27  H    0.000007   0.000191  -0.004057  -0.000000  -0.000000   0.000000
    28  H    0.004596   0.229623  -0.002115  -0.000000   0.000000  -0.000000
    29  H   -0.008551   0.007667   0.206414   0.000000   0.000000  -0.000000
    30  H    0.224433  -0.001455  -0.007129   0.000000  -0.000000   0.000000
    31  H    0.000004  -0.000000  -0.000000  -0.000000  -0.000000   0.000000
    32  H    0.000099  -0.000000   0.000001  -0.000000  -0.000000  -0.000000
    33  H    0.014857  -0.000079   0.001450  -0.000000  -0.000000  -0.000000
              25         26         27         28         29         30
     1  Zr   0.019194   0.007233   0.007572   0.005249   0.005223   0.001025
     2  O   -0.020434   0.000487  -0.019692  -0.000011  -0.007209  -0.000013
     3  O   -0.000113   0.000016   0.000839  -0.018581  -0.020383   0.000178
     4  O   -0.000209  -0.000012  -0.001761  -0.000015  -0.000146  -0.000448
     5  O    0.000019  -0.000003   0.000006  -0.000016  -0.000073  -0.000008
     6  Si   0.001803  -0.000106   0.007913  -0.000282   0.000077  -0.000814
     7  Si  -0.000507  -0.000361   0.000985   0.056758   0.047931   0.039903
     8  Si   0.057125   0.045987   0.067682  -0.000103   0.021510   0.000060
     9  Si  -0.000224  -0.000040  -0.000025  -0.000125  -0.000051   0.000028
    10  O   -0.000000   0.000000   0.000000  -0.000000   0.000000   0.000000
    11  O   -0.000000   0.000000  -0.000000  -0.000000   0.000000  -0.000000
    12  O   -0.000000  -0.000000  -0.000000  -0.000004  -0.000001   0.000000
    13  O    0.217772  -0.005175  -0.009926  -0.000000   0.000787   0.000001
    14  O   -0.012025  -0.010026   0.218895  -0.000005   0.017599  -0.000002
    15  O    0.008921   0.217447   0.004628  -0.000001  -0.002566   0.000000
    16  O   -0.000045   0.000000   0.000182  -0.000000  -0.000004   0.000119
    17  O    0.000625  -0.000003   0.017833   0.000004  -0.000395  -0.000385
    18  O    0.014749   0.000006  -0.000295  -0.000000   0.000006  -0.000007
    19  O   -0.000026   0.000001   0.000007   0.004596  -0.008551   0.224433
    20  O    0.000000  -0.000000   0.000191   0.229623   0.007667  -0.001455
    21  O   -0.000020   0.000038  -0.004057  -0.002115   0.206414  -0.007129
    22  H    0.000000  -0.000000  -0.000000  -0.000000   0.000000   0.000000
    23  H    0.000000  -0.000000  -0.000000   0.000000   0.000000  -0.000000
    24  H    0.000000  -0.000000   0.000000  -0.000000  -0.000000   0.000000
    25  H    0.298932  -0.000012   0.000117   0.000000   0.000001   0.000000
    26  H   -0.000012   0.365791   0.000037   0.000000   0.000021  -0.000000
    27  H    0.000117   0.000037   0.283362  -0.000000  -0.001492   0.000010
    28  H    0.000000   0.000000  -0.000000   0.349236  -0.000017  -0.000016
    29  H    0.000001   0.000021  -0.001492  -0.000017   0.285958   0.000154
    30  H    0.000000  -0.000000   0.000010  -0.000016   0.000154   0.334178
    31  H   -0.000488   0.000000   0.000013   0.000000   0.000000  -0.000000
    32  H   -0.000001   0.000000  -0.000000   0.000000  -0.000000  -0.000000
    33  H    0.000006  -0.000000  -0.002404  -0.000002   0.000100  -0.001151
              31         32         33
     1  Zr   0.000123   0.001833  -0.016375
     2  O    0.000160  -0.000022   0.001013
     3  O   -0.000019   0.000038  -0.009997
     4  O   -0.018421   0.010335  -0.009512
     5  O   -0.000007   0.000001  -0.000102
     6  Si   0.063480   0.023313   0.053482
     7  Si   0.000150  -0.000654   0.020538
     8  Si  -0.001961   0.000058   0.000193
     9  Si  -0.000051  -0.000005   0.000080
    10  O    0.000000  -0.000000  -0.000000
    11  O   -0.000000   0.000000   0.000000
    12  O   -0.000000   0.000000   0.000000
    13  O    0.002338  -0.000007   0.000228
    14  O    0.000162  -0.000006   0.002040
    15  O   -0.000018   0.000000  -0.000034
    16  O    0.003899   0.233267  -0.000150
    17  O   -0.000802  -0.003652   0.231023
    18  O    0.218019   0.003899   0.002116
    19  O    0.000004   0.000099   0.014857
    20  O   -0.000000  -0.000000  -0.000079
    21  O   -0.000000   0.000001   0.001450
    22  H   -0.000000  -0.000000  -0.000000
    23  H   -0.000000  -0.000000  -0.000000
    24  H    0.000000  -0.000000  -0.000000
    25  H   -0.000488  -0.000001   0.000006
    26  H    0.000000   0.000000  -0.000000
    27  H    0.000013  -0.000000  -0.002404
    28  H    0.000000   0.000000  -0.000002
    29  H    0.000000  -0.000000   0.000100
    30  H   -0.000000  -0.000000  -0.001151
    31  H    0.331378  -0.000001  -0.000038
    32  H   -0.000001   0.349838   0.000157
    33  H   -0.000038   0.000157   0.269295
 Mulliken charges:
               1
     1  Zr  -0.014022
     2  O   -0.544038
     3  O   -0.413481
     4  O   -0.682134
     5  O   -0.357641
     6  Si   2.235053
     7  Si   1.779948
     8  Si   2.018397
     9  Si   1.592048
    10  O   -0.845056
    11  O   -0.787914
    12  O   -0.784788
    13  O   -0.840213
    14  O   -0.879876
    15  O   -0.876574
    16  O   -0.735101
    17  O   -0.969230
    18  O   -1.082540
    19  O   -0.987455
    20  O   -0.804054
    21  O   -0.830549
    22  H    0.386197
    23  H    0.372582
    24  H    0.366085
    25  H    0.414839
    26  H    0.378673
    27  H    0.429381
    28  H    0.375826
    29  H    0.447439
    30  H    0.411340
    31  H    0.402080
    32  H    0.381511
    33  H    0.443266
 Sum of Mulliken charges =  -0.00000
 Mulliken charges with hydrogens summed into heavy atoms:
               1
     1  Zr  -0.014022
     2  O   -0.544038
     3  O   -0.413481
     4  O   -0.682134
     5  O   -0.357641
     6  Si   2.235053
     7  Si   1.779948
     8  Si   2.018397
     9  Si   1.592048
    10  O   -0.472474
    11  O   -0.421829
    12  O   -0.398591
    13  O   -0.425374
    14  O   -0.450496
    15  O   -0.497901
    16  O   -0.353589
    17  O   -0.525964
    18  O   -0.680459
    19  O   -0.576115
    20  O   -0.428228
    21  O   -0.383111
 Electronic spatial extent (au):  <R**2>=           9870.7315
 Charge=             -0.0000 electrons
 Dipole moment (field-independent basis, Debye):
    X=              1.1336    Y=             -0.6750    Z=             -2.2270  Tot=              2.5884
 Quadrupole moment (field-independent basis, Debye-Ang):
   XX=           -160.2002   YY=           -154.5531   ZZ=           -158.0018
   XY=             -4.5885   XZ=              2.5196   YZ=              5.7507
 Traceless Quadrupole moment (field-independent basis, Debye-Ang):
   XX=             -2.6152   YY=              3.0319   ZZ=             -0.4167
   XY=             -4.5885   XZ=              2.5196   YZ=              5.7507
 Octapole moment (field-independent basis, Debye-Ang**2):
  XXX=             73.9978  YYY=              6.7551  ZZZ=            -11.8601  XYY=              0.8224
  XXY=             20.5537  XXZ=             18.6597  XZZ=              3.3007  YZZ=            -15.8104
  YYZ=            -20.4779  XYZ=             27.9955
 Hexadecapole moment (field-independent basis, Debye-Ang**3):
 XXXX=          -6031.0362 YYYY=          -2835.5312 ZZZZ=          -2271.8996 XXXY=             64.3768
 XXXZ=            -48.8861 YYYX=              1.7700 YYYZ=            224.9607 ZZZX=           -154.7004
 ZZZY=            -60.8159 XXYY=          -1463.1396 XXZZ=          -1382.0409 YYZZ=           -921.6339
 XXYZ=            -11.7087 YYXZ=            108.3461 ZZXY=            -60.7595
 N-N= 2.832841537647D+03 E-N=-1.137828644719D+04  KE= 2.373154820556D+03
 PrsmSu:  requested number of processors reduced to:   2 ShMem   1 Linda.
 PrsmSu:  requested number of processors reduced to:  10 ShMem   1 Linda.
   1 Symmetry operations used in ECPInt.
 ECPInt:  NShTT=   13203 NPrTT=   78401 LenC2=   11530 LenP2D=   44644.
 LDataN:  DoStor=T MaxTD1= 9 Len=  602
 Number of processors reduced to  14 by ecpmxn.
 Calling FoFJK, ICntrl=      2127 FMM=F ISym2X=0 I1Cent= 0 IOpClX= 0 NMat=1 NMatS=1 NMatT=0.
 CoulSu:  requested number of processors reduced to:  10 ShMem   1 Linda.
 Defaulting to unpruned grid for atomic number  40.
 Defaulting to unpruned grid for atomic number  40.
 Defaulting to unpruned grid for atomic number  40.
 Defaulting to unpruned grid for atomic number  40.
 Defaulting to unpruned grid for atomic number  40.
 Defaulting to unpruned grid for atomic number  40.
 Defaulting to unpruned grid for atomic number  40.
 Defaulting to unpruned grid for atomic number  40.
 Defaulting to unpruned grid for atomic number  40.
 Defaulting to unpruned grid for atomic number  40.
 Defaulting to unpruned grid for atomic number  40.
 Defaulting to unpruned grid for atomic number  40.
 Defaulting to unpruned grid for atomic number  40.
 Defaulting to unpruned grid for atomic number  40.
 Defaulting to unpruned grid for atomic number  40.
 Defaulting to unpruned grid for atomic number  40.
 ***** Axes restored to original set *****
 -------------------------------------------------------------------
 Center     Atomic                   Forces (Hartrees/Bohr)
 Number     Number              X              Y              Z
 -------------------------------------------------------------------
      1       40          -0.000126534   -0.000135521   -0.000483273
      2        8           0.000063326    0.000033563    0.000197419
      3        8          -0.000051503   -0.000041746    0.000062592
      4        8          -0.000010564    0.000081000    0.000131923
      5        8           0.000055576    0.000153452    0.000139880
      6       14           0.000006152   -0.000030691   -0.000051778
      7       14           0.000051415   -0.000005461   -0.000103027
      8       14          -0.000027496   -0.000100970   -0.000126181
      9       14          -0.000008083   -0.000155964    0.000047799
     10        8           0.000010299    0.000057214   -0.000018735
     11        8           0.000025691    0.000099529   -0.000002120
     12        8           0.000049908    0.000024496    0.000021369
     13        8          -0.000001880    0.000055379    0.000036452
     14        8           0.000008523    0.000019745    0.000033815
     15        8           0.000025605    0.000032607    0.000049898
     16        8          -0.000009025    0.000009059    0.000030961
     17        8           0.000004184    0.000015949    0.000010223
     18        8          -0.000021039    0.000015685    0.000016923
     19        8           0.000001841    0.000010319    0.000029406
     20        8          -0.000023083    0.000004075    0.000027525
     21        8          -0.000005601    0.000004803    0.000056948
     22        1           0.000007565   -0.000012729   -0.000002920
     23        1          -0.000027013   -0.000020953   -0.000001558
     24        1          -0.000024822   -0.000083547   -0.000022721
     25        1           0.000007786   -0.000009580   -0.000017124
     26        1          -0.000004448   -0.000002607   -0.000002293
     27        1          -0.000003081    0.000001050   -0.000017935
     28        1           0.000007695   -0.000000375   -0.000012508
     29        1          -0.000012844   -0.000006624   -0.000012769
     30        1           0.000004655    0.000000011   -0.000005195
     31        1           0.000012963   -0.000003635   -0.000000828
     32        1           0.000015608   -0.000000353   -0.000005558
     33        1          -0.000001777   -0.000007178   -0.000006607
 -------------------------------------------------------------------
 Cartesian Forces:  Max     0.000483273 RMS     0.000071686

 GradGradGradGradGradGradGradGradGradGradGradGradGradGradGradGradGradGrad
 Berny optimization.
 FormGI is forming the generalized inverse of G from B-inverse, IUseBI=4.
 Internal  Forces:  Max     0.000361524 RMS     0.000054124
 Search for a local minimum.
 Step number   1 out of a maximum of  148
 All quantities printed in internal units (Hartrees-Bohrs-Radians)
 Mixed Optimization -- En-DIIS/RFO-DIIS
 Second derivative matrix not updated -- first step.
 ITU=  0
     Eigenvalues ---    0.00230   0.00230   0.00230   0.03240   0.03358
     Eigenvalues ---    0.03498   0.03580   0.03665   0.03665   0.03680
     Eigenvalues ---    0.03686   0.03693   0.03739   0.03789   0.03792
     Eigenvalues ---    0.03816   0.03834   0.03850   0.05521   0.09402
     Eigenvalues ---    0.09687   0.11077   0.11224   0.11833   0.11884
     Eigenvalues ---    0.11890   0.12177   0.12239   0.12299   0.12782
     Eigenvalues ---    0.12895   0.13099   0.13313   0.16000   0.16000
     Eigenvalues ---    0.16000   0.16000   0.16000   0.16000   0.16000
     Eigenvalues ---    0.16000   0.16000   0.16000   0.16000   0.16000
     Eigenvalues ---    0.19173   0.19314   0.19332   0.20013   0.20203
     Eigenvalues ---    0.20204   0.20208   0.20515   0.20653   0.20795
     Eigenvalues ---    0.20989   0.21175   0.21186   0.21227   0.25000
     Eigenvalues ---    0.25000   0.25000   0.38002   0.39187   0.40659
     Eigenvalues ---    0.41547   0.42502   0.42508   0.42670   0.42743
     Eigenvalues ---    0.42824   0.43363   0.43951   0.43980   0.44273
     Eigenvalues ---    0.44485   0.44689   0.44769   0.50655   0.51353
     Eigenvalues ---    0.52036   0.52548   0.54334   0.54624   0.54641
     Eigenvalues ---    0.54649   0.54689   0.54693   0.54713   0.54765
     Eigenvalues --- 1000.000001000.000001000.000001000.000001000.00000
     Eigenvalues --- 1000.000001000.000001000.000001000.000001000.00000
     Eigenvalues --- 1000.000001000.000001000.000001000.000001000.00000
     Eigenvalues --- 1000.000001000.000001000.000001000.000001000.00000
     Eigenvalues --- 1000.000001000.000001000.000001000.000001000.00000
     Eigenvalues --- 1000.000001000.000001000.000001000.000001000.00000
     Eigenvalues --- 1000.000001000.000001000.000001000.000001000.00000
     Eigenvalues --- 1000.000001000.000001000.000001000.000001000.00000
     Eigenvalues --- 1000.000001000.000001000.000001000.000001000.00000
     Eigenvalues --- 1000.000001000.000001000.00000
 RFO step:  Lambda=-3.45444944D-06 EMin= 2.30000000D-03
 Linear search not attempted -- first point.
 Iteration  1 RMS(Cart)=  0.00781128 RMS(Int)=  0.00001685
 Iteration  2 RMS(Cart)=  0.00002831 RMS(Int)=  0.00000035
 Iteration  3 RMS(Cart)=  0.00000000 RMS(Int)=  0.00000035
 Iteration  1 RMS(Cart)=  0.00000006 RMS(Int)=  0.00000001
 Variable       Old X    -DE/DX   Delta X   Delta X   Delta X     New X
                                 (Linear)    (Quad)   (Total)
    R1        3.67647   0.00008   0.00000   0.00038   0.00038   3.67685
    R2        3.69189  -0.00003   0.00000  -0.00013  -0.00013   3.69176
    R3        3.73835  -0.00013   0.00000  -0.00067  -0.00067   3.73768
    R4        3.70232   0.00008   0.00000   0.00038   0.00038   3.70270
    R5        3.11688  -0.00002   0.00000  -0.00005  -0.00005   3.11683
    R6        3.09579  -0.00001   0.00000  -0.00002  -0.00002   3.09577
    R7        3.10213  -0.00001   0.00000  -0.00002  -0.00002   3.10211
    R8        3.09245   0.00003   0.00000   0.00006   0.00006   3.09250
    R9        3.11587  -0.00003   0.00000  -0.00006  -0.00006   3.11581
   R10        3.11989   0.00000   0.00000   0.00001   0.00001   3.11990
   R11        3.14367   0.00000   0.00000   0.00000   0.00000   3.14367
   R12        3.18062  -0.00002   0.00000  -0.00006  -0.00006   3.18056
   R13        3.10924  -0.00000   0.00000  -0.00001  -0.00001   3.10923
   R14        3.09339   0.00005   0.00000   0.00011   0.00011   3.09349
   R15        3.10179  -0.00005   0.00000  -0.00011  -0.00011   3.10168
   R16        3.16373   0.00001   0.00000   0.00001   0.00001   3.16375
   R17        3.09830   0.00005   0.00000   0.00011   0.00011   3.09841
   R18        3.11981   0.00001   0.00000   0.00002   0.00002   3.11983
   R19        3.13204  -0.00003   0.00000  -0.00006  -0.00006   3.13198
   R20        3.11779   0.00003   0.00000   0.00007   0.00007   3.11786
   R21        1.82152   0.00001   0.00000   0.00001   0.00001   1.82154
   R22        1.82106   0.00001   0.00000   0.00002   0.00002   1.82108
   R23        1.82088   0.00000   0.00000   0.00000   0.00000   1.82088
   R24        1.84078   0.00002   0.00000   0.00003   0.00003   1.84082
   R25        1.84565   0.00002   0.00000   0.00003   0.00003   1.84568
   R26        1.82041   0.00000   0.00000   0.00001   0.00001   1.82042
   R27        1.82109   0.00002   0.00000   0.00003   0.00003   1.82112
   R28        1.85910  -0.00001   0.00000  -0.00001  -0.00001   1.85909
   R29        1.82145   0.00000   0.00000   0.00001   0.00001   1.82146
   R30        1.82428  -0.00000   0.00000  -0.00000  -0.00000   1.82428
   R31        1.82168  -0.00001   0.00000  -0.00002  -0.00002   1.82166
   R32        1.85224   0.00001   0.00000   0.00001   0.00001   1.85225
    A1        1.85172  -0.00005   0.00000  -0.00140  -0.00140   1.85032
    A2        1.80155   0.00009   0.00000   0.00056   0.00056   1.80212
    A3        1.96889  -0.00018   0.00000  -0.00166  -0.00166   1.96723
    A4        1.83430  -0.00004   0.00000   0.00084   0.00084   1.83514
    A5        2.01802   0.00006   0.00000   0.00018   0.00017   2.01820
    A6        1.97057   0.00013   0.00000   0.00153   0.00153   1.97210
    A7        2.46524  -0.00008   0.00000  -0.00030  -0.00030   2.46494
    A8        2.58826   0.00002   0.00000   0.00009   0.00009   2.58835
    A9        2.35483   0.00004   0.00000   0.00016   0.00016   2.35499
   A10        2.86714   0.00036   0.00000   0.00000   0.00000   2.86714
   A11        1.91978  -0.00001   0.00000  -0.00005  -0.00005   1.91973
   A12        1.91546  -0.00000   0.00000  -0.00005  -0.00005   1.91541
   A13        1.95201   0.00000   0.00000   0.00000   0.00000   1.95202
   A14        2.00708   0.00000   0.00000   0.00001   0.00001   2.00709
   A15        1.88610   0.00002   0.00000   0.00011   0.00011   1.88621
[...]
 Alpha virt. eigenvalues --    3.52984   3.54434   3.60303   3.61083   3.62049
 Alpha virt. eigenvalues --    3.66198   4.28735   4.58556   7.87040  31.29088
          Condensed to atoms (all electrons):
               1          2          3          4          5          6
     1  Zr  15.115649  -0.157734  -0.002958  -0.152665  -0.202572  -0.549141
     2  O   -0.157734   9.080927   0.019786  -0.041983  -0.057405   0.094704
     3  O   -0.002958   0.019786   8.832351   0.013655  -0.040954  -0.006223
     4  O   -0.152665  -0.041983   0.013655   8.819087  -0.057744  -0.675376
     5  O   -0.202572  -0.057405  -0.040954  -0.057744   9.451163  -0.004944
     6  Si  -0.549141   0.094704  -0.006223  -0.675376  -0.004944  13.941049
     7  Si  -0.619420  -0.027308  -0.878654  -0.004812  -0.032921   0.083801
     8  Si  -0.542231  -1.003569  -0.021745   0.075662  -0.013297  -0.034889
     9  Si  -0.330363  -0.043243  -0.027735  -0.035687  -1.291678   0.036971
    10  O   -0.008220   0.000992  -0.002063   0.001333   0.134766  -0.002551
    11  O   -0.057613   0.004068   0.002874   0.001162   0.324047  -0.001006
    12  O    0.033919   0.000188   0.004768   0.002231   0.172821  -0.002469
    13  O   -0.055660   0.191794   0.001754  -0.015724  -0.000643   0.040312
    14  O   -0.031656   0.267899  -0.016868  -0.008881   0.002153   0.032450
    15  O   -0.075760   0.291019  -0.000796   0.001235   0.000536  -0.001707
    16  O   -0.130718   0.004616  -0.000453   0.345428   0.003112  -0.418423
    17  O   -0.079651  -0.040572   0.007111   0.223302   0.001185  -0.459274
    18  O   -0.030623  -0.013746   0.003714   0.200177  -0.000555  -0.450593
    19  O   -0.005502   0.009430   0.261959   0.009956   0.002087  -0.005397
    20  O   -0.146329  -0.000554   0.163794  -0.000906   0.001396   0.008976
    21  O    0.033103   0.011181   0.148538   0.003281   0.000288  -0.011024
    22  H   -0.009002  -0.000020  -0.000028  -0.000011   0.005782   0.000081
    23  H   -0.007605  -0.000013  -0.000008  -0.000055  -0.025264   0.000061
    24  H   -0.005074  -0.000233  -0.000009  -0.000002  -0.005123   0.000030
    25  H    0.018942  -0.020395  -0.000114  -0.000219   0.000019   0.001894
    26  H    0.007276   0.000488   0.000016  -0.000012  -0.000004  -0.000112
    27  H    0.007278  -0.019608   0.000843  -0.001746   0.000007   0.007889
    28  H    0.005206  -0.000011  -0.018618  -0.000015  -0.000016  -0.000282
    29  H    0.005215  -0.007165  -0.020420  -0.000144  -0.000074   0.000068
    30  H    0.000942  -0.000014   0.000205  -0.000449  -0.000008  -0.000789
    31  H   -0.000033   0.000162  -0.000019  -0.018433  -0.000007   0.063648
    32  H    0.001884  -0.000022   0.000038   0.010379   0.000001   0.023276
    33  H   -0.016431   0.001011  -0.010023  -0.009553  -0.000102   0.053545
               7          8          9         10         11         12
     1  Zr  -0.619420  -0.542231  -0.330363  -0.008220  -0.057613   0.033919
     2  O   -0.027308  -1.003569  -0.043243   0.000992   0.004068   0.000188
     3  O   -0.878654  -0.021745  -0.027735  -0.002063   0.002874   0.004768
     4  O   -0.004812   0.075662  -0.035687   0.001333   0.001162   0.002231
     5  O   -0.032921  -0.013297  -1.291678   0.134766   0.324047   0.172821
     6  Si   0.083801  -0.034889   0.036971  -0.002551  -0.001006  -0.002469
     7  Si  13.797780   0.181352   0.021237  -0.000264  -0.000637   0.004352
     8  Si   0.181352  13.775709   0.025080  -0.000770   0.000995  -0.000150
     9  Si   0.021237   0.025080  14.402617  -0.083778  -0.208099  -0.238194
    10  O   -0.000264  -0.000770  -0.083778   8.526223   0.015925   0.034813
    11  O   -0.000637   0.000995  -0.208099   0.015925   8.524140  -0.047531
    12  O    0.004352  -0.000150  -0.238194   0.034813  -0.047531   8.602133
    13  O    0.007864  -0.092483   0.000487  -0.000000   0.000017   0.000011
    14  O    0.010532  -0.368914  -0.001384  -0.000002  -0.000000   0.000018
    15  O   -0.003186  -0.305765  -0.000827   0.000000  -0.000026  -0.000020
    16  O    0.003907  -0.009405  -0.000920   0.000002  -0.000001  -0.000001
    17  O   -0.000567   0.097056   0.002514  -0.000003  -0.000000  -0.000005
    18  O   -0.000402   0.073652   0.004324  -0.000005  -0.000003  -0.000001
    19  O   -0.403153  -0.014976   0.001094   0.000007  -0.000002  -0.000007
    20  O   -0.107120   0.009869   0.003283  -0.000002  -0.000003  -0.000003
    21  O    0.021977  -0.040035  -0.002011   0.000002   0.000001   0.000034
    22  H   -0.000239   0.000080   0.047007  -0.006732  -0.005173   0.220422
    23  H    0.000060   0.000066   0.080964   0.228604  -0.006371   0.006047
    24  H    0.000071  -0.000125   0.036934   0.007211   0.242161  -0.007397
    25  H   -0.000503   0.057219  -0.000222  -0.000000  -0.000000  -0.000000
    26  H   -0.000363   0.045960  -0.000041   0.000000   0.000000  -0.000000
    27  H    0.000991   0.067794  -0.000023   0.000000  -0.000000  -0.000000
    28  H    0.056803  -0.000097  -0.000126  -0.000000  -0.000000  -0.000004
    29  H    0.047973   0.021449  -0.000051   0.000000   0.000000  -0.000001
    30  H    0.039942   0.000066   0.000027   0.000000  -0.000000   0.000000
    31  H    0.000153  -0.001945  -0.000051   0.000000  -0.000000  -0.000000
    32  H   -0.000654   0.000055  -0.000004  -0.000000   0.000000   0.000000
    33  H    0.020627   0.000193   0.000081  -0.000000   0.000000   0.000000
              13         14         15         16         17         18
     1  Zr  -0.055660  -0.031656  -0.075760  -0.130718  -0.079651  -0.030623
     2  O    0.191794   0.267899   0.291019   0.004616  -0.040572  -0.013746
     3  O    0.001754  -0.016868  -0.000796  -0.000453   0.007111   0.003714
     4  O   -0.015724  -0.008881   0.001235   0.345428   0.223302   0.200177
     5  O   -0.000643   0.002153   0.000536   0.003112   0.001185  -0.000555
     6  Si   0.040312   0.032450  -0.001707  -0.418423  -0.459274  -0.450593
     7  Si   0.007864   0.010532  -0.003186   0.003907  -0.000567  -0.000402
     8  Si  -0.092483  -0.368914  -0.305765  -0.009405   0.097056   0.073652
     9  Si   0.000487  -0.001384  -0.000827  -0.000920   0.002514   0.004324
    10  O   -0.000000  -0.000002   0.000000   0.000002  -0.000003  -0.000005
    11  O    0.000017  -0.000000  -0.000026  -0.000001  -0.000000  -0.000003
    12  O    0.000011   0.000018  -0.000020  -0.000001  -0.000005  -0.000001
    13  O    8.632166   0.087864  -0.091095   0.003707  -0.030820  -0.045009
    14  O    0.087864   8.678620   0.055077   0.003682  -0.035998  -0.026779
    15  O   -0.091095   0.055077   8.774833  -0.000174   0.003555   0.001639
    16  O    0.003707   0.003682  -0.000174   8.902431  -0.091165  -0.116185
    17  O   -0.030820  -0.035998   0.003555  -0.091165   8.936668   0.228230
    18  O   -0.045009  -0.026779   0.001639  -0.116185   0.228230   9.014882
    19  O    0.000215  -0.000139   0.000131  -0.001660  -0.030322   0.000205
    20  O    0.000008  -0.000207   0.000039   0.000063  -0.001011   0.000015
    21  O   -0.000242   0.016333  -0.000574  -0.000214  -0.005500   0.000467
    22  H    0.000000   0.000000  -0.000000   0.000000   0.000000  -0.000000
    23  H    0.000000   0.000000  -0.000000  -0.000000   0.000000  -0.000000
    24  H   -0.000000   0.000000   0.000001   0.000000   0.000000  -0.000000
    25  H    0.217842  -0.012027   0.008919  -0.000041   0.000615   0.014714
    26  H   -0.005178  -0.010031   0.217398   0.000000  -0.000003   0.000006
    27  H   -0.009921   0.218913   0.004629   0.000184   0.017877  -0.000283
    28  H   -0.000000  -0.000004  -0.000001  -0.000000   0.000004  -0.000000
    29  H    0.000784   0.017617  -0.002555  -0.000004  -0.000396   0.000006
    30  H    0.000001  -0.000004   0.000000   0.000119  -0.000381  -0.000007
    31  H    0.002339   0.000161  -0.000018   0.003846  -0.000776   0.218082
    32  H   -0.000008  -0.000006   0.000000   0.233175  -0.003626   0.003871
    33  H    0.000229   0.002039  -0.000035  -0.000163   0.230988   0.002101
              19         20         21         22         23         24
     1  Zr  -0.005502  -0.146329   0.033103  -0.009002  -0.007605  -0.005074
     2  O    0.009430  -0.000554   0.011181  -0.000020  -0.000013  -0.000233
     3  O    0.261959   0.163794   0.148538  -0.000028  -0.000008  -0.000009
     4  O    0.009956  -0.000906   0.003281  -0.000011  -0.000055  -0.000002
     5  O    0.002087   0.001396   0.000288   0.005782  -0.025264  -0.005123
     6  Si  -0.005397   0.008976  -0.011024   0.000081   0.000061   0.000030
     7  Si  -0.403153  -0.107120   0.021977  -0.000239   0.000060   0.000071
     8  Si  -0.014976   0.009869  -0.040035   0.000080   0.000066  -0.000125
     9  Si   0.001094   0.003283  -0.002011   0.047007   0.080964   0.036934
    10  O    0.000007  -0.000002   0.000002  -0.006732   0.228604   0.007211
    11  O   -0.000002  -0.000003   0.000001  -0.005173  -0.006371   0.242161
    12  O   -0.000007  -0.000003   0.000034   0.220422   0.006047  -0.007397
    13  O    0.000215   0.000008  -0.000242   0.000000   0.000000  -0.000000
    14  O   -0.000139  -0.000207   0.016333   0.000000   0.000000   0.000000
    15  O    0.000131   0.000039  -0.000574  -0.000000  -0.000000   0.000001
    16  O   -0.001660   0.000063  -0.000214   0.000000  -0.000000   0.000000
    17  O   -0.030322  -0.001011  -0.005500   0.000000   0.000000   0.000000
    18  O    0.000205   0.000015   0.000467  -0.000000  -0.000000  -0.000000
    19  O    8.871499   0.032388   0.024198  -0.000000   0.000000  -0.000000
    20  O    0.032388   8.655455  -0.050791   0.000001   0.000000  -0.000000
    21  O    0.024198  -0.050791   8.486925  -0.000000   0.000000   0.000000
    22  H   -0.000000   0.000001  -0.000000   0.361513   0.000053   0.000112
    23  H    0.000000   0.000000   0.000000   0.000053   0.351190   0.000015
    24  H   -0.000000  -0.000000   0.000000   0.000112   0.000015   0.364903
    25  H   -0.000026   0.000000  -0.000020   0.000000   0.000000   0.000000
    26  H    0.000001  -0.000000   0.000038  -0.000000  -0.000000  -0.000000
    27  H    0.000013   0.000191  -0.004050  -0.000000  -0.000000   0.000000
    28  H    0.004609   0.229681  -0.002137  -0.000000   0.000000  -0.000000
    29  H   -0.008578   0.007672   0.206452   0.000000   0.000000  -0.000000
    30  H    0.224417  -0.001459  -0.007118   0.000000  -0.000000   0.000000
    31  H    0.000004  -0.000000  -0.000000  -0.000000  -0.000000   0.000000
    32  H    0.000099   0.000000   0.000001  -0.000000  -0.000000  -0.000000
    33  H    0.014861  -0.000083   0.001443  -0.000000  -0.000000  -0.000000
              25         26         27         28         29         30
     1  Zr   0.018942   0.007276   0.007278   0.005206   0.005215   0.000942
     2  O   -0.020395   0.000488  -0.019608  -0.000011  -0.007165  -0.000014
     3  O   -0.000114   0.000016   0.000843  -0.018618  -0.020420   0.000205
     4  O   -0.000219  -0.000012  -0.001746  -0.000015  -0.000144  -0.000449
     5  O    0.000019  -0.000004   0.000007  -0.000016  -0.000074  -0.000008
     6  Si   0.001894  -0.000112   0.007889  -0.000282   0.000068  -0.000789
     7  Si  -0.000503  -0.000363   0.000991   0.056803   0.047973   0.039942
     8  Si   0.057219   0.045960   0.067794  -0.000097   0.021449   0.000066
     9  Si  -0.000222  -0.000041  -0.000023  -0.000126  -0.000051   0.000027
    10  O   -0.000000   0.000000   0.000000  -0.000000   0.000000   0.000000
    11  O   -0.000000   0.000000  -0.000000  -0.000000   0.000000  -0.000000
    12  O   -0.000000  -0.000000  -0.000000  -0.000004  -0.000001   0.000000
    13  O    0.217842  -0.005178  -0.009921  -0.000000   0.000784   0.000001
    14  O   -0.012027  -0.010031   0.218913  -0.000004   0.017617  -0.000004
    15  O    0.008919   0.217398   0.004629  -0.000001  -0.002555   0.000000
    16  O   -0.000041   0.000000   0.000184  -0.000000  -0.000004   0.000119
    17  O    0.000615  -0.000003   0.017877   0.000004  -0.000396  -0.000381
    18  O    0.014714   0.000006  -0.000283  -0.000000   0.000006  -0.000007
    19  O   -0.000026   0.000001   0.000013   0.004609  -0.008578   0.224417
    20  O    0.000000  -0.000000   0.000191   0.229681   0.007672  -0.001459
    21  O   -0.000020   0.000038  -0.004050  -0.002137   0.206452  -0.007118
    22  H    0.000000  -0.000000  -0.000000  -0.000000   0.000000   0.000000
    23  H    0.000000  -0.000000  -0.000000   0.000000   0.000000  -0.000000
    24  H    0.000000  -0.000000   0.000000  -0.000000  -0.000000   0.000000
    25  H    0.298979  -0.000012   0.000118   0.000000   0.000001   0.000000
    26  H   -0.000012   0.365853   0.000037   0.000000   0.000021  -0.000000
    27  H    0.000118   0.000037   0.283441  -0.000000  -0.001486   0.000010
    28  H    0.000000   0.000000  -0.000000   0.349174  -0.000017  -0.000016
    29  H    0.000001   0.000021  -0.001486  -0.000017   0.286012   0.000154
    30  H    0.000000  -0.000000   0.000010  -0.000016   0.000154   0.334030
    31  H   -0.000500   0.000000   0.000013   0.000000   0.000000  -0.000000
    32  H   -0.000001   0.000000  -0.000000   0.000000  -0.000000  -0.000000
    33  H    0.000006  -0.000000  -0.002413  -0.000002   0.000100  -0.001142
              31         32         33
     1  Zr  -0.000033   0.001884  -0.016431
     2  O    0.000162  -0.000022   0.001011
     3  O   -0.000019   0.000038  -0.010023
     4  O   -0.018433   0.010379  -0.009553
     5  O   -0.000007   0.000001  -0.000102
     6  Si   0.063648   0.023276   0.053545
     7  Si   0.000153  -0.000654   0.020627
     8  Si  -0.001945   0.000055   0.000193
     9  Si  -0.000051  -0.000004   0.000081
    10  O    0.000000  -0.000000  -0.000000
    11  O   -0.000000   0.000000   0.000000
    12  O   -0.000000   0.000000   0.000000
    13  O    0.002339  -0.000008   0.000229
    14  O    0.000161  -0.000006   0.002039
    15  O   -0.000018   0.000000  -0.000035
    16  O    0.003846   0.233175  -0.000163
    17  O   -0.000776  -0.003626   0.230988
    18  O    0.218082   0.003871   0.002101
    19  O    0.000004   0.000099   0.014861
    20  O   -0.000000   0.000000  -0.000083
    21  O   -0.000000   0.000001   0.001443
    22  H   -0.000000  -0.000000  -0.000000
    23  H   -0.000000  -0.000000  -0.000000
    24  H    0.000000  -0.000000  -0.000000
    25  H   -0.000500  -0.000001   0.000006
    26  H    0.000000   0.000000  -0.000000
    27  H    0.000013  -0.000000  -0.002413
    28  H    0.000000   0.000000  -0.000002
    29  H    0.000000  -0.000000   0.000100
    30  H   -0.000000  -0.000000  -0.001142
    31  H    0.331545   0.000000  -0.000038
    32  H    0.000000   0.349856   0.000156
    33  H   -0.000038   0.000156   0.269296
 Mulliken charges:
               1
     1  Zr  -0.012454
     2  O   -0.544670
     3  O   -0.413719
     4  O   -0.682470
     5  O   -0.366054
     6  Si   2.235442
     7  Si   1.780779
     8  Si   2.018138
     9  Si   1.601815
    10  O   -0.845488
    11  O   -0.788926
    12  O   -0.785975
    13  O   -0.840610
    14  O   -0.880456
    15  O   -0.876474
    16  O   -0.734746
    17  O   -0.969033
    18  O   -1.081895
    19  O   -0.987409
    20  O   -0.804364
    21  O   -0.830549
    22  H    0.386153
    23  H    0.372255
    24  H    0.366523
    25  H    0.414810
    26  H    0.378662
    27  H    0.429302
    28  H    0.375868
    29  H    0.447366
    30  H    0.411475
    31  H    0.401867
    32  H    0.381529
    33  H    0.443307
 Sum of Mulliken charges =  -0.00000
 Mulliken charges with hydrogens summed into heavy atoms:
               1
     1  Zr  -0.012454
     2  O   -0.544670
     3  O   -0.413719
     4  O   -0.682470
     5  O   -0.366054
     6  Si   2.235442
     7  Si   1.780779
     8  Si   2.018138
     9  Si   1.601815
    10  O   -0.473234
    11  O   -0.422402
    12  O   -0.399822
    13  O   -0.425799
    14  O   -0.451155
    15  O   -0.497812
    16  O   -0.353216
    17  O   -0.525726
    18  O   -0.680028
    19  O   -0.575934
    20  O   -0.428496
    21  O   -0.383184
 Electronic spatial extent (au):  <R**2>=           9870.5687
 Charge=              0.0000 electrons
 Dipole moment (field-independent basis, Debye):
    X=              1.0870    Y=             -0.7094    Z=             -2.2796  Tot=              2.6232
 Quadrupole moment (field-independent basis, Debye-Ang):
   XX=           -160.5790   YY=           -154.4207   ZZ=           -158.0508
   XY=             -4.6387   XZ=              2.3469   YZ=              5.7467
 Traceless Quadrupole moment (field-independent basis, Debye-Ang):
   XX=             -2.8955   YY=              3.2628   ZZ=             -0.3673
   XY=             -4.6387   XZ=              2.3469   YZ=              5.7467
 Octapole moment (field-independent basis, Debye-Ang**2):
  XXX=             71.8332  YYY=              6.4954  ZZZ=            -12.4895  XYY=              1.1527
  XXY=             20.6949  XXZ=             17.8659  XZZ=              2.7900  YZZ=            -16.0613
  YYZ=            -20.2966  XYZ=             28.1382
 Hexadecapole moment (field-independent basis, Debye-Ang**3):
 XXXX=          -6045.8242 YYYY=          -2834.0231 ZZZZ=          -2269.6202 XXXY=             64.7288
 XXXZ=            -50.9990 YYYX=              2.0625 YYYZ=            224.0834 ZZZX=           -157.0569
 ZZZY=            -60.1762 XXYY=          -1462.5194 XXZZ=          -1385.3324 YYZZ=           -922.2637
 XXYZ=            -11.0185 YYXZ=            109.0294 ZZXY=            -60.5550
 N-N= 2.832849000228D+03 E-N=-1.137829171687D+04  KE= 2.373154657094D+03
 1\1\GINC-GRA1251\FOpt\RB3LYP\Gen\H12O16Si4Zr1\SARASHS\14-Aug-2020\0\\#
 n B3LYP/Gen Pseudo=cards EmpiricalDispersion=GD3 Opt=modredundant\\Tit
 le\\0,1\Zr,0.6581315169,-0.124386126,-0.0777992692\O,-0.2182554564,-0.
 9041215186,1.4743261935\O,0.1014581365,1.7475166369,-0.1243803059\O,-0
 .2708018158,-0.9784886115,-1.6010571632\O,2.5928102993,-0.4350573249,-
 0.0837750812\Si,-1.8341989358,-1.3332641482,-1.954433012\Si,-1.1167218
 089,2.8420858772,-0.0849027083\Si,-1.7181944789,-1.1513665518,2.114372
 6038\Si,4.2184227086,-0.2481933727,-0.0545545216\O,4.9244588804,-0.319
 1738899,-1.5453780239\O,4.9183594101,-1.4709441113,0.8181746151\O,4.46
 73072989,1.2600599568,0.5658974988\O,-2.3137816278,-2.6227530371,1.697
 0450625\O,-2.7201103389,0.0660748762,1.5514584063\O,-1.5888259929,-1.0
 174658086,3.7433961461\O,-2.007193611,-1.5611920318,-3.5782115849\O,-2
 .8274689699,-0.1879337874,-1.3008465986\O,-2.3452648853,-2.7149980091,
 -1.1817093167\O,-2.0432241157,2.4383586755,-1.430787578\O,-0.637328083
 2,4.4005239539,-0.3050516704\O,-1.9650640304,2.7630053478,1.3129299099
 \H,5.3535380484,1.6271469225,0.4747272722\H,5.2584104368,-1.1835121001
 ,-1.8109843305\H,4.4883493121,-1.7301124114,1.6407196019\H,-2.40261270
 67,-2.8087075531,0.744981459\H,-2.3718759565,-1.2223424797,4.265758706
 8\H,-3.0583450473,-0.0828751461,0.6473893901\H,-0.5259451643,4.9282843
 152,0.4938954547\H,-2.2675948657,1.871434722,1.5854543883\H,-2.6510466
 183,3.1255213711,-1.7312791402\H,-2.3028216657,-3.5309704043,-1.693031
 417\H,-1.2773631303,-1.2658590712,-4.1339322218\H,-2.6129967423,0.7534
 448397,-1.4897627656\\Version=ES64L-G16RevB.01\State=1-A\HF=-2416.9468
 356\RMSD=3.919e-09\RMSF=2.839e-05\Dipole=0.4150288,-0.2761006,-0.90369
 28\Quadrupole=-2.080985,2.3890789,-0.3080938,-3.4011121,1.7529025,4.33
 39175\PG=C01 [X(H12O16Si4Zr1)]\\@


 Boundary, n.  In political geography, an imaginary
 line between two nations, separating the imaginary
 rights of one from the imaginary rights of another.
                               -- Ambrose Bierce
 Job cpu time:       0 days 11 hours 25 minutes 10.7 seconds.
 Elapsed time:       0 days  0 hours 53 minutes 17.0 seconds.
 File lengths (MBytes):  RWF=    167 Int=      0 D2E=      0 Chk=     21 Scr=      1
 Normal termination of Gaussian 16 at Fri Aug 14 03:53:07 2020.
