 Entering Gaussian System, Link 0=g16
 Initial command:
 /opt/software/gaussian/g16.b01/l1.exe "/localscratch/sarashs.37242619.0/Gau-8619.inp" -scrdir="/localscratch/sarashs.37242619.0/"
 Entering Link 1 = /opt/software/gaussian/g16.b01/l1.exe PID=      8624.
  
 Copyright (c) 1988-2017, Gaussian, Inc.  All Rights Reserved.
  
 This is part of the Gaussian(R) 16 program.  It is based on
 the Gaussian(R) 09 system (copyright 2009, Gaussian, Inc.),
 the Gaussian(R) 03 system (copyright 2003, Gaussian, Inc.),
 the Gaussian(R) 98 system (copyright 1998, Gaussian, Inc.),
 the Gaussian(R) 94 system (copyright 1995, Gaussian, Inc.),
 the Gaussian 92(TM) system (copyright 1992, Gaussian, Inc.),
 the Gaussian 90(TM) system (copyright 1990, Gaussian, Inc.),
 the Gaussian 88(TM) system (copyright 1988, Gaussian, Inc.),
 the Gaussian 86(TM) system (copyright 1986, Carnegie Mellon
 University), and the Gaussian 82(TM) system (copyright 1983,
 Carnegie Mellon University). Gaussian is a federally registered
 trademark of Gaussian, Inc.
  
 This software contains proprietary and confidential information,
 including trade secrets, belonging to Gaussian, Inc.
  
 This software is provided under written license and may be
 used, copied, transmitted, or stored only in accord with that
 written license.
  
 The following legend is applicable only to US Government
 contracts under FAR:
  
                    RESTRICTED RIGHTS LEGEND
  
 Use, reproduction and disclosure by the US Government is
 subject to restrictions as set forth in subparagraphs (a)
 and (c) of the Commercial Computer Software - Restricted
 Rights clause in FAR 52.227-19.
  
 Gaussian, Inc.
 340 Quinnipiac St., Bldg. 40, Wallingford CT 06492
  
  
 ---------------------------------------------------------------
 Warning -- This program may not be used in any manner that
 competes with the business of Gaussian, Inc. or will provide
 assistance to any competitor of Gaussian, Inc.  The licensee
 of this program is prohibited from giving any competitor of
 Gaussian, Inc. access to this program.  By using this program,
 the user acknowledges that Gaussian, Inc. is engaged in the
 business of creating and licensing software in the field of
 computational chemistry and represents and warrants to the
 licensee that it is not a competitor of Gaussian, Inc. and that
 it will not use this program in any manner prohibited above.
 ---------------------------------------------------------------
  

 Cite this work as:
 Gaussian 16, Revision B.01,
 M. J. Frisch, G. W. Trucks, H. B. Schlegel, G. E. Scuseria, 
 M. A. Robb, J. R. Cheeseman, G. Scalmani, V. Barone, 
 G. A. Petersson, H. Nakatsuji, X. Li, M. Caricato, A. V. Marenich, 
 J. Bloino, B. G. Janesko, R. Gomperts, B. Mennucci, H. P. Hratchian, 
 J. V. Ortiz, A. F. Izmaylov, J. L. Sonnenberg, D. Williams-Young, 
 F. Ding, F. Lipparini, F. Egidi, J. Goings, B. Peng, A. Petrone, 
 T. Henderson, D. Ranasinghe, V. G. Zakrzewski, J. Gao, N. Rega, 
 G. Zheng, W. Liang, M. Hada, M. Ehara, K. Toyota, R. Fukuda, 
 J. Hasegawa, M. Ishida, T. Nakajima, Y. Honda, O. Kitao, H. Nakai, 
 T. Vreven, K. Throssell, J. A. Montgomery, Jr., J. E. Peralta, 
 F. Ogliaro, M. J. Bearpark, J. J. Heyd, E. N. Brothers, K. N. Kudin, 
 V. N. Staroverov, T. A. Keith, R. Kobayashi, J. Normand, 
 K. Raghavachari, A. P. Rendell, J. C. Burant, S. S. Iyengar, 
 J. Tomasi, M. Cossi, J. M. Millam, M. Klene, C. Adamo, R. Cammi, 
 J. W. Ochterski, R. L. Martin, K. Morokuma, O. Farkas, 
 J. B. Foresman, and D. J. Fox, Gaussian, Inc., Wallingford CT, 2016.
 
 ******************************************
 Gaussian 16:  ES64L-G16RevB.01 20-Dec-2017
                14-Aug-2020 
 ******************************************
 %NProcShared=16
 Will use up to   16 processors via shared memory.
 ------------------------------------------------------------------
 #n B3LYP/Gen Pseudo=cards EmpiricalDispersion=GD3 Opt=modredundant
 ------------------------------------------------------------------
 1/18=120,19=15,26=3,38=1/1,3;
 2/9=110,12=2,17=6,18=5,40=1/2;
 3/5=7,11=2,16=1,17=8,25=1,30=1,71=1,74=-5,124=31/1,2,3;
 4//1;
 5/5=2,38=5/2;
 6/7=2,8=2,9=2,10=2,28=1/1;
 7//1,2,3,16;
 1/18=20,19=15,26=3/3(2);
 2/9=110/2;
 99//99;
 2/9=110/2;
 3/5=7,6=1,11=2,16=1,17=8,25=1,30=1,71=1,74=-5,82=7,124=31/1,2,3;
 4/5=5,16=3,69=1/1;
 5/5=2,38=5/2;
 7//1,2,3,16;
 1/18=20,19=15,26=3/3(-5);
 2/9=110/2;
 6/7=2,8=2,9=2,10=2,19=2,28=1/1;
 99/9=1/99;
 -----
 Title
 -----
 Symbolic Z-matrix:
 Charge =  0 Multiplicity = 1
 Zr                    0.65779  -0.12506  -0.07164 
 O                    -0.22285  -0.90624   1.4773 
 O                     0.10302   1.74748  -0.12299 
 O                    -0.2683   -0.97885  -1.59705 
 O                     2.59206  -0.4363   -0.08284 
 Si                   -1.83119  -1.33244  -1.9536 
 Si                   -1.1155    2.84172  -0.08279 
 Si                   -1.72376  -1.15291   2.11517 
 Si                    4.21774  -0.24876  -0.08277 
 O                     4.90584  -0.40498  -1.57531 
 O                     4.92977  -1.41989   0.84913 
 O                     4.47146   1.29168   0.45081 
 O                    -2.31924  -2.624     1.69627 
 O                    -2.72422   0.06508   1.55086 
 O                    -1.59734  -1.01957   3.74439 
 O                    -2.00144  -1.55965  -3.57782 
 O                    -2.82509  -0.18676  -1.30145 
 O                    -2.34448  -2.71439  -1.18277 
 O                    -2.04046   2.43957  -1.43023 
 O                    -0.63565   4.40049  -0.29987 
 O                    -1.96551   2.76086   1.31383 
 H                     5.35594   1.65425   0.3295 
 H                     5.245    -1.28083  -1.79205 
 H                     4.52324  -1.61625   1.70051 
 H                    -2.40577  -2.80951   0.74392 
 H                    -2.38137  -1.22423   4.26535 
 H                    -3.06034  -0.08306   0.64589 
 H                    -0.52731   4.92728   0.50015 
 H                    -2.26909   1.86932   1.58533 
 H                    -2.64854   3.12676  -1.73014 
 H                    -2.30452  -3.52952  -1.69562 
 H                    -1.27114  -1.26305  -4.13223 
 H                    -2.61026   0.75461  -1.48993 
 
 The following ModRedundant input section has been read:
 A       1       5       9 F                                                   
 D       1       5       9      12 F                                           
 D       3       1       5       9 F                                           
 

 GradGradGradGradGradGradGradGradGradGradGradGradGradGradGradGradGradGrad
 Berny optimization.
 Initialization pass.
                           ----------------------------
                           !    Initial Parameters    !
                           ! (Angstroms and Degrees)  !
 --------------------------                            --------------------------
 ! Name  Definition              Value          Derivative Info.                !
 --------------------------------------------------------------------------------
 ! R1    R(1,2)                  1.9455         estimate D2E/DX2                !
 ! R2    R(1,3)                  1.9537         estimate D2E/DX2                !
 ! R3    R(1,4)                  1.9783         estimate D2E/DX2                !
 ! R4    R(1,5)                  1.9592         estimate D2E/DX2                !
 ! R5    R(2,8)                  1.6494         estimate D2E/DX2                !
 ! R6    R(3,7)                  1.6382         estimate D2E/DX2                !
 ! R7    R(4,6)                  1.6416         estimate D2E/DX2                !
 ! R8    R(5,9)                  1.6365         estimate D2E/DX2                !
 ! R9    R(6,16)                 1.6488         estimate D2E/DX2                !
 ! R10   R(6,17)                 1.651          estimate D2E/DX2                !
 ! R11   R(6,18)                 1.6636         estimate D2E/DX2                !
 ! R12   R(7,19)                 1.6831         estimate D2E/DX2                !
 ! R13   R(7,20)                 1.6453         estimate D2E/DX2                !
 ! R14   R(7,21)                 1.6369         estimate D2E/DX2                !
 ! R15   R(8,13)                 1.6414         estimate D2E/DX2                !
 ! R16   R(8,14)                 1.6742         estimate D2E/DX2                !
 ! R17   R(8,15)                 1.6395         estimate D2E/DX2                !
 ! R18   R(9,10)                 1.6509         estimate D2E/DX2                !
 ! R19   R(9,11)                 1.6574         estimate D2E/DX2                !
 ! R20   R(9,12)                 1.6499         estimate D2E/DX2                !
 ! R21   R(10,23)                0.9639         estimate D2E/DX2                !
 ! R22   R(11,24)                0.9637         estimate D2E/DX2                !
 ! R23   R(12,22)                0.9636         estimate D2E/DX2                !
 ! R24   R(13,25)                0.9741         estimate D2E/DX2                !
 ! R25   R(14,27)                0.9767         estimate D2E/DX2                !
 ! R26   R(15,26)                0.9633         estimate D2E/DX2                !
 ! R27   R(16,32)                0.9637         estimate D2E/DX2                !
 ! R28   R(17,33)                0.9838         estimate D2E/DX2                !
 ! R29   R(18,31)                0.9639         estimate D2E/DX2                !
 ! R30   R(19,30)                0.9654         estimate D2E/DX2                !
 ! R31   R(20,28)                0.964          estimate D2E/DX2                !
 ! R32   R(21,29)                0.9802         estimate D2E/DX2                !
 ! A1    A(2,1,3)              106.0959         estimate D2E/DX2                !
 ! A2    A(2,1,4)              103.2214         estimate D2E/DX2                !
 ! A3    A(2,1,5)              112.8091         estimate D2E/DX2                !
 ! A4    A(3,1,4)              105.0977         estimate D2E/DX2                !
 ! A5    A(3,1,5)              115.6243         estimate D2E/DX2                !
 ! A6    A(4,1,5)              112.9055         estimate D2E/DX2                !
 ! A7    A(1,2,8)              141.2479         estimate D2E/DX2                !
 ! A8    A(1,3,7)              148.2962         estimate D2E/DX2                !
 ! A9    A(1,4,6)              134.9216         estimate D2E/DX2                !
 ! A10   A(1,5,9)              164.275          Frozen                          !
 ! A11   A(4,6,16)             109.9952         estimate D2E/DX2                !
 ! A12   A(4,6,17)             109.7479         estimate D2E/DX2                !
 ! A13   A(4,6,18)             111.8422         estimate D2E/DX2                !
 ! A14   A(16,6,17)            114.9972         estimate D2E/DX2                !
 ! A15   A(16,6,18)            108.0658         estimate D2E/DX2                !
 ! A16   A(17,6,18)            101.9869         estimate D2E/DX2                !
 ! A17   A(3,7,19)             103.269          estimate D2E/DX2                !
 ! A18   A(3,7,20)             114.3706         estimate D2E/DX2                !
 ! A19   A(3,7,21)             111.9733         estimate D2E/DX2                !
 ! A20   A(19,7,20)            106.3205         estimate D2E/DX2                !
 ! A21   A(19,7,21)            112.6973         estimate D2E/DX2                !
 ! A22   A(20,7,21)            108.1076         estimate D2E/DX2                !
 ! A23   A(2,8,13)             111.4365         estimate D2E/DX2                !
 ! A24   A(2,8,14)             107.7362         estimate D2E/DX2                !
 ! A25   A(2,8,15)             107.5759         estimate D2E/DX2                !
 ! A26   A(13,8,14)            110.4391         estimate D2E/DX2                !
 ! A27   A(13,8,15)            110.7606         estimate D2E/DX2                !
 ! A28   A(14,8,15)            108.7751         estimate D2E/DX2                !
 ! A29   A(5,9,10)             113.7763         estimate D2E/DX2                !
 ! A30   A(5,9,11)             110.232          estimate D2E/DX2                !
 ! A31   A(5,9,12)             105.0572         estimate D2E/DX2                !
 ! A32   A(10,9,11)            105.2126         estimate D2E/DX2                !
 ! A33   A(10,9,12)            108.4596         estimate D2E/DX2                !
 ! A34   A(11,9,12)            114.3202         estimate D2E/DX2                !
 ! A35   A(9,10,23)            115.8437         estimate D2E/DX2                !
 ! A36   A(9,11,24)            117.3545         estimate D2E/DX2                !
 ! A37   A(9,12,22)            116.8569         estimate D2E/DX2                !
 ! A38   A(8,13,25)            116.8991         estimate D2E/DX2                !
 ! A39   A(8,14,27)            114.056          estimate D2E/DX2                !
 ! A40   A(8,15,26)            117.2166         estimate D2E/DX2                !
 ! A41   A(6,16,32)            116.4907         estimate D2E/DX2                !
 ! A42   A(6,17,33)            117.1859         estimate D2E/DX2                !
 ! A43   A(6,18,31)            116.3076         estimate D2E/DX2                !
 ! A44   A(7,19,30)            115.1373         estimate D2E/DX2                !
 ! A45   A(7,20,28)            116.1676         estimate D2E/DX2                !
 ! A46   A(7,21,29)            116.2372         estimate D2E/DX2                !
 ! D1    D(3,1,2,8)             57.7292         estimate D2E/DX2                !
 ! D2    D(4,1,2,8)            -52.5301         estimate D2E/DX2                !
 ! D3    D(5,1,2,8)           -174.7067         estimate D2E/DX2                !
 ! D4    D(2,1,3,7)            -50.098          estimate D2E/DX2                !
 ! D5    D(4,1,3,7)             58.8315         estimate D2E/DX2                !
 ! D6    D(5,1,3,7)           -175.9641         estimate D2E/DX2                !
 ! D7    D(2,1,4,6)             42.7683         estimate D2E/DX2                !
 ! D8    D(3,1,4,6)            -68.2312         estimate D2E/DX2                !
 ! D9    D(5,1,4,6)            164.8802         estimate D2E/DX2                !
 ! D10   D(2,1,5,9)           -119.3631         estimate D2E/DX2                !
 ! D11   D(3,1,5,9)              3.0001         Frozen                          !
 ! D12   D(4,1,5,9)            124.0823         estimate D2E/DX2                !
 ! D13   D(1,2,8,13)            93.5308         estimate D2E/DX2                !
 ! D14   D(1,2,8,14)           -27.7655         estimate D2E/DX2                !
 ! D15   D(1,2,8,15)          -144.8802         estimate D2E/DX2                !
 ! D16   D(1,3,7,19)           -61.1012         estimate D2E/DX2                !
 ! D17   D(1,3,7,20)          -176.1751         estimate D2E/DX2                !
 ! D18   D(1,3,7,21)            60.409          estimate D2E/DX2                !
 ! D19   D(1,4,6,16)           160.167          estimate D2E/DX2                !
 ! D20   D(1,4,6,17)            32.6925         estimate D2E/DX2                !
 ! D21   D(1,4,6,18)           -79.742          estimate D2E/DX2                !
 ! D22   D(1,5,9,10)          -100.1292         estimate D2E/DX2                !
 ! D23   D(1,5,9,11)           141.9683         estimate D2E/DX2                !
 ! D24   D(1,5,9,12)            18.3489         Frozen                          !
 ! D25   D(4,6,16,32)          -14.1998         estimate D2E/DX2                !
 ! D26   D(17,6,16,32)         110.2979         estimate D2E/DX2                !
 ! D27   D(18,6,16,32)        -136.5531         estimate D2E/DX2                !
 ! D28   D(4,6,17,33)           51.0095         estimate D2E/DX2                !
 ! D29   D(16,6,17,33)         -73.6179         estimate D2E/DX2                !
 ! D30   D(18,6,17,33)         169.7166         estimate D2E/DX2                !
 ! D31   D(4,6,18,31)          -96.4424         estimate D2E/DX2                !
 ! D32   D(16,6,18,31)          24.7715         estimate D2E/DX2                !
 ! D33   D(17,6,18,31)         146.349          estimate D2E/DX2                !
 ! D34   D(3,7,19,30)         -162.1837         estimate D2E/DX2                !
 ! D35   D(20,7,19,30)         -41.4662         estimate D2E/DX2                !
 ! D36   D(21,7,19,30)          76.796          estimate D2E/DX2                !
 ! D37   D(3,7,20,28)          -98.427          estimate D2E/DX2                !
 ! D38   D(19,7,20,28)         148.2947         estimate D2E/DX2                !
 ! D39   D(21,7,20,28)          27.0455         estimate D2E/DX2                !
 ! D40   D(3,7,21,29)          -49.8995         estimate D2E/DX2                !
 ! D41   D(19,7,21,29)          66.0156         estimate D2E/DX2                !
 ! D42   D(20,7,21,29)        -176.7753         estimate D2E/DX2                !
 ! D43   D(2,8,13,25)          -58.468          estimate D2E/DX2                !
 ! D44   D(14,8,13,25)          61.2404         estimate D2E/DX2                !
 ! D45   D(15,8,13,25)        -178.1888         estimate D2E/DX2                !
 ! D46   D(2,8,14,27)           80.2918         estimate D2E/DX2                !
 ! D47   D(13,8,14,27)         -41.6247         estimate D2E/DX2                !
 ! D48   D(15,8,14,27)        -163.3756         estimate D2E/DX2                !
 ! D49   D(2,8,15,26)         -174.1994         estimate D2E/DX2                !
 ! D50   D(13,8,15,26)         -52.1897         estimate D2E/DX2                !
 ! D51   D(14,8,15,26)          69.3652         estimate D2E/DX2                !
 ! D52   D(5,9,10,23)          -94.8513         estimate D2E/DX2                !
 ! D53   D(11,9,10,23)          25.9072         estimate D2E/DX2                !
 ! D54   D(12,9,10,23)         148.6396         estimate D2E/DX2                !
 ! D55   D(5,9,11,24)          -43.8208         estimate D2E/DX2                !
 ! D56   D(10,9,11,24)        -166.88           estimate D2E/DX2                !
 ! D57   D(12,9,11,24)          74.2394         estimate D2E/DX2                !
 ! D58   D(5,9,12,22)         -166.4767         estimate D2E/DX2                !
 ! D59   D(10,9,12,22)         -44.4746         estimate D2E/DX2                !
 ! D60   D(11,9,12,22)          72.5543         estimate D2E/DX2                !
 --------------------------------------------------------------------------------
 Trust Radius=3.00D-01 FncErr=1.00D-07 GrdErr=1.00D-06 EigMax=2.50D+02 EigMin=1.00D-04
 Number of steps in this run=    148 maximum allowed number of steps=    198.
 GradGradGradGradGradGradGradGradGradGradGradGradGradGradGradGradGradGrad

                          Input orientation:                          
 ---------------------------------------------------------------------
 Center     Atomic      Atomic             Coordinates (Angstroms)
 Number     Number       Type             X           Y           Z
 ---------------------------------------------------------------------
      1         40           0        0.657790   -0.125060   -0.071640
      2          8           0       -0.222850   -0.906240    1.477300
      3          8           0        0.103020    1.747480   -0.122990
      4          8           0       -0.268300   -0.978850   -1.597050
      5          8           0        2.592060   -0.436300   -0.082840
      6         14           0       -1.831190   -1.332440   -1.953600
      7         14           0       -1.115500    2.841720   -0.082790
      8         14           0       -1.723760   -1.152910    2.115170
      9         14           0        4.217740   -0.248760   -0.082770
     10          8           0        4.905840   -0.404980   -1.575310
     11          8           0        4.929770   -1.419890    0.849130
     12          8           0        4.471460    1.291680    0.450810
     13          8           0       -2.319240   -2.624000    1.696270
     14          8           0       -2.724220    0.065080    1.550860
     15          8           0       -1.597340   -1.019570    3.744390
     16          8           0       -2.001440   -1.559650   -3.577820
     17          8           0       -2.825090   -0.186760   -1.301450
     18          8           0       -2.344480   -2.714390   -1.182770
     19          8           0       -2.040460    2.439570   -1.430230
     20          8           0       -0.635650    4.400490   -0.299870
     21          8           0       -1.965510    2.760860    1.313830
     22          1           0        5.355940    1.654250    0.329500
     23          1           0        5.245000   -1.280830   -1.792050
     24          1           0        4.523240   -1.616250    1.700510
     25          1           0       -2.405770   -2.809510    0.743920
     26          1           0       -2.381370   -1.224230    4.265350
     27          1           0       -3.060340   -0.083060    0.645890
     28          1           0       -0.527310    4.927280    0.500150
     29          1           0       -2.269090    1.869320    1.585330
     30          1           0       -2.648540    3.126760   -1.730140
     31          1           0       -2.304520   -3.529520   -1.695620
     32          1           0       -1.271140   -1.263050   -4.132230
     33          1           0       -2.610260    0.754610   -1.489930
 ---------------------------------------------------------------------
                    Distance matrix (angstroms):
                    1          2          3          4          5
     1  Zr   0.000000
     2  O    1.945504   0.000000
     3  O    1.953666   3.115983   0.000000
     4  O    1.978251   3.075543   3.121475   0.000000
     5  O    1.959183   3.252476   3.311469   3.281593   0.000000
     6  Si   3.345827   3.813067   4.071635   1.641578   4.885484
     7  Si   3.456366   4.156670   1.638221   4.196128   4.948880
     8  Si   3.392697   1.649380   4.093745   3.991145   4.896027
     9  Si   3.562116   4.752361   4.573567   4.790682   1.636462
    10  O    4.515009   5.989420   5.459798   5.205912   2.753548
    11  O    4.557874   5.216122   5.854465   5.761792   2.702019
    12  O    4.101730   5.284040   4.429477   5.640422   2.608226
    13  O    4.270002   2.719099   5.318542   4.214123   5.663226
    14  O    3.755882   2.684348   3.691278   4.126823   5.584191
    15  O    4.521929   2.653632   5.050190   5.504452   5.704294
    16  O    4.628483   5.398571   5.225104   2.695283   5.880225
    17  O    3.694143   3.874372   3.701875   2.692947   5.558129
    18  O    4.117386   3.853141   5.198238   2.737563   5.546978
    19  O    3.962783   4.790812   2.604299   3.854086   5.616612
    20  O    4.712290   5.611606   2.759598   5.545712   5.818913
    21  O    4.138812   4.063399   2.714813   5.033803   5.739683
    22  H    5.039789   6.244714   5.273197   6.502068   3.489908
    23  H    5.033697   6.381720   6.196481   5.525006   3.266913
    24  H    4.506203   4.804093   5.846210   5.851413   2.881332
    25  H    4.154132   2.987545   5.273682   3.660633   5.594101
    26  H    5.408711   3.540275   5.853271   6.236426   6.653014
    27  H    3.786965   3.069237   3.734823   3.691708   5.710118
    28  H    5.220876   5.922624   3.301022   6.272775   6.232041
    29  H    3.910208   3.450000   2.925766   4.716225   5.632890
    30  H    4.925117   5.695325   3.472237   4.747556   6.547739
    31  H    4.796138   4.613282   6.009671   3.265245   6.012118
    32  H    4.637260   5.717784   5.198616   2.741094   5.657331
    33  H    3.669539   4.154829   3.196280   2.915671   5.519266
                    6          7          8          9         10
     6  Si   0.000000
     7  Si   4.629876   0.000000
     8  Si   4.074145   4.599791   0.000000
     9  Si   6.423700   6.163969   6.399207   0.000000
    10  O    6.811084   7.001801   7.624345   1.650928   0.000000
    11  O    7.319394   7.454870   6.778171   1.657399   2.628407
    12  O    7.238134   5.822497   6.864901   1.649860   2.678153
    13  O    3.902290   5.872660   1.641396   7.179057   8.235840
    14  O    3.877087   3.600906   1.674176   7.138491   8.259038
    15  O    5.711363   5.457933   1.639549   7.004031   8.424267
    16  O    1.648848   5.689656   5.714252   7.253413   7.283806
    17  O    1.650975   3.685040   3.717481   7.147760   7.738856
    18  O    1.663560   5.795749   3.701340   7.095919   7.619357
    19  O    3.813892   1.683113   5.057279   6.943186   7.507569
    20  O    6.085279   1.645340   6.152776   6.724437   7.444958
    21  O    5.239203   1.636949   4.002272   7.017185   8.098464
    22  H    8.110962   6.592390   7.822462   2.255419   2.841007
    23  H    7.078222   7.770003   7.990391   2.245455   0.963908
    24  H    7.335656   7.406014   6.277869   2.267917   3.513482
    25  H    3.128657   5.855309   2.256056   7.149248   8.038671
    26  H    6.244177   6.086107   2.249625   7.962785   9.374855
    27  H    3.135141   3.587160   2.256060   7.316341   8.276315
    28  H    6.848729   2.243958   6.403787   7.046040   7.890478
    29  H    4.792395   2.249212   3.116406   7.024798   8.163437
    30  H    4.538993   2.268308   5.827281   7.826478   8.340613
    31  H    2.262246   6.678899   4.528540   7.476934   7.859168
    32  H    2.250533   5.768130   6.264743   6.895993   6.740119
    33  H    2.275460   2.927521   4.173878   7.043326   7.605504
                   11         12         13         14         15
    11  O    0.000000
    12  O    2.778726   0.000000
    13  O    7.397004   7.937086   0.000000
    14  O    7.828226   7.381901   2.723289   0.000000
    15  O    7.151640   7.281475   2.700024   2.694049   0.000000
    16  O    8.225515   8.139925   5.389792   5.428215   7.353213
    17  O    8.141465   7.648257   3.896453   2.865182   5.259415
    18  O    7.662836   8.073055   2.880569   3.916936   5.263795
    19  O    8.287039   6.874668   5.957555   3.872032   6.240088
    20  O    8.134551   6.025844   7.494165   5.155881   6.830662
    21  O    8.077097   6.658669   5.410000   2.810526   4.509415
    22  H    3.146740   0.963576   8.892686   8.325033   8.195053
    23  H    2.663558   3.499513   8.437429   8.746141   8.805569
    24  H    0.963676   3.165515   6.916293   7.441434   6.480353
    25  H    7.466744   8.012613   0.974101   3.002637   3.586121
    26  H    8.072274   8.236613   2.926327   3.024619   0.963321
    27  H    8.103720   7.658719   2.847614   0.976674   3.552200
    28  H    8.377832   6.181240   7.852614   5.437959   6.858213
    29  H    7.948866   6.859724   4.494969   1.861079   3.668579
    30  H    9.206272   7.669319   6.702236   4.488271   6.947485
    31  H    7.953694   8.588657   3.510712   4.861783   6.032716
    32  H    7.955491   7.778712   6.076357   6.014390   7.887131
    33  H    8.188511   7.362450   4.653125   3.120071   5.618881
                   16         17         18         19         20
    16  O    0.000000
    17  O    2.783000   0.000000
    18  O    2.680926   2.575652   0.000000
    19  O    4.539540   2.744055   5.168846   0.000000
    20  O    6.937839   5.180702   7.370287   2.663909   0.000000
    21  O    6.526587   4.033241   6.029510   2.763822   2.657243
    22  H    8.929017   8.542749   8.981561   7.643305   6.620959
    23  H    7.468441   8.158678   7.747679   8.188420   8.311801
    24  H    8.392581   8.065554   7.528930   8.326666   8.174156
    25  H    4.516976   3.352340   1.930010   5.693261   7.497128
    26  H    7.859527   5.680008   5.648358   6.780802   7.451594
    27  H    4.597968   1.964238   3.283344   3.422586   5.184188
    28  H    7.802766   5.888884   8.033022   3.493521   0.963990
    29  H    6.203837   3.587492   5.355227   3.077509   3.553720
    30  H    5.078888   3.345797   5.874615   0.965369   2.778450
    31  H    2.741336   3.405937   0.963872   5.980819   8.223035
    32  H    0.963680   3.403891   3.458000   4.647801   6.867788
    33  H    3.175806   0.983796   3.492699   1.779698   4.313672
                   21         22         23         24         25
    21  O    0.000000
    22  H    7.469747   0.000000
    23  H    8.830244   3.623255   0.000000
    24  H    7.836612   3.642695   3.582097   0.000000
    25  H    5.616729   8.963316   8.203797   7.095781   0.000000
    26  H    4.976480   9.145629   9.739446   7.376024   3.861888
    27  H    3.119724   8.599542   8.738242   7.808558   2.805637
    28  H    2.724678   6.734573   8.781479   8.352647   7.965297
    29  H    0.980162   7.730747   8.819960   7.635327   4.755849
    30  H    3.141045   8.395362   9.040943   9.257426   6.435776
    31  H    6.981447   9.468645   7.877890   7.862099   2.545589
    32  H    6.806877   8.505049   6.923643   8.229243   5.239825
    33  H    3.507394   8.220707   8.120308   8.166193   4.211277
                   26         27         28         29         30
    26  H    0.000000
    27  H    3.855355   0.000000
    28  H    7.446835   5.616136   0.000000
    29  H    4.094529   2.306602   3.682734   0.000000
    30  H    7.412718   4.014728   3.565906   3.566157   0.000000
    31  H    6.391669   4.234622   8.916129   6.317702   6.665254
    32  H    8.470742   5.236797   7.767394   6.595312   5.190154
    33  H    6.090275   2.337946   5.070530   3.288799   2.384588
                   31         32         33
    31  H    0.000000
    32  H    3.484513   0.000000
    33  H    4.299948   3.584124   0.000000
 Stoichiometry    H12O16Si4Zr
 Framework group  C1[X(H12O16Si4Zr)]
 Deg. of freedom    93
 Full point group                 C1      NOp   1
 Largest Abelian subgroup         C1      NOp   1
 Largest concise Abelian subgroup C1      NOp   1
                         Standard orientation:                         
 ---------------------------------------------------------------------
 Center     Atomic      Atomic             Coordinates (Angstroms)
 Number     Number       Type             X           Y           Z
 ---------------------------------------------------------------------
      1         40           0        0.658051   -0.130027   -0.036556
      2          8           0       -0.259563   -0.903471    1.494703
      3          8           0        0.110341    1.743993   -0.106376
      4          8           0       -0.236162   -0.986030   -1.579643
      5          8           0        2.591117   -0.447113   -0.003282
      6         14           0       -1.791729   -1.336090   -1.970090
      7         14           0       -1.105401    2.842016   -0.097086
      8         14           0       -1.775176   -1.143536    2.099469
      9         14           0        4.216955   -0.264460    0.032721
     10          8           0        4.937926   -0.427643   -1.443468
     11          8           0        4.904263   -1.434661    0.984145
     12          8           0        4.463365    1.276953    0.566917
     13          8           0       -2.365620   -2.614196    1.672020
     14          8           0       -2.758953    0.075597    1.508908
     15          8           0       -1.684977   -1.005232    3.730682
     16          8           0       -1.926148   -1.568114   -3.596988
     17          8           0       -2.796497   -0.185295   -1.344125
     18          8           0       -2.326457   -2.713955   -1.206555
     19          8           0       -2.001092    2.438229   -1.463675
     20          8           0       -0.616000    4.398616   -0.308334
     21          8           0       -1.986815    2.768293    1.280330
     22          1           0        5.351458    1.636464    0.464351
     23          1           0        5.279172   -1.305214   -1.649717
     24          1           0        4.478107   -1.627004    1.826800
     25          1           0       -2.431305   -2.802569    0.718567
     26          1           0       -2.481138   -1.205825    4.234545
     27          1           0       -3.075113   -0.074500    0.597093
     28          1           0       -0.524038    4.927700    0.492223
     29          1           0       -2.299161    1.878565    1.547801
     30          1           0       -2.600163    3.126255   -1.779381
     31          1           0       -2.277495   -3.530879   -1.715756
     32          1           0       -1.182668   -1.275531   -4.135795
     33          1           0       -2.574591    0.754802   -1.530753
 ---------------------------------------------------------------------
 Rotational constants (GHZ):           0.2124743           0.1337889           0.1240296
 General basis read from cards:  (5D, 7F)
 ======================================================================================================
                                       Pseudopotential Parameters
 ======================================================================================================
  Center     Atomic      Valence      Angular      Power
  Number     Number     Electrons     Momentum     of R      Exponent        Coefficient   SO-Coeffient
 ======================================================================================================
    1         40           12
                                      G and up 
                                                     2        1.0000000        0.00000000    0.00000000
                                      S - G
                                                     2        8.6365280      150.24299400    0.00000000
                                                     2        3.7176390       18.78003600    0.00000000
                                      P - G
                                                     2        7.6267280       33.19279100    0.00000000
                                                     2        7.4532070       66.38903900    0.00000000
                                                     2        3.3583890        4.62072600    0.00000000
                                                     2        3.2297380        9.26027000    0.00000000
                                      D - G
                                                     2        5.9380860       13.99338300    0.00000000
                                                     2        5.8255440       20.99588200    0.00000000
                                                     2        2.2050190        2.28516600    0.00000000
                                                     2        2.2062920        3.44126000    0.00000000
                                      F - G
                                                     2        4.8002150       -5.23932000    0.00000000
                                                     2        4.7989920       -6.98742400    0.00000000
    2          8
                                   No pseudopotential on this center.
    3          8
                                   No pseudopotential on this center.
    4          8
                                   No pseudopotential on this center.
    5          8
                                   No pseudopotential on this center.
    6         14
                                   No pseudopotential on this center.
    7         14
                                   No pseudopotential on this center.
    8         14
                                   No pseudopotential on this center.
    9         14
                                   No pseudopotential on this center.
   10          8
                                   No pseudopotential on this center.
   11          8
                                   No pseudopotential on this center.
   12          8
                                   No pseudopotential on this center.
   13          8
                                   No pseudopotential on this center.
   14          8
                                   No pseudopotential on this center.
   15          8
                                   No pseudopotential on this center.
   16          8
                                   No pseudopotential on this center.
   17          8
                                   No pseudopotential on this center.
   18          8
                                   No pseudopotential on this center.
   19          8
                                   No pseudopotential on this center.
   20          8
                                   No pseudopotential on this center.
   21          8
                                   No pseudopotential on this center.
   22          1
                                   No pseudopotential on this center.
   23          1
                                   No pseudopotential on this center.
   24          1
                                   No pseudopotential on this center.
   25          1
                                   No pseudopotential on this center.
   26          1
                                   No pseudopotential on this center.
   27          1
                                   No pseudopotential on this center.
   28          1
                                   No pseudopotential on this center.
   29          1
                                   No pseudopotential on this center.
   30          1
                                   No pseudopotential on this center.
   31          1
                                   No pseudopotential on this center.
   32          1
                                   No pseudopotential on this center.
   33          1
                                   No pseudopotential on this center.
 ======================================================================================================
 There are   570 symmetry adapted cartesian basis functions of A   symmetry.
 There are   524 symmetry adapted basis functions of A   symmetry.
   524 basis functions,  1074 primitive gaussians,   570 cartesian basis functions
   104 alpha electrons      104 beta electrons
       nuclear repulsion energy      2832.8787517597 Hartrees.
 NAtoms=   33 NActive=   33 NUniq=   33 SFac= 1.00D+00 NAtFMM=   60 NAOKFM=F Big=F
 Integral buffers will be    131072 words long.
 Raffenetti 2 integral format.
 Two-electron integral symmetry is turned on.
 Nuclear repulsion after empirical dispersion term =     2832.8379440107 Hartrees.
 One-electron integrals computed using PRISM.
 PrsmSu:  requested number of processors reduced to:   4 ShMem   1 Linda.
   1 Symmetry operations used in ECPInt.
 ECPInt:  NShTT=   13203 NPrTT=   78401 LenC2=   11533 LenP2D=   44642.
 LDataN:  DoStor=T MaxTD1= 8 Len=  415
 Number of processors reduced to  13 by ecpmxn.
 NBasis=   524 RedAO= T EigKep=  3.10D-05  NBF=   524
 NBsUse=   524 1.00D-06 EigRej= -1.00D+00 NBFU=   524
 Defaulting to unpruned grid for atomic number  40.
 ExpMin= 1.01D-02 ExpMax= 1.61D+04 ExpMxC= 2.43D+03 IAcc=3 IRadAn=         5 AccDes= 0.00D+00
 Harris functional with IExCor=  402 and IRadAn=       5 diagonalized for initial guess.
 HarFok:  IExCor=  402 AccDes= 0.00D+00 IRadAn=         5 IDoV= 1 UseB2=F ITyADJ=14
 ICtDFT=  3500011 ScaDFX=  1.000000  1.000000  1.000000  1.000000
 Defaulting to unpruned grid for atomic number  40.
 FoFCou: FMM=F IPFlag=           0 FMFlag=      100000 FMFlg1=           0
         NFxFlg=           0 DoJE=T BraDBF=F KetDBF=T FulRan=T
         wScrn=  0.000000 ICntrl=       500 IOpCl=  0 I1Cent=   200000004 NGrid=           0
         NMat0=    1 NMatS0=      1 NMatT0=    0 NMatD0=    1 NMtDS0=    0 NMtDT0=    0
 Petite list used in FoFCou.
 Requested convergence on RMS density matrix=1.00D-08 within 128 cycles.
 Requested convergence on MAX density matrix=1.00D-06.
 Requested convergence on             energy=1.00D-06.
 No special actions if energy rises.
 Defaulting to unpruned grid for atomic number  40.
 Defaulting to unpruned grid for atomic number  40.
 Defaulting to unpruned grid for atomic number  40.
 Defaulting to unpruned grid for atomic number  40.
 Defaulting to unpruned grid for atomic number  40.
 Defaulting to unpruned grid for atomic number  40.
 Defaulting to unpruned grid for atomic number  40.
 Defaulting to unpruned grid for atomic number  40.
 Defaulting to unpruned grid for atomic number  40.
 Defaulting to unpruned grid for atomic number  40.
 Defaulting to unpruned grid for atomic number  40.
 Defaulting to unpruned grid for atomic number  40.
 Defaulting to unpruned grid for atomic number  40.
 Defaulting to unpruned grid for atomic number  40.
 Defaulting to unpruned grid for atomic number  40.
 Defaulting to unpruned grid for atomic number  40.
 SCF Done:  E(RB3LYP) =  -2416.94681253     A.U. after   14 cycles
            NFock= 14  Conv=0.25D-08     -V/T= 2.0185

 **********************************************************************

            Population analysis using the SCF Density.

 **********************************************************************

 Orbital symmetries:
       Occupied  (A) (A) (A) (A) (A) (A) (A) (A) (A) (A) (A) (A)
                 (A) (A) (A) (A) (A) (A) (A) (A) (A) (A) (A) (A)
                 (A) (A) (A) (A) (A) (A) (A) (A) (A) (A) (A) (A)
                 (A) (A) (A) (A) (A) (A) (A) (A) (A) (A) (A) (A)
                 (A) (A) (A) (A) (A) (A) (A) (A) (A) (A) (A) (A)
                 (A) (A) (A) (A) (A) (A) (A) (A) (A) (A) (A) (A)
                 (A) (A) (A) (A) (A) (A) (A) (A) (A) (A) (A) (A)
                 (A) (A) (A) (A) (A) (A) (A) (A) (A) (A) (A) (A)
                 (A) (A) (A) (A) (A) (A) (A) (A)
       Virtual   (A) (A) (A) (A) (A) (A) (A) (A) (A) (A) (A) (A)
                 (A) (A) (A) (A) (A) (A) (A) (A) (A) (A) (A) (A)
                 (A) (A) (A) (A) (A) (A) (A) (A) (A) (A) (A) (A)
                 (A) (A) (A) (A) (A) (A) (A) (A) (A) (A) (A) (A)
                 (A) (A) (A) (A) (A) (A) (A) (A) (A) (A) (A) (A)
                 (A) (A) (A) (A) (A) (A) (A) (A) (A) (A) (A) (A)
                 (A) (A) (A) (A) (A) (A) (A) (A) (A) (A) (A) (A)
                 (A) (A) (A) (A) (A) (A) (A) (A) (A) (A) (A) (A)
                 (A) (A) (A) (A) (A) (A) (A) (A) (A) (A) (A) (A)
                 (A) (A) (A) (A) (A) (A) (A) (A) (A) (A) (A) (A)
                 (A) (A) (A) (A) (A) (A) (A) (A) (A) (A) (A) (A)
                 (A) (A) (A) (A) (A) (A) (A) (A) (A) (A) (A) (A)
                 (A) (A) (A) (A) (A) (A) (A) (A) (A) (A) (A) (A)
                 (A) (A) (A) (A) (A) (A) (A) (A) (A) (A) (A) (A)
                 (A) (A) (A) (A) (A) (A) (A) (A) (A) (A) (A) (A)
                 (A) (A) (A) (A) (A) (A) (A) (A) (A) (A) (A) (A)
                 (A) (A) (A) (A) (A) (A) (A) (A) (A) (A) (A) (A)
                 (A) (A) (A) (A) (A) (A) (A) (A) (A) (A) (A) (A)
                 (A) (A) (A) (A) (A) (A) (A) (A) (A) (A) (A) (A)
                 (A) (A) (A) (A) (A) (A) (A) (A) (A) (A) (A) (A)
                 (A) (A) (A) (A) (A) (A) (A) (A) (A) (A) (A) (A)
                 (A) (A) (A) (A) (A) (A) (A) (A) (A) (A) (A) (A)
                 (A) (A) (A) (A) (A) (A) (A) (A) (A) (A) (A) (A)
                 (A) (A) (A) (A) (A) (A) (A) (A) (A) (A) (A) (A)
                 (A) (A) (A) (A) (A) (A) (A) (A) (A) (A) (A) (A)
                 (A) (A) (A) (A) (A) (A) (A) (A) (A) (A) (A) (A)
                 (A) (A) (A) (A) (A) (A) (A) (A) (A) (A) (A) (A)
                 (A) (A) (A) (A) (A) (A) (A) (A) (A) (A) (A) (A)
                 (A) (A) (A) (A) (A) (A) (A) (A) (A) (A) (A) (A)
                 (A) (A) (A) (A) (A) (A) (A) (A) (A) (A) (A) (A)
                 (A) (A) (A) (A) (A) (A) (A) (A) (A) (A) (A) (A)
                 (A) (A) (A) (A) (A) (A) (A) (A) (A) (A) (A) (A)
                 (A) (A) (A) (A) (A) (A) (A) (A) (A) (A) (A) (A)
                 (A) (A) (A) (A) (A) (A) (A) (A) (A) (A) (A) (A)
                 (A) (A) (A) (A) (A) (A) (A) (A) (A) (A) (A) (A)
 The electronic state is 1-A.
 Alpha  occ. eigenvalues --  -66.22787 -66.21756 -66.21494 -66.21044 -19.18573
 Alpha  occ. eigenvalues --  -19.18347 -19.17764 -19.17015 -19.16732 -19.16528
 Alpha  occ. eigenvalues --  -19.16451 -19.16232 -19.16190 -19.16018 -19.15997
 Alpha  occ. eigenvalues --  -19.15500 -19.15336 -19.15258 -19.14907 -19.14703
 Alpha  occ. eigenvalues --   -5.36848  -5.35837  -5.35570  -5.35105  -3.72831
 Alpha  occ. eigenvalues --   -3.72805  -3.72758  -3.71828  -3.71781  -3.71746
 Alpha  occ. eigenvalues --   -3.71539  -3.71531  -3.71491  -3.71069  -3.71061
 Alpha  occ. eigenvalues --   -3.71035  -2.13362  -1.29603  -1.29519  -1.29366
 Alpha  occ. eigenvalues --   -1.05665  -1.04772  -1.04155  -1.03505  -1.02545
 Alpha  occ. eigenvalues --   -1.02163  -1.01467  -1.00922  -1.00768  -1.00675
 Alpha  occ. eigenvalues --   -0.99839  -0.99306  -0.97364  -0.96274  -0.95727
 Alpha  occ. eigenvalues --   -0.95405  -0.60974  -0.59160  -0.58978  -0.58499
 Alpha  occ. eigenvalues --   -0.55521  -0.54528  -0.53864  -0.53046  -0.52998
 Alpha  occ. eigenvalues --   -0.52494  -0.52157  -0.51699  -0.48762  -0.47606
 Alpha  occ. eigenvalues --   -0.47200  -0.46722  -0.43367  -0.42651  -0.41851
 Alpha  occ. eigenvalues --   -0.41388  -0.41103  -0.40519  -0.39811  -0.39360
 Alpha  occ. eigenvalues --   -0.38798  -0.38681  -0.38636  -0.38147  -0.38020
 Alpha  occ. eigenvalues --   -0.37631  -0.37464  -0.37228  -0.36556  -0.36395
 Alpha  occ. eigenvalues --   -0.36038  -0.35607  -0.35510  -0.35096  -0.34878
 Alpha  occ. eigenvalues --   -0.34601  -0.34023  -0.33671  -0.33510  -0.33230
 Alpha  occ. eigenvalues --   -0.32839  -0.32181  -0.32054  -0.31298
 Alpha virt. eigenvalues --   -0.04316  -0.03173  -0.03037  -0.02751  -0.02088
 Alpha virt. eigenvalues --   -0.01168  -0.00546  -0.00093   0.00072   0.00306
 Alpha virt. eigenvalues --    0.00761   0.00909   0.01047   0.01942   0.02338
 Alpha virt. eigenvalues --    0.03315   0.03350   0.03840   0.03979   0.04026
 Alpha virt. eigenvalues --    0.04214   0.04618   0.05446   0.05887   0.06247
 Alpha virt. eigenvalues --    0.06515   0.07080   0.07481   0.07711   0.08657
 Alpha virt. eigenvalues --    0.08785   0.09103   0.09218   0.09676   0.09932
 Alpha virt. eigenvalues --    0.10278   0.10710   0.10892   0.11338   0.11729
 Alpha virt. eigenvalues --    0.11801   0.12610   0.13159   0.13336   0.13414
 Alpha virt. eigenvalues --    0.14027   0.14561   0.14808   0.15003   0.15264
 Alpha virt. eigenvalues --    0.15330   0.15694   0.16243   0.16667   0.16913
 Alpha virt. eigenvalues --    0.17350   0.17563   0.17762   0.18178   0.18353
 Alpha virt. eigenvalues --    0.18617   0.19101   0.19230   0.19683   0.19830
 Alpha virt. eigenvalues --    0.20093   0.20231   0.20530   0.20830   0.21278
 Alpha virt. eigenvalues --    0.21739   0.22178   0.22261   0.22405   0.22688
 Alpha virt. eigenvalues --    0.23190   0.23712   0.24042   0.24134   0.24545
 Alpha virt. eigenvalues --    0.24714   0.25066   0.25627   0.25983   0.26170
 Alpha virt. eigenvalues --    0.26567   0.26792   0.26916   0.27139   0.27541
 Alpha virt. eigenvalues --    0.27887   0.28319   0.28528   0.28827   0.29075
 Alpha virt. eigenvalues --    0.29498   0.29696   0.30013   0.30326   0.30612
 Alpha virt. eigenvalues --    0.30904   0.31371   0.31518   0.31829   0.31869
 Alpha virt. eigenvalues --    0.32412   0.32674   0.33089   0.33468   0.34024
 Alpha virt. eigenvalues --    0.34513   0.34941   0.35370   0.35416   0.36359
 Alpha virt. eigenvalues --    0.36799   0.37597   0.38131   0.38533   0.38831
 Alpha virt. eigenvalues --    0.39604   0.39742   0.40281   0.40989   0.41524
 Alpha virt. eigenvalues --    0.42840   0.43171   0.43642   0.44176   0.44603
 Alpha virt. eigenvalues --    0.45463   0.45564   0.46070   0.46647   0.47340
 Alpha virt. eigenvalues --    0.48014   0.48647   0.48911   0.49287   0.49497
 Alpha virt. eigenvalues --    0.50035   0.50767   0.51258   0.51419   0.52957
 Alpha virt. eigenvalues --    0.54236   0.54312   0.55098   0.56436   0.57297
 Alpha virt. eigenvalues --    0.58057   0.58551   0.59050   0.59178   0.60370
 Alpha virt. eigenvalues --    0.61252   0.61810   0.62208   0.64283   0.65892
 Alpha virt. eigenvalues --    0.67247   0.68163   0.68413   0.68515   0.69465
 Alpha virt. eigenvalues --    0.69964   0.71039   0.73080   0.74632   0.75013
 Alpha virt. eigenvalues --    0.75444   0.77401   0.78665   0.78832   0.80183
 Alpha virt. eigenvalues --    0.80902   0.81341   0.82640   0.84235   0.85271
 Alpha virt. eigenvalues --    0.86397   0.87783   0.89277   0.90625   0.91306
 Alpha virt. eigenvalues --    0.94676   0.95672   0.96252   0.96839   0.97585
 Alpha virt. eigenvalues --    0.97982   0.98656   0.99154   0.99745   1.00487
 Alpha virt. eigenvalues --    1.00874   1.01602   1.02399   1.03268   1.04021
 Alpha virt. eigenvalues --    1.04351   1.05355   1.06535   1.06706   1.07970
 Alpha virt. eigenvalues --    1.09678   1.12367   1.15242   1.16224   1.16549
 Alpha virt. eigenvalues --    1.18729   1.19157   1.19803   1.20554   1.20891
 Alpha virt. eigenvalues --    1.21495   1.21633   1.22364   1.22896   1.23007
 Alpha virt. eigenvalues --    1.23433   1.23816   1.24429   1.25087   1.25725
 Alpha virt. eigenvalues --    1.26212   1.27169   1.27299   1.28132   1.28358
 Alpha virt. eigenvalues --    1.29022   1.29782   1.30133   1.30720   1.31507
 Alpha virt. eigenvalues --    1.32469   1.32773   1.32964   1.33938   1.34537
 Alpha virt. eigenvalues --    1.35350   1.35937   1.36764   1.37018   1.37667
 Alpha virt. eigenvalues --    1.39170   1.39744   1.40136   1.41112   1.41503
 Alpha virt. eigenvalues --    1.42833   1.43897   1.44381   1.45071   1.46284
 Alpha virt. eigenvalues --    1.47179   1.48670   1.50556   1.51262   1.52887
 Alpha virt. eigenvalues --    1.56646   1.57115   1.57641   1.59272   1.59886
 Alpha virt. eigenvalues --    1.60086   1.61228   1.61853   1.62339   1.63121
 Alpha virt. eigenvalues --    1.63202   1.63921   1.65095   1.65430   1.66687
 Alpha virt. eigenvalues --    1.66833   1.67951   1.69393   1.69907   1.70103
 Alpha virt. eigenvalues --    1.71216   1.71247   1.71631   1.72418   1.73555
 Alpha virt. eigenvalues --    1.74277   1.74935   1.75402   1.76121   1.76995
 Alpha virt. eigenvalues --    1.77232   1.77574   1.78319   1.78641   1.79460
 Alpha virt. eigenvalues --    1.80739   1.81500   1.82213   1.82417   1.82957
 Alpha virt. eigenvalues --    1.83541   1.84961   1.85141   1.85936   1.86817
 Alpha virt. eigenvalues --    1.87094   1.88097   1.88455   1.89865   1.90438
 Alpha virt. eigenvalues --    1.91061   1.91296   1.92388   1.92870   1.93867
 Alpha virt. eigenvalues --    1.94511   1.95059   1.95848   1.97368   1.98421
 Alpha virt. eigenvalues --    1.99125   2.00559   2.01228   2.02878   2.03620
 Alpha virt. eigenvalues --    2.06103   2.06603   2.07607   2.09631   2.10464
 Alpha virt. eigenvalues --    2.11051   2.13085   2.14136   2.16007   2.16527
 Alpha virt. eigenvalues --    2.17686   2.18750   2.19252   2.20720   2.26150
 Alpha virt. eigenvalues --    2.32784   2.33596   2.35230   2.39508   2.40398
 Alpha virt. eigenvalues --    2.41181   2.41454   2.41739   2.42758   2.43708
 Alpha virt. eigenvalues --    2.43974   2.45857   2.46734   2.47546   2.48924
 Alpha virt. eigenvalues --    2.50207   2.50317   2.51684   2.52821   2.53422
 Alpha virt. eigenvalues --    2.55508   2.57787   2.59392   2.60107   2.60675
 Alpha virt. eigenvalues --    2.61093   2.61746   2.62004   2.62334   2.62793
 Alpha virt. eigenvalues --    2.63089   2.64072   2.64545   2.64978   2.65980
 Alpha virt. eigenvalues --    2.66279   2.66572   2.67392   2.67516   2.69384
 Alpha virt. eigenvalues --    2.69795   2.70308   2.71212   2.71639   2.72362
 Alpha virt. eigenvalues --    2.72840   2.74264   2.75559   2.76754   2.77464
 Alpha virt. eigenvalues --    2.78950   2.80472   2.81534   2.82494   2.83265
 Alpha virt. eigenvalues --    2.83818   2.84728   2.86726   2.87791   2.88135
 Alpha virt. eigenvalues --    3.14070   3.19835   3.35992   3.41025   3.46737
 Alpha virt. eigenvalues --    3.47932   3.48511   3.48623   3.51068   3.51158
 Alpha virt. eigenvalues --    3.52980   3.54494   3.60303   3.61083   3.62063
 Alpha virt. eigenvalues --    3.66218   4.26651   4.58683   7.86038  31.29102
          Condensed to atoms (all electrons):
               1          2          3          4          5          6
     1  Zr  15.120173  -0.176408  -0.002769  -0.153956  -0.208155  -0.530800
     2  O   -0.176408   9.087206   0.020100  -0.041819  -0.057732   0.097569
     3  O   -0.002769   0.020100   8.832702   0.012823  -0.040293  -0.007170
     4  O   -0.153956  -0.041819   0.012823   8.824431  -0.056511  -0.682045
     5  O   -0.208155  -0.057732  -0.040293  -0.056511   9.446238  -0.004423
     6  Si  -0.530800   0.097569  -0.007170  -0.682045  -0.004423  13.933876
     7  Si  -0.616692  -0.025791  -0.877598  -0.004950  -0.032521   0.083812
     8  Si  -0.524244  -1.001437  -0.021973   0.076636  -0.013170  -0.040860
     9  Si  -0.324693  -0.042591  -0.028025  -0.037209  -1.287511   0.035541
    10  O   -0.009315   0.000952  -0.002004   0.001454   0.133179  -0.002388
    11  O   -0.053895   0.004167   0.002764   0.001137   0.315667  -0.001069
    12  O    0.028425   0.000273   0.004761   0.002296   0.174682  -0.002228
    13  O   -0.063268   0.193644   0.001769  -0.015550  -0.000619   0.042023
    14  O   -0.037955   0.269941  -0.016719  -0.008889   0.002259   0.033661
    15  O   -0.071906   0.289614  -0.000786   0.001217   0.000480  -0.002376
    16  O   -0.132141   0.004630  -0.000437   0.345007   0.003126  -0.416524
    17  O   -0.076359  -0.041101   0.006638   0.225276   0.001113  -0.464130
    18  O   -0.033847  -0.013352   0.003681   0.201382  -0.000567  -0.451038
    19  O   -0.009657   0.009555   0.261319   0.009860   0.002054  -0.004149
    20  O   -0.147210  -0.000541   0.163849  -0.000903   0.001395   0.008882
    21  O    0.031882   0.011540   0.148005   0.003277   0.000323  -0.010607
    22  H   -0.008918  -0.000020  -0.000035  -0.000012   0.005869   0.000079
    23  H   -0.007375  -0.000013  -0.000009  -0.000052  -0.025004   0.000050
    24  H   -0.005117  -0.000229  -0.000006  -0.000003  -0.005899   0.000016
    25  H    0.019906  -0.020539  -0.000114  -0.000198   0.000019   0.001583
    26  H    0.007164   0.000477   0.000016  -0.000012  -0.000003  -0.000090
    27  H    0.008315  -0.019804   0.000833  -0.001794   0.000005   0.007765
    28  H    0.005296  -0.000011  -0.018650  -0.000014  -0.000016  -0.000280
    29  H    0.005534  -0.007249  -0.020419  -0.000149  -0.000073   0.000065
    30  H    0.001128  -0.000014   0.000211  -0.000448  -0.000008  -0.000874
    31  H    0.000253   0.000156  -0.000019  -0.018433  -0.000006   0.063419
    32  H    0.001731  -0.000021   0.000037   0.010303   0.000001   0.023497
    33  H   -0.016345   0.001010  -0.009957  -0.009480  -0.000102   0.053444
               7          8          9         10         11         12
     1  Zr  -0.616692  -0.524244  -0.324693  -0.009315  -0.053895   0.028425
     2  O   -0.025791  -1.001437  -0.042591   0.000952   0.004167   0.000273
     3  O   -0.877598  -0.021973  -0.028025  -0.002004   0.002764   0.004761
     4  O   -0.004950   0.076636  -0.037209   0.001454   0.001137   0.002296
     5  O   -0.032521  -0.013170  -1.287511   0.133179   0.315667   0.174682
     6  Si   0.083812  -0.040860   0.035541  -0.002388  -0.001069  -0.002228
     7  Si  13.791358   0.179301   0.021129  -0.000208  -0.000541   0.004501
     8  Si   0.179301  13.758740   0.025460  -0.000645   0.000793   0.000075
     9  Si   0.021129   0.025460  14.394324  -0.083267  -0.198548  -0.234601
    10  O   -0.000208  -0.000645  -0.083267   8.525591   0.018229   0.034308
    11  O   -0.000541   0.000793  -0.198548   0.018229   8.517792  -0.049126
    12  O    0.004501   0.000075  -0.234601   0.034308  -0.049126   8.599819
    13  O    0.008056  -0.090799   0.000661  -0.000000   0.000015   0.000011
    14  O    0.011111  -0.368520  -0.001335  -0.000002  -0.000001   0.000016
    15  O   -0.003297  -0.306434  -0.000955   0.000000  -0.000023  -0.000021
    16  O    0.003880  -0.009208  -0.000831   0.000001  -0.000001  -0.000001
    17  O   -0.000691   0.097324   0.002369  -0.000004  -0.000001  -0.000005
    18  O   -0.000237   0.073912   0.004350  -0.000006  -0.000003  -0.000001
    19  O   -0.399189  -0.014170   0.001127   0.000008  -0.000002  -0.000001
    20  O   -0.106769   0.010088   0.003339  -0.000003  -0.000002   0.000012
    21  O    0.022365  -0.039959  -0.002049   0.000002   0.000000   0.000040
    22  H   -0.000260   0.000076   0.046449  -0.006798  -0.005290   0.221116
    23  H    0.000059   0.000066   0.080356   0.228721  -0.006339   0.005952
    24  H    0.000079  -0.000117   0.038007   0.007352   0.242466  -0.007611
    25  H   -0.000521   0.056960  -0.000229  -0.000000   0.000000  -0.000000
    26  H   -0.000353   0.045958  -0.000038   0.000000   0.000000  -0.000000
    27  H    0.000918   0.067440  -0.000029   0.000000  -0.000000  -0.000000
    28  H    0.056837  -0.000110  -0.000122  -0.000000  -0.000000  -0.000004
    29  H    0.047854   0.021381  -0.000049   0.000000   0.000000  -0.000001
    30  H    0.039808   0.000039   0.000029   0.000000  -0.000000  -0.000000
    31  H    0.000148  -0.001984  -0.000050   0.000000  -0.000000  -0.000000
    32  H   -0.000652   0.000062  -0.000008  -0.000000   0.000000   0.000000
    33  H    0.020491   0.000192   0.000082  -0.000000   0.000000   0.000000
              13         14         15         16         17         18
     1  Zr  -0.063268  -0.037955  -0.071906  -0.132141  -0.076359  -0.033847
     2  O    0.193644   0.269941   0.289614   0.004630  -0.041101  -0.013352
     3  O    0.001769  -0.016719  -0.000786  -0.000437   0.006638   0.003681
     4  O   -0.015550  -0.008889   0.001217   0.345007   0.225276   0.201382
     5  O   -0.000619   0.002259   0.000480   0.003126   0.001113  -0.000567
     6  Si   0.042023   0.033661  -0.002376  -0.416524  -0.464130  -0.451038
     7  Si   0.008056   0.011111  -0.003297   0.003880  -0.000691  -0.000237
     8  Si  -0.090799  -0.368520  -0.306434  -0.009208   0.097324   0.073912
     9  Si   0.000661  -0.001335  -0.000955  -0.000831   0.002369   0.004350
    10  O   -0.000000  -0.000002   0.000000   0.000001  -0.000004  -0.000006
    11  O    0.000015  -0.000001  -0.000023  -0.000001  -0.000001  -0.000003
    12  O    0.000011   0.000016  -0.000021  -0.000001  -0.000005  -0.000001
    13  O    8.633291   0.087907  -0.091624   0.003692  -0.030761  -0.044568
    14  O    0.087907   8.679935   0.055032   0.003707  -0.036126  -0.026766
    15  O   -0.091624   0.055032   8.774471  -0.000174   0.003528   0.001620
    16  O    0.003692   0.003707  -0.000174   8.901609  -0.090716  -0.115799
    17  O   -0.030761  -0.036126   0.003528  -0.090716   8.937901   0.228138
    18  O   -0.044568  -0.026766   0.001620  -0.115799   0.228138   9.016897
    19  O    0.000228  -0.000246   0.000125  -0.001685  -0.030538   0.000216
    20  O    0.000009  -0.000177   0.000037   0.000064  -0.001030   0.000014
    21  O   -0.000226   0.016476  -0.000575  -0.000215  -0.005494   0.000472
    22  H    0.000000   0.000000  -0.000000   0.000000   0.000000  -0.000000
    23  H    0.000000   0.000000  -0.000000  -0.000000   0.000000  -0.000000
    24  H   -0.000000   0.000000   0.000001   0.000000   0.000000  -0.000000
    25  H    0.217601  -0.012036   0.008923  -0.000044   0.000618   0.014691
    26  H   -0.005179  -0.010009   0.217596   0.000000  -0.000003   0.000006
    27  H   -0.009975   0.218848   0.004629   0.000181   0.017808  -0.000305
    28  H   -0.000000  -0.000004  -0.000001  -0.000000   0.000004  -0.000000
    29  H    0.000784   0.017611  -0.002565  -0.000004  -0.000397   0.000006
    30  H    0.000001  -0.000002   0.000000   0.000120  -0.000382  -0.000007
    31  H    0.002330   0.000161  -0.000018   0.003933  -0.000824   0.217948
    32  H   -0.000007  -0.000006   0.000000   0.233206  -0.003660   0.003905
    33  H    0.000227   0.002020  -0.000034  -0.000158   0.231044   0.002118
              19         20         21         22         23         24
     1  Zr  -0.009657  -0.147210   0.031882  -0.008918  -0.007375  -0.005117
     2  O    0.009555  -0.000541   0.011540  -0.000020  -0.000013  -0.000229
     3  O    0.261319   0.163849   0.148005  -0.000035  -0.000009  -0.000006
     4  O    0.009860  -0.000903   0.003277  -0.000012  -0.000052  -0.000003
     5  O    0.002054   0.001395   0.000323   0.005869  -0.025004  -0.005899
     6  Si  -0.004149   0.008882  -0.010607   0.000079   0.000050   0.000016
     7  Si  -0.399189  -0.106769   0.022365  -0.000260   0.000059   0.000079
     8  Si  -0.014170   0.010088  -0.039959   0.000076   0.000066  -0.000117
     9  Si   0.001127   0.003339  -0.002049   0.046449   0.080356   0.038007
    10  O    0.000008  -0.000003   0.000002  -0.006798   0.228721   0.007352
    11  O   -0.000002  -0.000002   0.000000  -0.005290  -0.006339   0.242466
    12  O   -0.000001   0.000012   0.000040   0.221116   0.005952  -0.007611
    13  O    0.000228   0.000009  -0.000226   0.000000   0.000000  -0.000000
    14  O   -0.000246  -0.000177   0.016476   0.000000   0.000000   0.000000
    15  O    0.000125   0.000037  -0.000575  -0.000000  -0.000000   0.000001
    16  O   -0.001685   0.000064  -0.000215   0.000000  -0.000000   0.000000
    17  O   -0.030538  -0.001030  -0.005494   0.000000   0.000000   0.000000
    18  O    0.000216   0.000014   0.000472  -0.000000  -0.000000  -0.000000
    19  O    8.871299   0.031512   0.024180  -0.000000   0.000000  -0.000000
    20  O    0.031512   8.655662  -0.050263   0.000001   0.000000  -0.000000
    21  O    0.024180  -0.050263   8.487100  -0.000000   0.000000   0.000000
    22  H   -0.000000   0.000001  -0.000000   0.361367   0.000055   0.000120
    23  H    0.000000   0.000000   0.000000   0.000055   0.350859   0.000011
    24  H   -0.000000  -0.000000   0.000000   0.000120   0.000011   0.364832
    25  H   -0.000026   0.000000  -0.000020   0.000000   0.000000   0.000000
    26  H    0.000001  -0.000000   0.000038  -0.000000  -0.000000  -0.000000
    27  H    0.000002   0.000190  -0.004068  -0.000000  -0.000000  -0.000000
    28  H    0.004587   0.229632  -0.002131  -0.000000   0.000000  -0.000000
    29  H   -0.008546   0.007668   0.206390  -0.000000   0.000000   0.000000
    30  H    0.224503  -0.001446  -0.007124   0.000000  -0.000000   0.000000
    31  H    0.000004  -0.000000  -0.000000  -0.000000  -0.000000   0.000000
    32  H    0.000100  -0.000000   0.000001  -0.000000  -0.000000  -0.000000
    33  H    0.014844  -0.000078   0.001443  -0.000000  -0.000000  -0.000000
              25         26         27         28         29         30
     1  Zr   0.019906   0.007164   0.008315   0.005296   0.005534   0.001128
     2  O   -0.020539   0.000477  -0.019804  -0.000011  -0.007249  -0.000014
     3  O   -0.000114   0.000016   0.000833  -0.018650  -0.020419   0.000211
     4  O   -0.000198  -0.000012  -0.001794  -0.000014  -0.000149  -0.000448
     5  O    0.000019  -0.000003   0.000005  -0.000016  -0.000073  -0.000008
     6  Si   0.001583  -0.000090   0.007765  -0.000280   0.000065  -0.000874
     7  Si  -0.000521  -0.000353   0.000918   0.056837   0.047854   0.039808
     8  Si   0.056960   0.045958   0.067440  -0.000110   0.021381   0.000039
     9  Si  -0.000229  -0.000038  -0.000029  -0.000122  -0.000049   0.000029
    10  O   -0.000000   0.000000   0.000000  -0.000000   0.000000   0.000000
    11  O    0.000000   0.000000  -0.000000  -0.000000   0.000000  -0.000000
    12  O   -0.000000  -0.000000  -0.000000  -0.000004  -0.000001  -0.000000
    13  O    0.217601  -0.005179  -0.009975  -0.000000   0.000784   0.000001
    14  O   -0.012036  -0.010009   0.218848  -0.000004   0.017611  -0.000002
    15  O    0.008923   0.217596   0.004629  -0.000001  -0.002565   0.000000
    16  O   -0.000044   0.000000   0.000181  -0.000000  -0.000004   0.000120
    17  O    0.000618  -0.000003   0.017808   0.000004  -0.000397  -0.000382
    18  O    0.014691   0.000006  -0.000305  -0.000000   0.000006  -0.000007
    19  O   -0.000026   0.000001   0.000002   0.004587  -0.008546   0.224503
    20  O    0.000000  -0.000000   0.000190   0.229632   0.007668  -0.001446
    21  O   -0.000020   0.000038  -0.004068  -0.002131   0.206390  -0.007124
    22  H    0.000000  -0.000000  -0.000000  -0.000000  -0.000000   0.000000
    23  H    0.000000  -0.000000  -0.000000   0.000000   0.000000  -0.000000
    24  H    0.000000  -0.000000  -0.000000  -0.000000   0.000000   0.000000
    25  H    0.298937  -0.000012   0.000118   0.000000   0.000001   0.000000
    26  H   -0.000012   0.365717   0.000037   0.000000   0.000021  -0.000000
    27  H    0.000118   0.000037   0.283345  -0.000000  -0.001491   0.000010
    28  H    0.000000   0.000000  -0.000000   0.349247  -0.000017  -0.000015
    29  H    0.000001   0.000021  -0.001491  -0.000017   0.285964   0.000153
    30  H    0.000000  -0.000000   0.000010  -0.000015   0.000153   0.334161
    31  H   -0.000487   0.000000   0.000013   0.000000   0.000000  -0.000000
    32  H   -0.000001   0.000000  -0.000000   0.000000  -0.000000  -0.000000
    33  H    0.000006  -0.000000  -0.002403  -0.000002   0.000100  -0.001149
              31         32         33
     1  Zr   0.000253   0.001731  -0.016345
     2  O    0.000156  -0.000021   0.001010
     3  O   -0.000019   0.000037  -0.009957
     4  O   -0.018433   0.010303  -0.009480
     5  O   -0.000006   0.000001  -0.000102
     6  Si   0.063419   0.023497   0.053444
     7  Si   0.000148  -0.000652   0.020491
     8  Si  -0.001984   0.000062   0.000192
     9  Si  -0.000050  -0.000008   0.000082
    10  O    0.000000  -0.000000  -0.000000
    11  O   -0.000000   0.000000   0.000000
    12  O   -0.000000   0.000000   0.000000
    13  O    0.002330  -0.000007   0.000227
    14  O    0.000161  -0.000006   0.002020
    15  O   -0.000018   0.000000  -0.000034
    16  O    0.003933   0.233206  -0.000158
    17  O   -0.000824  -0.003660   0.231044
    18  O    0.217948   0.003905   0.002118
    19  O    0.000004   0.000100   0.014844
    20  O   -0.000000  -0.000000  -0.000078
    21  O   -0.000000   0.000001   0.001443
    22  H   -0.000000  -0.000000  -0.000000
    23  H   -0.000000  -0.000000  -0.000000
    24  H    0.000000  -0.000000  -0.000000
    25  H   -0.000487  -0.000001   0.000006
    26  H    0.000000   0.000000  -0.000000
    27  H    0.000013  -0.000000  -0.002403
    28  H    0.000000   0.000000  -0.000002
    29  H    0.000000  -0.000000   0.000100
    30  H   -0.000000  -0.000000  -0.001149
    31  H    0.331388  -0.000002  -0.000038
    32  H   -0.000002   0.349799   0.000157
    33  H   -0.000038   0.000157   0.269324
 Mulliken charges:
               1
     1  Zr  -0.018782
     2  O   -0.542161
     3  O   -0.412529
     4  O   -0.682672
     5  O   -0.353795
     6  Si   2.235769
     7  Si   1.778565
     8  Si   2.019126
     9  Si   1.588918
    10  O   -0.845157
    11  O   -0.788189
    12  O   -0.782688
    13  O   -0.839673
    14  O   -0.879894
    15  O   -0.876485
    16  O   -0.735219
    17  O   -0.969539
    18  O   -1.082860
    19  O   -0.987315
    20  O   -0.803934
    21  O   -0.830803
    22  H    0.386201
    23  H    0.372663
    24  H    0.366097
    25  H    0.414863
    26  H    0.378668
    27  H    0.429411
    28  H    0.375775
    29  H    0.447425
    30  H    0.411305
    31  H    0.402106
    32  H    0.381560
    33  H    0.443243
 Sum of Mulliken charges =  -0.00000
 Mulliken charges with hydrogens summed into heavy atoms:
               1
     1  Zr  -0.018782
     2  O   -0.542161
     3  O   -0.412529
     4  O   -0.682672
     5  O   -0.353795
     6  Si   2.235769
     7  Si   1.778565
     8  Si   2.019126
     9  Si   1.588918
    10  O   -0.472494
    11  O   -0.422092
    12  O   -0.396487
    13  O   -0.424810
    14  O   -0.450483
    15  O   -0.497817
    16  O   -0.353659
    17  O   -0.526296
    18  O   -0.680754
    19  O   -0.576010
    20  O   -0.428159
    21  O   -0.383379
 Electronic spatial extent (au):  <R**2>=           9871.2014
 Charge=             -0.0000 electrons
 Dipole moment (field-independent basis, Debye):
    X=              1.1521    Y=             -0.6361    Z=             -2.1729  Tot=              2.5403
 Quadrupole moment (field-independent basis, Debye-Ang):
   XX=           -160.1895   YY=           -154.5219   ZZ=           -158.0707
   XY=             -4.4781   XZ=              2.5938   YZ=              5.7511
 Traceless Quadrupole moment (field-independent basis, Debye-Ang):
   XX=             -2.5955   YY=              3.0722   ZZ=             -0.4766
   XY=             -4.4781   XZ=              2.5938   YZ=              5.7511
 Octapole moment (field-independent basis, Debye-Ang**2):
  XXX=             73.8693  YYY=              6.2930  ZZZ=             -9.8259  XYY=              1.7276
  XXY=             20.6558  XXZ=             18.4364  XZZ=              2.7264  YZZ=            -14.8102
  YYZ=            -21.8584  XYZ=             27.7992
 Hexadecapole moment (field-independent basis, Debye-Ang**3):
 XXXX=          -6030.5487 YYYY=          -2834.4522 ZZZZ=          -2274.5804 XXXY=             65.9063
 XXXZ=            -56.7459 YYYX=             -1.6460 YYYZ=            227.4859 ZZZX=           -145.7535
 ZZZY=            -62.6031 XXYY=          -1457.4987 XXZZ=          -1387.5204 YYZZ=           -921.7948
 XXYZ=            -14.9253 YYXZ=            101.6460 ZZXY=            -58.2622
 N-N= 2.832837944011D+03 E-N=-1.137828039965D+04  KE= 2.373154788681D+03
 PrsmSu:  requested number of processors reduced to:   2 ShMem   1 Linda.
 PrsmSu:  requested number of processors reduced to:  10 ShMem   1 Linda.
   1 Symmetry operations used in ECPInt.
 ECPInt:  NShTT=   13203 NPrTT=   78401 LenC2=   11533 LenP2D=   44642.
 LDataN:  DoStor=T MaxTD1= 9 Len=  602
 Number of processors reduced to  14 by ecpmxn.
 Calling FoFJK, ICntrl=      2127 FMM=F ISym2X=0 I1Cent= 0 IOpClX= 0 NMat=1 NMatS=1 NMatT=0.
 CoulSu:  requested number of processors reduced to:  10 ShMem   1 Linda.
 Defaulting to unpruned grid for atomic number  40.
 Defaulting to unpruned grid for atomic number  40.
 Defaulting to unpruned grid for atomic number  40.
 Defaulting to unpruned grid for atomic number  40.
 Defaulting to unpruned grid for atomic number  40.
 Defaulting to unpruned grid for atomic number  40.
 Defaulting to unpruned grid for atomic number  40.
 Defaulting to unpruned grid for atomic number  40.
 Defaulting to unpruned grid for atomic number  40.
 Defaulting to unpruned grid for atomic number  40.
 Defaulting to unpruned grid for atomic number  40.
 Defaulting to unpruned grid for atomic number  40.
 Defaulting to unpruned grid for atomic number  40.
 Defaulting to unpruned grid for atomic number  40.
 Defaulting to unpruned grid for atomic number  40.
 Defaulting to unpruned grid for atomic number  40.
 ***** Axes restored to original set *****
 -------------------------------------------------------------------
 Center     Atomic                   Forces (Hartrees/Bohr)
 Number     Number              X              Y              Z
 -------------------------------------------------------------------
      1       40          -0.000168977   -0.000195258   -0.000624567
      2        8           0.000082542    0.000046996    0.000246803
      3        8          -0.000068920   -0.000044514    0.000087155
      4        8          -0.000014473    0.000109163    0.000176117
      5        8           0.000077736    0.000203402    0.000185217
      6       14           0.000014172   -0.000045281   -0.000070791
      7       14           0.000060803   -0.000008230   -0.000137293
      8       14          -0.000028568   -0.000133246   -0.000161462
      9       14          -0.000018504   -0.000203672    0.000063693
     10        8           0.000012618    0.000072099   -0.000027138
     11        8           0.000026941    0.000128936    0.000008915
     12        8           0.000073478    0.000040270    0.000017895
     13        8          -0.000002924    0.000071450    0.000045211
     14        8           0.000010479    0.000027914    0.000042209
     15        8           0.000031709    0.000044986    0.000066473
     16        8          -0.000013557    0.000013505    0.000041418
     17        8           0.000002803    0.000024146    0.000014002
     18        8          -0.000025667    0.000019120    0.000021346
     19        8           0.000003779    0.000013755    0.000039816
     20        8          -0.000028654    0.000005424    0.000037131
     21        8          -0.000004068    0.000007313    0.000075215
     22        1           0.000001615   -0.000019213   -0.000002088
     23        1          -0.000033099   -0.000026327   -0.000000898
     24        1          -0.000022264   -0.000108895   -0.000038998
     25        1           0.000010057   -0.000012802   -0.000020343
     26        1          -0.000005508   -0.000005048   -0.000003981
     27        1          -0.000004784    0.000000705   -0.000021850
     28        1           0.000007598    0.000000504   -0.000017010
     29        1          -0.000018409   -0.000010016   -0.000016874
     30        1           0.000005584   -0.000000680   -0.000006952
     31        1           0.000015449   -0.000003552   -0.000000785
     32        1           0.000022505   -0.000001992   -0.000007611
     33        1          -0.000001494   -0.000010962   -0.000009976
 -------------------------------------------------------------------
 Cartesian Forces:  Max     0.000624567 RMS     0.000093636

 GradGradGradGradGradGradGradGradGradGradGradGradGradGradGradGradGradGrad
 Berny optimization.
 FormGI is forming the generalized inverse of G from B-inverse, IUseBI=4.
 Internal  Forces:  Max     0.000468907 RMS     0.000069523
 Search for a local minimum.
 Step number   1 out of a maximum of  148
 All quantities printed in internal units (Hartrees-Bohrs-Radians)
 Mixed Optimization -- En-DIIS/RFO-DIIS
 Second derivative matrix not updated -- first step.
 ITU=  0
     Eigenvalues ---    0.00230   0.00230   0.00230   0.03240   0.03358
     Eigenvalues ---    0.03498   0.03580   0.03665   0.03665   0.03680
     Eigenvalues ---    0.03686   0.03693   0.03739   0.03789   0.03792
     Eigenvalues ---    0.03816   0.03834   0.03850   0.05521   0.09402
     Eigenvalues ---    0.09687   0.11077   0.11224   0.11833   0.11884
     Eigenvalues ---    0.11890   0.12177   0.12239   0.12299   0.12782
     Eigenvalues ---    0.12895   0.13099   0.13313   0.16000   0.16000
     Eigenvalues ---    0.16000   0.16000   0.16000   0.16000   0.16000
     Eigenvalues ---    0.16000   0.16000   0.16000   0.16000   0.16000
     Eigenvalues ---    0.19173   0.19314   0.19332   0.20013   0.20203
     Eigenvalues ---    0.20204   0.20208   0.20515   0.20653   0.20795
     Eigenvalues ---    0.20989   0.21175   0.21186   0.21227   0.25000
     Eigenvalues ---    0.25000   0.25000   0.38002   0.39187   0.40659
     Eigenvalues ---    0.41548   0.42502   0.42509   0.42670   0.42743
     Eigenvalues ---    0.42824   0.43363   0.43951   0.43980   0.44273
     Eigenvalues ---    0.44485   0.44689   0.44768   0.50655   0.51353
     Eigenvalues ---    0.52036   0.52548   0.54334   0.54624   0.54641
     Eigenvalues ---    0.54649   0.54689   0.54690   0.54711   0.54765
     Eigenvalues --- 1000.000001000.000001000.000001000.000001000.00000
     Eigenvalues --- 1000.000001000.000001000.000001000.000001000.00000
     Eigenvalues --- 1000.000001000.000001000.000001000.000001000.00000
     Eigenvalues --- 1000.000001000.000001000.000001000.000001000.00000
     Eigenvalues --- 1000.000001000.000001000.000001000.000001000.00000
     Eigenvalues --- 1000.000001000.000001000.000001000.000001000.00000
     Eigenvalues --- 1000.000001000.000001000.000001000.000001000.00000
     Eigenvalues --- 1000.000001000.000001000.000001000.000001000.00000
     Eigenvalues --- 1000.000001000.000001000.000001000.000001000.00000
     Eigenvalues --- 1000.000001000.000001000.00000
 RFO step:  Lambda=-6.01735974D-06 EMin= 2.30000000D-03
 Linear search not attempted -- first point.
 Iteration  1 RMS(Cart)=  0.01156191 RMS(Int)=  0.00003904
 Iteration  2 RMS(Cart)=  0.00006578 RMS(Int)=  0.00000057
 Iteration  3 RMS(Cart)=  0.00000000 RMS(Int)=  0.00000057
 Iteration  1 RMS(Cart)=  0.00000010 RMS(Int)=  0.00000001
 Variable       Old X    -DE/DX   Delta X   Delta X   Delta X     New X
                                 (Linear)    (Quad)   (Total)
    R1        3.67647   0.00009   0.00000   0.00045   0.00045   3.67692
    R2        3.69189  -0.00003   0.00000  -0.00012  -0.00012   3.69177
    R3        3.73835  -0.00017   0.00000  -0.00089  -0.00089   3.73746
    R4        3.70232   0.00010   0.00000   0.00050   0.00050   3.70282
    R5        3.11688  -0.00003   0.00000  -0.00007  -0.00007   3.11681
    R6        3.09579  -0.00001   0.00000  -0.00003  -0.00003   3.09576
    R7        3.10213  -0.00001   0.00000  -0.00003  -0.00003   3.10210
    R8        3.09246   0.00003   0.00000   0.00006   0.00006   3.09253
    R9        3.11587  -0.00004   0.00000  -0.00008  -0.00008   3.11579
   R10        3.11989   0.00001   0.00000   0.00002   0.00002   3.11991
   R11        3.14367  -0.00000   0.00000  -0.00000  -0.00000   3.14367
   R12        3.18062  -0.00003   0.00000  -0.00009  -0.00009   3.18054
   R13        3.10924  -0.00000   0.00000  -0.00001  -0.00001   3.10923
   R14        3.09339   0.00006   0.00000   0.00014   0.00014   3.09352
   R15        3.10179  -0.00006   0.00000  -0.00014  -0.00014   3.10165
   R16        3.16373   0.00001   0.00000   0.00003   0.00003   3.16376
   R17        3.09830   0.00007   0.00000   0.00015   0.00015   3.09845
   R18        3.11980   0.00001   0.00000   0.00003   0.00003   3.11983
   R19        3.13203  -0.00003   0.00000  -0.00007  -0.00007   3.13196
   R20        3.11778   0.00004   0.00000   0.00009   0.00009   3.11788
   R21        1.82152   0.00001   0.00000   0.00002   0.00002   1.82154
   R22        1.82108  -0.00000   0.00000  -0.00000  -0.00000   1.82108
   R23        1.82089  -0.00001   0.00000  -0.00001  -0.00001   1.82088
   R24        1.84078   0.00002   0.00000   0.00004   0.00004   1.84082
   R25        1.84565   0.00002   0.00000   0.00004   0.00004   1.84569
   R26        1.82041   0.00000   0.00000   0.00001   0.00001   1.82042
   R27        1.82109   0.00002   0.00000   0.00004   0.00004   1.82113
   R28        1.85910  -0.00001   0.00000  -0.00002  -0.00002   1.85909
   R29        1.82145   0.00000   0.00000   0.00001   0.00001   1.82146
   R30        1.82428  -0.00000   0.00000  -0.00000  -0.00000   1.82428
   R31        1.82168  -0.00001   0.00000  -0.00002  -0.00002   1.82165
   R32        1.85224   0.00001   0.00000   0.00002   0.00002   1.85226
    A1        1.85172  -0.00008   0.00000  -0.00180  -0.00180   1.84992
    A2        1.80155   0.00012   0.00000   0.00078   0.00078   1.80233
    A3        1.96889  -0.00022   0.00000  -0.00209  -0.00209   1.96679
    A4        1.83430  -0.00004   0.00000   0.00105   0.00105   1.83535
    A5        2.01802   0.00008   0.00000   0.00022   0.00022   2.01824
    A6        1.97057   0.00016   0.00000   0.00191   0.00191   1.97248
    A7        2.46524  -0.00009   0.00000  -0.00037  -0.00037   2.46487
    A8        2.58826   0.00003   0.00000   0.00010   0.00010   2.58836
    A9        2.35483   0.00007   0.00000   0.00028   0.00028   2.35510
   A10        2.86714   0.00047   0.00000   0.00000   0.00000   2.86714
   A11        1.91978  -0.00001   0.00000  -0.00007  -0.00007   1.91971
   A12        1.91546  -0.00001   0.00000  -0.00008  -0.00008   1.91538
   A13        1.95201   0.00000   0.00000   0.00003   0.00003   1.95204
   A14        2.00708   0.00000   0.00000   0.00000   0.00000   2.00708
   A15        1.88610   0.00002   0.00000   0.00014   0.00014   1.88625
[...]
 Alpha virt. eigenvalues --    3.47957   3.48489   3.48615   3.51086   3.51093
 Alpha virt. eigenvalues --    3.53024   3.54512   3.60299   3.61088   3.62047
 Alpha virt. eigenvalues --    3.66197   4.27541   4.58282   7.86251  31.29049
          Condensed to atoms (all electrons):
               1          2          3          4          5          6
     1  Zr  15.123320  -0.166979  -0.003158  -0.158565  -0.205711  -0.532631
     2  O   -0.166979   9.084868   0.019863  -0.041651  -0.057280   0.096053
     3  O   -0.003158   0.019863   8.833546   0.012982  -0.040017  -0.006788
     4  O   -0.158565  -0.041651   0.012982   8.823978  -0.056917  -0.678585
     5  O   -0.205711  -0.057280  -0.040017  -0.056917   9.456730  -0.004359
     6  Si  -0.532631   0.096053  -0.006788  -0.678585  -0.004359  13.930834
     7  Si  -0.619373  -0.027036  -0.878993  -0.004353  -0.032632   0.083254
     8  Si  -0.531484  -1.003666  -0.022209   0.077088  -0.013156  -0.039734
     9  Si  -0.331221  -0.044038  -0.028414  -0.036562  -1.307843   0.036134
    10  O   -0.007050   0.000972  -0.001992   0.001445   0.136170  -0.002501
    11  O   -0.055457   0.004276   0.002829   0.001177   0.327548  -0.001061
    12  O    0.031161   0.000317   0.004781   0.002258   0.177358  -0.002268
    13  O   -0.061414   0.192952   0.001781  -0.015663  -0.000633   0.041754
    14  O   -0.035919   0.269262  -0.016593  -0.008897   0.002240   0.033497
    15  O   -0.072764   0.290231  -0.000819   0.001222   0.000520  -0.002261
    16  O   -0.132571   0.004586  -0.000436   0.346094   0.003082  -0.417244
    17  O   -0.078291  -0.040786   0.006829   0.224986   0.001149  -0.462311
    18  O   -0.032518  -0.013458   0.003704   0.201136  -0.000539  -0.450896
    19  O   -0.007953   0.009564   0.261115   0.009921   0.002071  -0.004535
    20  O   -0.146699  -0.000543   0.163760  -0.000913   0.001377   0.008985
    21  O    0.032004   0.011466   0.149171   0.003258   0.000313  -0.010668
    22  H   -0.009052  -0.000020  -0.000033  -0.000012   0.005868   0.000079
    23  H   -0.007572  -0.000013  -0.000008  -0.000054  -0.025249   0.000053
    24  H   -0.005011  -0.000245  -0.000008  -0.000004  -0.004985   0.000018
    25  H    0.019619  -0.020500  -0.000115  -0.000204   0.000019   0.001673
    26  H    0.007218   0.000470   0.000016  -0.000012  -0.000003  -0.000098
    27  H    0.007996  -0.019686   0.000838  -0.001780   0.000006   0.007728
    28  H    0.005246  -0.000011  -0.018691  -0.000015  -0.000016  -0.000280
    29  H    0.005523  -0.007194  -0.020463  -0.000145  -0.000074   0.000053
    30  H    0.001021  -0.000014   0.000246  -0.000449  -0.000008  -0.000841
    31  H    0.000059   0.000159  -0.000019  -0.018450  -0.000006   0.063622
    32  H    0.001799  -0.000021   0.000037   0.010373   0.000001   0.023421
    33  H   -0.016444   0.001004  -0.009984  -0.009527  -0.000102   0.053539
               7          8          9         10         11         12
     1  Zr  -0.619373  -0.531484  -0.331221  -0.007050  -0.055457   0.031161
     2  O   -0.027036  -1.003666  -0.044038   0.000972   0.004276   0.000317
     3  O   -0.878993  -0.022209  -0.028414  -0.001992   0.002829   0.004781
     4  O   -0.004353   0.077088  -0.036562   0.001445   0.001177   0.002258
     5  O   -0.032632  -0.013156  -1.307843   0.136170   0.327548   0.177358
     6  Si   0.083254  -0.039734   0.036134  -0.002501  -0.001061  -0.002268
     7  Si  13.797011   0.181029   0.021457  -0.000236  -0.000552   0.004398
     8  Si   0.181029  13.767058   0.025034  -0.000693   0.000910   0.000034
     9  Si   0.021457   0.025034  14.440869  -0.087580  -0.216917  -0.243562
    10  O   -0.000236  -0.000693  -0.087580   8.526001   0.016591   0.035672
    11  O   -0.000552   0.000910  -0.216917   0.016591   8.526226  -0.046403
    12  O    0.004398   0.000034  -0.243562   0.035672  -0.046403   8.601047
    13  O    0.008016  -0.091203   0.000589  -0.000000   0.000016   0.000011
    14  O    0.010824  -0.368881  -0.001356  -0.000002  -0.000001   0.000017
    15  O   -0.003363  -0.306522  -0.000903   0.000000  -0.000025  -0.000020
    16  O    0.003917  -0.009157  -0.000872   0.000001  -0.000001  -0.000001
    17  O   -0.000628   0.097171   0.002469  -0.000004  -0.000001  -0.000005
    18  O   -0.000287   0.073690   0.004351  -0.000006  -0.000003  -0.000001
    19  O   -0.401526  -0.014515   0.001111   0.000007  -0.000002  -0.000002
    20  O   -0.106537   0.009995   0.003317  -0.000003  -0.000002   0.000009
    21  O    0.021255  -0.039925  -0.002056   0.000002   0.000001   0.000037
    22  H   -0.000253   0.000077   0.046758  -0.006763  -0.005213   0.220747
    23  H    0.000060   0.000068   0.080869   0.228648  -0.006424   0.006092
    24  H    0.000078  -0.000127   0.036697   0.007155   0.242148  -0.007364
    25  H   -0.000517   0.057095  -0.000227  -0.000000  -0.000000  -0.000000
    26  H   -0.000355   0.045946  -0.000039   0.000000   0.000000  -0.000000
    27  H    0.000920   0.067546  -0.000027   0.000000  -0.000000  -0.000000
    28  H    0.056881  -0.000104  -0.000123  -0.000000  -0.000000  -0.000004
    29  H    0.047907   0.021307  -0.000048   0.000000   0.000000  -0.000001
    30  H    0.039861   0.000047   0.000028   0.000000  -0.000000  -0.000000
    31  H    0.000153  -0.001963  -0.000050   0.000000  -0.000000  -0.000000
    32  H   -0.000652   0.000058  -0.000008  -0.000000   0.000000   0.000000
    33  H    0.020605   0.000195   0.000082  -0.000000   0.000000   0.000000
              13         14         15         16         17         18
     1  Zr  -0.061414  -0.035919  -0.072764  -0.132571  -0.078291  -0.032518
     2  O    0.192952   0.269262   0.290231   0.004586  -0.040786  -0.013458
     3  O    0.001781  -0.016593  -0.000819  -0.000436   0.006829   0.003704
     4  O   -0.015663  -0.008897   0.001222   0.346094   0.224986   0.201136
     5  O   -0.000633   0.002240   0.000520   0.003082   0.001149  -0.000539
     6  Si   0.041754   0.033497  -0.002261  -0.417244  -0.462311  -0.450896
     7  Si   0.008016   0.010824  -0.003363   0.003917  -0.000628  -0.000287
     8  Si  -0.091203  -0.368881  -0.306522  -0.009157   0.097171   0.073690
     9  Si   0.000589  -0.001356  -0.000903  -0.000872   0.002469   0.004351
    10  O   -0.000000  -0.000002   0.000000   0.000001  -0.000004  -0.000006
    11  O    0.000016  -0.000001  -0.000025  -0.000001  -0.000001  -0.000003
    12  O    0.000011   0.000017  -0.000020  -0.000001  -0.000005  -0.000001
    13  O    8.633334   0.088042  -0.091374   0.003699  -0.030788  -0.044780
    14  O    0.088042   8.679832   0.055065   0.003687  -0.036048  -0.026771
    15  O   -0.091374   0.055065   8.774288  -0.000174   0.003538   0.001626
    16  O    0.003699   0.003687  -0.000174   8.902497  -0.090952  -0.116553
    17  O   -0.030788  -0.036048   0.003538  -0.090952   8.937000   0.228513
    18  O   -0.044780  -0.026771   0.001626  -0.116553   0.228513   9.015715
    19  O    0.000225  -0.000067   0.000128  -0.001700  -0.030440   0.000222
    20  O    0.000009  -0.000194   0.000039   0.000063  -0.001020   0.000014
    21  O   -0.000238   0.016428  -0.000564  -0.000214  -0.005470   0.000465
    22  H    0.000000   0.000000  -0.000000   0.000000   0.000000  -0.000000
    23  H    0.000000   0.000000  -0.000000  -0.000000   0.000000  -0.000000
    24  H   -0.000000   0.000000   0.000001   0.000000   0.000000  -0.000000
    25  H    0.217669  -0.012039   0.008923  -0.000038   0.000608   0.014647
    26  H   -0.005183  -0.010019   0.217524   0.000000  -0.000003   0.000006
    27  H   -0.009968   0.218867   0.004628   0.000183   0.017865  -0.000289
    28  H   -0.000000  -0.000004  -0.000001  -0.000000   0.000004  -0.000000
    29  H    0.000781   0.017623  -0.002552  -0.000004  -0.000398   0.000006
    30  H    0.000001  -0.000006   0.000000   0.000120  -0.000378  -0.000007
    31  H    0.002332   0.000161  -0.000018   0.003873  -0.000791   0.218022
    32  H   -0.000007  -0.000006   0.000000   0.233103  -0.003618   0.003861
    33  H    0.000228   0.002020  -0.000034  -0.000181   0.231017   0.002099
              19         20         21         22         23         24
     1  Zr  -0.007953  -0.146699   0.032004  -0.009052  -0.007572  -0.005011
     2  O    0.009564  -0.000543   0.011466  -0.000020  -0.000013  -0.000245
     3  O    0.261115   0.163760   0.149171  -0.000033  -0.000008  -0.000008
     4  O    0.009921  -0.000913   0.003258  -0.000012  -0.000054  -0.000004
     5  O    0.002071   0.001377   0.000313   0.005868  -0.025249  -0.004985
     6  Si  -0.004535   0.008985  -0.010668   0.000079   0.000053   0.000018
     7  Si  -0.401526  -0.106537   0.021255  -0.000253   0.000060   0.000078
     8  Si  -0.014515   0.009995  -0.039925   0.000077   0.000068  -0.000127
     9  Si   0.001111   0.003317  -0.002056   0.046758   0.080869   0.036697
    10  O    0.000007  -0.000003   0.000002  -0.006763   0.228648   0.007155
    11  O   -0.000002  -0.000002   0.000001  -0.005213  -0.006424   0.242148
    12  O   -0.000002   0.000009   0.000037   0.220747   0.006092  -0.007364
    13  O    0.000225   0.000009  -0.000238   0.000000   0.000000  -0.000000
    14  O   -0.000067  -0.000194   0.016428   0.000000   0.000000   0.000000
    15  O    0.000128   0.000039  -0.000564  -0.000000  -0.000000   0.000001
    16  O   -0.001700   0.000063  -0.000214   0.000000  -0.000000   0.000000
    17  O   -0.030440  -0.001020  -0.005470   0.000000   0.000000   0.000000
    18  O    0.000222   0.000014   0.000465  -0.000000  -0.000000  -0.000000
    19  O    8.871443   0.032393   0.024437  -0.000000   0.000000  -0.000000
    20  O    0.032393   8.655103  -0.050844   0.000001   0.000000  -0.000000
    21  O    0.024437  -0.050844   8.487404  -0.000000   0.000000   0.000000
    22  H   -0.000000   0.000001  -0.000000   0.361501   0.000052   0.000109
    23  H    0.000000   0.000000   0.000000   0.000052   0.351228   0.000015
    24  H   -0.000000  -0.000000   0.000000   0.000109   0.000015   0.364807
    25  H   -0.000026   0.000000  -0.000020   0.000000   0.000000   0.000000
    26  H    0.000001  -0.000000   0.000038  -0.000000  -0.000000  -0.000000
    27  H    0.000009   0.000190  -0.004062  -0.000000  -0.000000   0.000000
    28  H    0.004601   0.229703  -0.002152  -0.000000   0.000000  -0.000000
    29  H   -0.008583   0.007677   0.206433   0.000000   0.000000   0.000000
    30  H    0.224461  -0.001450  -0.007108   0.000000  -0.000000   0.000000
    31  H    0.000004  -0.000000  -0.000000  -0.000000  -0.000000   0.000000
    32  H    0.000100   0.000000   0.000001  -0.000000  -0.000000  -0.000000
    33  H    0.014844  -0.000082   0.001433  -0.000000  -0.000000  -0.000000
              25         26         27         28         29         30
     1  Zr   0.019619   0.007218   0.007996   0.005246   0.005523   0.001021
     2  O   -0.020500   0.000470  -0.019686  -0.000011  -0.007194  -0.000014
     3  O   -0.000115   0.000016   0.000838  -0.018691  -0.020463   0.000246
     4  O   -0.000204  -0.000012  -0.001780  -0.000015  -0.000145  -0.000449
     5  O    0.000019  -0.000003   0.000006  -0.000016  -0.000074  -0.000008
     6  Si   0.001673  -0.000098   0.007728  -0.000280   0.000053  -0.000841
     7  Si  -0.000517  -0.000355   0.000920   0.056881   0.047907   0.039861
     8  Si   0.057095   0.045946   0.067546  -0.000104   0.021307   0.000047
     9  Si  -0.000227  -0.000039  -0.000027  -0.000123  -0.000048   0.000028
    10  O   -0.000000   0.000000   0.000000  -0.000000   0.000000   0.000000
    11  O   -0.000000   0.000000  -0.000000  -0.000000   0.000000  -0.000000
    12  O   -0.000000  -0.000000  -0.000000  -0.000004  -0.000001  -0.000000
    13  O    0.217669  -0.005183  -0.009968  -0.000000   0.000781   0.000001
    14  O   -0.012039  -0.010019   0.218867  -0.000004   0.017623  -0.000006
    15  O    0.008923   0.217524   0.004628  -0.000001  -0.002552   0.000000
    16  O   -0.000038   0.000000   0.000183  -0.000000  -0.000004   0.000120
    17  O    0.000608  -0.000003   0.017865   0.000004  -0.000398  -0.000378
    18  O    0.014647   0.000006  -0.000289  -0.000000   0.000006  -0.000007
    19  O   -0.000026   0.000001   0.000009   0.004601  -0.008583   0.224461
    20  O    0.000000  -0.000000   0.000190   0.229703   0.007677  -0.001450
    21  O   -0.000020   0.000038  -0.004062  -0.002152   0.206433  -0.007108
    22  H    0.000000  -0.000000  -0.000000  -0.000000   0.000000   0.000000
    23  H    0.000000  -0.000000  -0.000000   0.000000   0.000000  -0.000000
    24  H    0.000000  -0.000000   0.000000  -0.000000   0.000000   0.000000
    25  H    0.298996  -0.000012   0.000118   0.000000   0.000001   0.000000
    26  H   -0.000012   0.365798   0.000037   0.000000   0.000021  -0.000000
    27  H    0.000118   0.000037   0.283433  -0.000000  -0.001481   0.000010
    28  H    0.000000   0.000000  -0.000000   0.349163  -0.000017  -0.000016
    29  H    0.000001   0.000021  -0.001481  -0.000017   0.286038   0.000153
    30  H    0.000000  -0.000000   0.000010  -0.000016   0.000153   0.333979
    31  H   -0.000502   0.000000   0.000013   0.000000   0.000000  -0.000000
    32  H   -0.000001   0.000000  -0.000000   0.000000  -0.000000  -0.000000
    33  H    0.000006  -0.000000  -0.002416  -0.000002   0.000100  -0.001137
              31         32         33
     1  Zr   0.000059   0.001799  -0.016444
     2  O    0.000159  -0.000021   0.001004
     3  O   -0.000019   0.000037  -0.009984
     4  O   -0.018450   0.010373  -0.009527
     5  O   -0.000006   0.000001  -0.000102
     6  Si   0.063622   0.023421   0.053539
     7  Si   0.000153  -0.000652   0.020605
     8  Si  -0.001963   0.000058   0.000195
     9  Si  -0.000050  -0.000008   0.000082
    10  O    0.000000  -0.000000  -0.000000
    11  O   -0.000000   0.000000   0.000000
    12  O   -0.000000   0.000000   0.000000
    13  O    0.002332  -0.000007   0.000228
    14  O    0.000161  -0.000006   0.002020
    15  O   -0.000018   0.000000  -0.000034
    16  O    0.003873   0.233103  -0.000181
    17  O   -0.000791  -0.003618   0.231017
    18  O    0.218022   0.003861   0.002099
    19  O    0.000004   0.000100   0.014844
    20  O   -0.000000   0.000000  -0.000082
    21  O   -0.000000   0.000001   0.001433
    22  H   -0.000000  -0.000000  -0.000000
    23  H   -0.000000  -0.000000  -0.000000
    24  H    0.000000  -0.000000  -0.000000
    25  H   -0.000502  -0.000001   0.000006
    26  H    0.000000   0.000000  -0.000000
    27  H    0.000013  -0.000000  -0.002416
    28  H    0.000000   0.000000  -0.000002
    29  H    0.000000  -0.000000   0.000100
    30  H   -0.000000  -0.000000  -0.001137
    31  H    0.331590  -0.000000  -0.000038
    32  H   -0.000000   0.349790   0.000156
    33  H   -0.000038   0.000156   0.269323
 Mulliken charges:
               1
     1  Zr  -0.017130
     2  O   -0.542897
     3  O   -0.412759
     4  O   -0.683161
     5  O   -0.364920
     6  Si   2.236365
     7  Si   1.779670
     8  Si   2.018989
     9  Si   1.602083
    10  O   -0.845836
    11  O   -0.789658
    12  O   -0.784307
    13  O   -0.840188
    14  O   -0.880761
    15  O   -0.876340
    16  O   -0.734808
    17  O   -0.969215
    18  O   -1.081970
    19  O   -0.987305
    20  O   -0.804348
    21  O   -0.830828
    22  H    0.386154
    23  H    0.372235
    24  H    0.366716
    25  H    0.414825
    26  H    0.378651
    27  H    0.429321
    28  H    0.375837
    29  H    0.447337
    30  H    0.411485
    31  H    0.401851
    32  H    0.381614
    33  H    0.443296
 Sum of Mulliken charges =  -0.00000
 Mulliken charges with hydrogens summed into heavy atoms:
               1
     1  Zr  -0.017130
     2  O   -0.542897
     3  O   -0.412759
     4  O   -0.683161
     5  O   -0.364920
     6  Si   2.236365
     7  Si   1.779670
     8  Si   2.018989
     9  Si   1.602083
    10  O   -0.473600
    11  O   -0.422942
    12  O   -0.398153
    13  O   -0.425363
    14  O   -0.451441
    15  O   -0.497689
    16  O   -0.353194
    17  O   -0.525920
    18  O   -0.680119
    19  O   -0.575820
    20  O   -0.428511
    21  O   -0.383491
 Electronic spatial extent (au):  <R**2>=           9871.1011
 Charge=             -0.0000 electrons
 Dipole moment (field-independent basis, Debye):
    X=              1.0907    Y=             -0.6861    Z=             -2.2390  Tot=              2.5833
 Quadrupole moment (field-independent basis, Debye-Ang):
   XX=           -160.6822   YY=           -154.3405   ZZ=           -158.1456
   XY=             -4.5566   XZ=              2.3718   YZ=              5.7349
 Traceless Quadrupole moment (field-independent basis, Debye-Ang):
   XX=             -2.9594   YY=              3.3823   ZZ=             -0.4229
   XY=             -4.5566   XZ=              2.3718   YZ=              5.7349
 Octapole moment (field-independent basis, Debye-Ang**2):
  XXX=             71.0112  YYY=              5.9790  ZZZ=            -10.6250  XYY=              2.1573
  XXY=             20.7527  XXZ=             17.4061  XZZ=              2.0498  YZZ=            -15.2039
  YYZ=            -21.6203  XYZ=             27.9329
 Hexadecapole moment (field-independent basis, Debye-Ang**3):
 XXXX=          -6049.6954 YYYY=          -2832.5033 ZZZZ=          -2272.3327 XXXY=             66.3718
 XXXZ=            -59.7597 YYYX=             -1.2227 YYYZ=            226.3222 ZZZX=           -148.8698
 ZZZY=            -61.8284 XXYY=          -1456.5005 XXZZ=          -1391.9367 YYZZ=           -922.3583
 XXYZ=            -14.2349 YYXZ=            102.5953 ZZXY=            -58.3175
 N-N= 2.832839597371D+03 E-N=-1.137827075747D+04  KE= 2.373154683316D+03
 1\1\GINC-GRA332\FOpt\RB3LYP\Gen\H12O16Si4Zr1\SARASHS\14-Aug-2020\0\\#n
  B3LYP/Gen Pseudo=cards EmpiricalDispersion=GD3 Opt=modredundant\\Titl
 e\\0,1\Zr,0.6582299007,-0.1240521496,-0.079005729\O,-0.2168379864,-0.9
 033441551,1.4741226049\O,0.1010732683,1.7476973195,-0.1244593468\O,-0.
 271542943,-0.9783787859,-1.601476082\O,2.5930194271,-0.4346356561,-0.0
 839579172\Si,-1.8349388291,-1.3335233391,-1.9545523146\Si,-1.117115366
 9,2.8422681758,-0.0853072287\Si,-1.7166828246,-1.1507817772,2.11429362
 01\Si,4.2187588472,-0.2465215529,-0.0767079922\O,4.9134839779,-0.39228
 67093,-1.5674829949\O,4.9253662101,-1.4239055567,0.8512263431\O,4.4724
 606631,1.2912177138,0.4641992746\O,-2.312182695,-2.622292566,1.6973768
 348\O,-2.7189162034,0.0664126748,1.5513954632\O,-1.5870647079,-1.01647
 93449,3.7432981496\O,-2.0080558144,-1.5617037383,-3.5782498898\O,-2.82
 82096533,-0.188185343,-1.3009752477\O,-2.3456209038,-2.7150943374,-1.1
 812847793\O,-2.0438000433,2.4380009341,-1.4308903454\O,-0.6379078676,4
 .4006534875,-0.3061664855\O,-1.9651511341,2.7636948298,1.3127655971\H,
 5.3579993427,1.6527301462,0.3476108101\H,5.2435711111,-1.2694882544,-1
 .7926903263\H,4.4972213277,-1.6468800226,1.6852634722\H,-2.4016117601,
 -2.8083529293,0.7453921235\H,-2.3698913005,-1.2218327519,4.2658110954\
 H,-3.0577502211,-0.0827236598,0.647592428\H,-0.5262040538,4.9287596332
 ,0.4924989834\H,-2.2674069603,1.872103039,1.5855251062\H,-2.6514329889
 ,3.1251819751,-1.7317274967\H,-2.3028254652,-3.5312745701,-1.692253906
 2\H,-1.2778389474,-1.2673029881,-4.133968046\H,-2.6137054058,0.7531702
 589,-1.4899057779\\Version=ES64L-G16RevB.01\State=1-A\HF=-2416.9468209
 \RMSD=4.426e-09\RMSF=3.575e-05\Dipole=0.4122892,-0.2661888,-0.8900249\
 Quadrupole=-2.109246,2.4701667,-0.3609207,-3.321066,1.7771271,4.343917
 8\PG=C01 [X(H12O16Si4Zr1)]\\@


 Ideas are like rabbits. You get a couple and learn
 how to handle them, and pretty soon you have a dozen.
                                    -- John Steinbeck
 Job cpu time:       0 days 15 hours 43 minutes 55.5 seconds.
 Elapsed time:       0 days  1 hours 10 minutes 56.5 seconds.
 File lengths (MBytes):  RWF=    167 Int=      0 D2E=      0 Chk=     21 Scr=      1
 Normal termination of Gaussian 16 at Fri Aug 14 04:04:44 2020.
