 Entering Gaussian System, Link 0=g16
 Initial command:
 /opt/software/gaussian/g16.b01/l1.exe "/localscratch/sarashs.37242626.0/Gau-172396.inp" -scrdir="/localscratch/sarashs.37242626.0/"
 Entering Link 1 = /opt/software/gaussian/g16.b01/l1.exe PID=    172397.
  
 Copyright (c) 1988-2017, Gaussian, Inc.  All Rights Reserved.
  
 This is part of the Gaussian(R) 16 program.  It is based on
 the Gaussian(R) 09 system (copyright 2009, Gaussian, Inc.),
 the Gaussian(R) 03 system (copyright 2003, Gaussian, Inc.),
 the Gaussian(R) 98 system (copyright 1998, Gaussian, Inc.),
 the Gaussian(R) 94 system (copyright 1995, Gaussian, Inc.),
 the Gaussian 92(TM) system (copyright 1992, Gaussian, Inc.),
 the Gaussian 90(TM) system (copyright 1990, Gaussian, Inc.),
 the Gaussian 88(TM) system (copyright 1988, Gaussian, Inc.),
 the Gaussian 86(TM) system (copyright 1986, Carnegie Mellon
 University), and the Gaussian 82(TM) system (copyright 1983,
 Carnegie Mellon University). Gaussian is a federally registered
 trademark of Gaussian, Inc.
  
 This software contains proprietary and confidential information,
 including trade secrets, belonging to Gaussian, Inc.
  
 This software is provided under written license and may be
 used, copied, transmitted, or stored only in accord with that
 written license.
  
 The following legend is applicable only to US Government
 contracts under FAR:
  
                    RESTRICTED RIGHTS LEGEND
  
 Use, reproduction and disclosure by the US Government is
 subject to restrictions as set forth in subparagraphs (a)
 and (c) of the Commercial Computer Software - Restricted
 Rights clause in FAR 52.227-19.
  
 Gaussian, Inc.
 340 Quinnipiac St., Bldg. 40, Wallingford CT 06492
  
  
 ---------------------------------------------------------------
 Warning -- This program may not be used in any manner that
 competes with the business of Gaussian, Inc. or will provide
 assistance to any competitor of Gaussian, Inc.  The licensee
 of this program is prohibited from giving any competitor of
 Gaussian, Inc. access to this program.  By using this program,
 the user acknowledges that Gaussian, Inc. is engaged in the
 business of creating and licensing software in the field of
 computational chemistry and represents and warrants to the
 licensee that it is not a competitor of Gaussian, Inc. and that
 it will not use this program in any manner prohibited above.
 ---------------------------------------------------------------
  

 Cite this work as:
 Gaussian 16, Revision B.01,
 M. J. Frisch, G. W. Trucks, H. B. Schlegel, G. E. Scuseria, 
 M. A. Robb, J. R. Cheeseman, G. Scalmani, V. Barone, 
 G. A. Petersson, H. Nakatsuji, X. Li, M. Caricato, A. V. Marenich, 
 J. Bloino, B. G. Janesko, R. Gomperts, B. Mennucci, H. P. Hratchian, 
 J. V. Ortiz, A. F. Izmaylov, J. L. Sonnenberg, D. Williams-Young, 
 F. Ding, F. Lipparini, F. Egidi, J. Goings, B. Peng, A. Petrone, 
 T. Henderson, D. Ranasinghe, V. G. Zakrzewski, J. Gao, N. Rega, 
 G. Zheng, W. Liang, M. Hada, M. Ehara, K. Toyota, R. Fukuda, 
 J. Hasegawa, M. Ishida, T. Nakajima, Y. Honda, O. Kitao, H. Nakai, 
 T. Vreven, K. Throssell, J. A. Montgomery, Jr., J. E. Peralta, 
 F. Ogliaro, M. J. Bearpark, J. J. Heyd, E. N. Brothers, K. N. Kudin, 
 V. N. Staroverov, T. A. Keith, R. Kobayashi, J. Normand, 
 K. Raghavachari, A. P. Rendell, J. C. Burant, S. S. Iyengar, 
 J. Tomasi, M. Cossi, J. M. Millam, M. Klene, C. Adamo, R. Cammi, 
 J. W. Ochterski, R. L. Martin, K. Morokuma, O. Farkas, 
 J. B. Foresman, and D. J. Fox, Gaussian, Inc., Wallingford CT, 2016.
 
 ******************************************
 Gaussian 16:  ES64L-G16RevB.01 20-Dec-2017
                14-Aug-2020 
 ******************************************
 %NProcShared=16
 Will use up to   16 processors via shared memory.
 ------------------------------------------------------------------
 #n B3LYP/Gen Pseudo=cards EmpiricalDispersion=GD3 Opt=modredundant
 ------------------------------------------------------------------
 1/18=120,19=15,26=3,38=1/1,3;
 2/9=110,12=2,17=6,18=5,40=1/2;
 3/5=7,11=2,16=1,17=8,25=1,30=1,71=1,74=-5,124=31/1,2,3;
 4//1;
 5/5=2,38=5/2;
 6/7=2,8=2,9=2,10=2,28=1/1;
 7//1,2,3,16;
 1/18=20,19=15,26=3/3(2);
 2/9=110/2;
 99//99;
 2/9=110/2;
 3/5=7,6=1,11=2,16=1,17=8,25=1,30=1,71=1,74=-5,82=7,124=31/1,2,3;
 4/5=5,16=3,69=1/1;
 5/5=2,38=5/2;
 7//1,2,3,16;
 1/18=20,19=15,26=3/3(-5);
 2/9=110/2;
 6/7=2,8=2,9=2,10=2,19=2,28=1/1;
 99/9=1/99;
 -----
 Title
 -----
 Symbolic Z-matrix:
 Charge =  0 Multiplicity = 1
 Zr                    0.65779  -0.12506  -0.07164 
 O                    -0.22285  -0.90624   1.4773 
 O                     0.10302   1.74748  -0.12299 
 O                    -0.2683   -0.97885  -1.59705 
 O                     2.59206  -0.4363   -0.08284 
 Si                   -1.83119  -1.33244  -1.9536 
 Si                   -1.1155    2.84172  -0.08279 
 Si                   -1.72376  -1.15291   2.11517 
 Si                    4.20941  -0.30818   0.13106 
 O                     5.01399   0.25347  -1.19663 
 O                     4.86654  -1.79811   0.43978 
 O                     4.39483   0.78296   1.35461 
 O                    -2.31924  -2.624     1.69627 
 O                    -2.72422   0.06508   1.55086 
 O                    -1.59734  -1.01957   3.74439 
 O                    -2.00144  -1.55965  -3.57782 
 O                    -2.82509  -0.18676  -1.30145 
 O                    -2.34448  -2.71439  -1.18277 
 O                    -2.04046   2.43957  -1.43023 
 O                    -0.63565   4.40049  -0.29987 
 O                    -1.96551   2.76086   1.31383 
 H                     5.27981   1.13942   1.48959 
 H                     5.38371  -0.41923  -1.77964 
 H                     4.39845  -2.36876   1.05937 
 H                    -2.40577  -2.80951   0.74392 
 H                    -2.38137  -1.22423   4.26535 
 H                    -3.06034  -0.08306   0.64589 
 H                    -0.52731   4.92728   0.50015 
 H                    -2.26909   1.86932   1.58533 
 H                    -2.64854   3.12676  -1.73014 
 H                    -2.30452  -3.52952  -1.69562 
 H                    -1.27114  -1.26305  -4.13223 
 H                    -2.61026   0.75461  -1.48993 
 
 The following ModRedundant input section has been read:
 A       1       5       9 F                                                   
 D       1       5       9      12 F                                           
 D       3       1       5       9 F                                           
 

 GradGradGradGradGradGradGradGradGradGradGradGradGradGradGradGradGradGrad
 Berny optimization.
 Initialization pass.
                           ----------------------------
                           !    Initial Parameters    !
                           ! (Angstroms and Degrees)  !
 --------------------------                            --------------------------
 ! Name  Definition              Value          Derivative Info.                !
 --------------------------------------------------------------------------------
 ! R1    R(1,2)                  1.9455         estimate D2E/DX2                !
 ! R2    R(1,3)                  1.9537         estimate D2E/DX2                !
 ! R3    R(1,4)                  1.9783         estimate D2E/DX2                !
 ! R4    R(1,5)                  1.9592         estimate D2E/DX2                !
 ! R5    R(2,8)                  1.6494         estimate D2E/DX2                !
 ! R6    R(3,7)                  1.6382         estimate D2E/DX2                !
 ! R7    R(4,6)                  1.6416         estimate D2E/DX2                !
 ! R8    R(5,9)                  1.6365         estimate D2E/DX2                !
 ! R9    R(6,16)                 1.6488         estimate D2E/DX2                !
 ! R10   R(6,17)                 1.651          estimate D2E/DX2                !
 ! R11   R(6,18)                 1.6636         estimate D2E/DX2                !
 ! R12   R(7,19)                 1.6831         estimate D2E/DX2                !
 ! R13   R(7,20)                 1.6453         estimate D2E/DX2                !
 ! R14   R(7,21)                 1.6369         estimate D2E/DX2                !
 ! R15   R(8,13)                 1.6414         estimate D2E/DX2                !
 ! R16   R(8,14)                 1.6742         estimate D2E/DX2                !
 ! R17   R(8,15)                 1.6395         estimate D2E/DX2                !
 ! R18   R(9,10)                 1.6509         estimate D2E/DX2                !
 ! R19   R(9,11)                 1.6574         estimate D2E/DX2                !
 ! R20   R(9,12)                 1.6499         estimate D2E/DX2                !
 ! R21   R(10,23)                0.9639         estimate D2E/DX2                !
 ! R22   R(11,24)                0.9637         estimate D2E/DX2                !
 ! R23   R(12,22)                0.9636         estimate D2E/DX2                !
 ! R24   R(13,25)                0.9741         estimate D2E/DX2                !
 ! R25   R(14,27)                0.9767         estimate D2E/DX2                !
 ! R26   R(15,26)                0.9633         estimate D2E/DX2                !
 ! R27   R(16,32)                0.9637         estimate D2E/DX2                !
 ! R28   R(17,33)                0.9838         estimate D2E/DX2                !
 ! R29   R(18,31)                0.9639         estimate D2E/DX2                !
 ! R30   R(19,30)                0.9654         estimate D2E/DX2                !
 ! R31   R(20,28)                0.964          estimate D2E/DX2                !
 ! R32   R(21,29)                0.9802         estimate D2E/DX2                !
 ! A1    A(2,1,3)              106.0959         estimate D2E/DX2                !
 ! A2    A(2,1,4)              103.2214         estimate D2E/DX2                !
 ! A3    A(2,1,5)              112.8091         estimate D2E/DX2                !
 ! A4    A(3,1,4)              105.0977         estimate D2E/DX2                !
 ! A5    A(3,1,5)              115.6243         estimate D2E/DX2                !
 ! A6    A(4,1,5)              112.9055         estimate D2E/DX2                !
 ! A7    A(1,2,8)              141.2479         estimate D2E/DX2                !
 ! A8    A(1,3,7)              148.2962         estimate D2E/DX2                !
 ! A9    A(1,4,6)              134.9216         estimate D2E/DX2                !
 ! A10   A(1,5,9)              164.2748         Frozen                          !
 ! A11   A(4,6,16)             109.9952         estimate D2E/DX2                !
 ! A12   A(4,6,17)             109.7479         estimate D2E/DX2                !
 ! A13   A(4,6,18)             111.8422         estimate D2E/DX2                !
 ! A14   A(16,6,17)            114.9972         estimate D2E/DX2                !
 ! A15   A(16,6,18)            108.0658         estimate D2E/DX2                !
 ! A16   A(17,6,18)            101.9869         estimate D2E/DX2                !
 ! A17   A(3,7,19)             103.269          estimate D2E/DX2                !
 ! A18   A(3,7,20)             114.3706         estimate D2E/DX2                !
 ! A19   A(3,7,21)             111.9733         estimate D2E/DX2                !
 ! A20   A(19,7,20)            106.3205         estimate D2E/DX2                !
 ! A21   A(19,7,21)            112.6973         estimate D2E/DX2                !
 ! A22   A(20,7,21)            108.1076         estimate D2E/DX2                !
 ! A23   A(2,8,13)             111.4365         estimate D2E/DX2                !
 ! A24   A(2,8,14)             107.7362         estimate D2E/DX2                !
 ! A25   A(2,8,15)             107.5759         estimate D2E/DX2                !
 ! A26   A(13,8,14)            110.4391         estimate D2E/DX2                !
 ! A27   A(13,8,15)            110.7606         estimate D2E/DX2                !
 ! A28   A(14,8,15)            108.7751         estimate D2E/DX2                !
 ! A29   A(5,9,10)             113.777          estimate D2E/DX2                !
 ! A30   A(5,9,11)             110.2317         estimate D2E/DX2                !
 ! A31   A(5,9,12)             105.0574         estimate D2E/DX2                !
 ! A32   A(10,9,11)            105.2124         estimate D2E/DX2                !
 ! A33   A(10,9,12)            108.46           estimate D2E/DX2                !
 ! A34   A(11,9,12)            114.3197         estimate D2E/DX2                !
 ! A35   A(9,10,23)            115.8441         estimate D2E/DX2                !
 ! A36   A(9,11,24)            117.3551         estimate D2E/DX2                !
 ! A37   A(9,12,22)            116.8569         estimate D2E/DX2                !
 ! A38   A(8,13,25)            116.8991         estimate D2E/DX2                !
 ! A39   A(8,14,27)            114.056          estimate D2E/DX2                !
 ! A40   A(8,15,26)            117.2166         estimate D2E/DX2                !
 ! A41   A(6,16,32)            116.4907         estimate D2E/DX2                !
 ! A42   A(6,17,33)            117.1859         estimate D2E/DX2                !
 ! A43   A(6,18,31)            116.3076         estimate D2E/DX2                !
 ! A44   A(7,19,30)            115.1373         estimate D2E/DX2                !
 ! A45   A(7,20,28)            116.1676         estimate D2E/DX2                !
 ! A46   A(7,21,29)            116.2372         estimate D2E/DX2                !
 ! D1    D(3,1,2,8)             57.7292         estimate D2E/DX2                !
 ! D2    D(4,1,2,8)            -52.5301         estimate D2E/DX2                !
 ! D3    D(5,1,2,8)           -174.7067         estimate D2E/DX2                !
 ! D4    D(2,1,3,7)            -50.098          estimate D2E/DX2                !
 ! D5    D(4,1,3,7)             58.8315         estimate D2E/DX2                !
 ! D6    D(5,1,3,7)           -175.9641         estimate D2E/DX2                !
 ! D7    D(2,1,4,6)             42.7683         estimate D2E/DX2                !
 ! D8    D(3,1,4,6)            -68.2312         estimate D2E/DX2                !
 ! D9    D(5,1,4,6)            164.8802         estimate D2E/DX2                !
 ! D10   D(2,1,5,9)            -90.364          estimate D2E/DX2                !
 ! D11   D(3,1,5,9)             31.9992         Frozen                          !
 ! D12   D(4,1,5,9)            153.0815         estimate D2E/DX2                !
 ! D13   D(1,2,8,13)            93.5308         estimate D2E/DX2                !
 ! D14   D(1,2,8,14)           -27.7655         estimate D2E/DX2                !
 ! D15   D(1,2,8,15)          -144.8802         estimate D2E/DX2                !
 ! D16   D(1,3,7,19)           -61.1012         estimate D2E/DX2                !
 ! D17   D(1,3,7,20)          -176.1751         estimate D2E/DX2                !
 ! D18   D(1,3,7,21)            60.409          estimate D2E/DX2                !
 ! D19   D(1,4,6,16)           160.167          estimate D2E/DX2                !
 ! D20   D(1,4,6,17)            32.6925         estimate D2E/DX2                !
 ! D21   D(1,4,6,18)           -79.742          estimate D2E/DX2                !
 ! D22   D(1,5,9,10)          -100.1289         estimate D2E/DX2                !
 ! D23   D(1,5,9,11)           141.9688         estimate D2E/DX2                !
 ! D24   D(1,5,9,12)            18.3502         Frozen                          !
 ! D25   D(4,6,16,32)          -14.1998         estimate D2E/DX2                !
 ! D26   D(17,6,16,32)         110.2979         estimate D2E/DX2                !
 ! D27   D(18,6,16,32)        -136.5531         estimate D2E/DX2                !
 ! D28   D(4,6,17,33)           51.0095         estimate D2E/DX2                !
 ! D29   D(16,6,17,33)         -73.6179         estimate D2E/DX2                !
 ! D30   D(18,6,17,33)         169.7166         estimate D2E/DX2                !
 ! D31   D(4,6,18,31)          -96.4424         estimate D2E/DX2                !
 ! D32   D(16,6,18,31)          24.7715         estimate D2E/DX2                !
 ! D33   D(17,6,18,31)         146.349          estimate D2E/DX2                !
 ! D34   D(3,7,19,30)         -162.1837         estimate D2E/DX2                !
 ! D35   D(20,7,19,30)         -41.4662         estimate D2E/DX2                !
 ! D36   D(21,7,19,30)          76.796          estimate D2E/DX2                !
 ! D37   D(3,7,20,28)          -98.427          estimate D2E/DX2                !
 ! D38   D(19,7,20,28)         148.2947         estimate D2E/DX2                !
 ! D39   D(21,7,20,28)          27.0455         estimate D2E/DX2                !
 ! D40   D(3,7,21,29)          -49.8995         estimate D2E/DX2                !
 ! D41   D(19,7,21,29)          66.0156         estimate D2E/DX2                !
 ! D42   D(20,7,21,29)        -176.7753         estimate D2E/DX2                !
 ! D43   D(2,8,13,25)          -58.468          estimate D2E/DX2                !
 ! D44   D(14,8,13,25)          61.2404         estimate D2E/DX2                !
 ! D45   D(15,8,13,25)        -178.1888         estimate D2E/DX2                !
 ! D46   D(2,8,14,27)           80.2918         estimate D2E/DX2                !
 ! D47   D(13,8,14,27)         -41.6247         estimate D2E/DX2                !
 ! D48   D(15,8,14,27)        -163.3756         estimate D2E/DX2                !
 ! D49   D(2,8,15,26)         -174.1994         estimate D2E/DX2                !
 ! D50   D(13,8,15,26)         -52.1897         estimate D2E/DX2                !
 ! D51   D(14,8,15,26)          69.3652         estimate D2E/DX2                !
 ! D52   D(5,9,10,23)          -94.8501         estimate D2E/DX2                !
 ! D53   D(11,9,10,23)          25.9082         estimate D2E/DX2                !
 ! D54   D(12,9,10,23)         148.64           estimate D2E/DX2                !
 ! D55   D(5,9,11,24)          -43.8201         estimate D2E/DX2                !
 ! D56   D(10,9,11,24)        -166.8797         estimate D2E/DX2                !
 ! D57   D(12,9,11,24)          74.2397         estimate D2E/DX2                !
 ! D58   D(5,9,12,22)         -166.4772         estimate D2E/DX2                !
 ! D59   D(10,9,12,22)         -44.474          estimate D2E/DX2                !
 ! D60   D(11,9,12,22)          72.5544         estimate D2E/DX2                !
 --------------------------------------------------------------------------------
 Trust Radius=3.00D-01 FncErr=1.00D-07 GrdErr=1.00D-06 EigMax=2.50D+02 EigMin=1.00D-04
 Number of steps in this run=    148 maximum allowed number of steps=    198.
 GradGradGradGradGradGradGradGradGradGradGradGradGradGradGradGradGradGrad

                          Input orientation:                          
 ---------------------------------------------------------------------
 Center     Atomic      Atomic             Coordinates (Angstroms)
 Number     Number       Type             X           Y           Z
 ---------------------------------------------------------------------
      1         40           0        0.657790   -0.125060   -0.071640
      2          8           0       -0.222850   -0.906240    1.477300
      3          8           0        0.103020    1.747480   -0.122990
      4          8           0       -0.268300   -0.978850   -1.597050
      5          8           0        2.592060   -0.436300   -0.082840
      6         14           0       -1.831190   -1.332440   -1.953600
      7         14           0       -1.115500    2.841720   -0.082790
      8         14           0       -1.723760   -1.152910    2.115170
      9         14           0        4.209410   -0.308180    0.131060
     10          8           0        5.013990    0.253470   -1.196630
     11          8           0        4.866540   -1.798110    0.439780
     12          8           0        4.394830    0.782960    1.354610
     13          8           0       -2.319240   -2.624000    1.696270
     14          8           0       -2.724220    0.065080    1.550860
     15          8           0       -1.597340   -1.019570    3.744390
     16          8           0       -2.001440   -1.559650   -3.577820
     17          8           0       -2.825090   -0.186760   -1.301450
     18          8           0       -2.344480   -2.714390   -1.182770
     19          8           0       -2.040460    2.439570   -1.430230
     20          8           0       -0.635650    4.400490   -0.299870
     21          8           0       -1.965510    2.760860    1.313830
     22          1           0        5.279810    1.139420    1.489590
     23          1           0        5.383710   -0.419230   -1.779640
     24          1           0        4.398450   -2.368760    1.059370
     25          1           0       -2.405770   -2.809510    0.743920
     26          1           0       -2.381370   -1.224230    4.265350
     27          1           0       -3.060340   -0.083060    0.645890
     28          1           0       -0.527310    4.927280    0.500150
     29          1           0       -2.269090    1.869320    1.585330
     30          1           0       -2.648540    3.126760   -1.730140
     31          1           0       -2.304520   -3.529520   -1.695620
     32          1           0       -1.271140   -1.263050   -4.132230
     33          1           0       -2.610260    0.754610   -1.489930
 ---------------------------------------------------------------------
                    Distance matrix (angstroms):
                    1          2          3          4          5
     1  Zr   0.000000
     2  O    1.945504   0.000000
     3  O    1.953666   3.115983   0.000000
     4  O    1.978251   3.075543   3.121475   0.000000
     5  O    1.959183   3.252476   3.311469   3.281593   0.000000
     6  Si   3.345827   3.813067   4.071635   1.641578   4.885484
     7  Si   3.456366   4.156670   1.638221   4.196128   4.948880
     8  Si   3.392697   1.649380   4.093745   3.991145   4.896027
     9  Si   3.562110   4.670649   4.599208   4.846241   1.636456
    10  O    4.515016   5.993273   5.244273   5.438891   2.753553
    11  O    4.557875   5.270083   5.964817   5.584483   2.702021
    12  O    4.101726   4.918477   4.640392   5.793190   2.608225
    13  O    4.270002   2.719099   5.318542   4.214123   5.663226
    14  O    3.755882   2.684348   3.691278   4.126823   5.584191
    15  O    4.521929   2.653632   5.050190   5.504452   5.704294
    16  O    4.628483   5.398571   5.225104   2.695283   5.880225
    17  O    3.694143   3.874372   3.701875   2.692947   5.558129
    18  O    4.117386   3.853141   5.198238   2.737563   5.546978
    19  O    3.962783   4.790812   2.604299   3.854086   5.616612
    20  O    4.712290   5.611606   2.759598   5.545712   5.818913
    21  O    4.138812   4.063399   2.714813   5.033803   5.739683
    22  H    5.039783   5.870617   5.456126   6.692977   3.489904
    23  H    5.033698   6.502181   5.943468   5.682581   3.266915
    24  H    4.506208   4.865187   6.065651   5.546798   2.881335
    25  H    4.154132   2.987545   5.273682   3.660633   5.594101
    26  H    5.408711   3.540275   5.853271   6.236426   6.653014
    27  H    3.786965   3.069237   3.734823   3.691708   5.710118
    28  H    5.220876   5.922624   3.301022   6.272775   6.232041
    29  H    3.910208   3.450000   2.925766   4.716225   5.632890
    30  H    4.925117   5.695325   3.472237   4.747556   6.547739
    31  H    4.796138   4.613282   6.009671   3.265245   6.012118
    32  H    4.637260   5.717784   5.198616   2.741094   5.657331
    33  H    3.669539   4.154829   3.196280   2.915671   5.519266
                    6          7          8          9         10
     6  Si   0.000000
     7  Si   4.629876   0.000000
     8  Si   4.074145   4.599791   0.000000
     9  Si   6.471767   6.190498   6.312905   0.000000
    10  O    7.067150   6.746134   7.638272   1.650927   0.000000
    11  O    7.127742   7.588538   6.830466   1.657413   2.628414
    12  O    7.360876   6.055440   6.462444   1.649861   2.678161
    13  O    3.902290   5.872660   1.641396   7.101843   8.391958
    14  O    3.877087   3.600906   1.674176   7.087339   8.213652
    15  O    5.711363   5.457933   1.639549   6.876087   8.351287
    16  O    1.648848   5.689656   5.714252   7.341432   7.627170
    17  O    1.650975   3.685040   3.717481   7.179904   7.852131
    18  O    1.663560   5.795749   3.701340   7.104187   7.934448
    19  O    3.813892   1.683113   5.057279   7.003473   7.389105
    20  O    6.085279   1.645340   6.152776   6.769925   7.065436
    21  O    5.239203   1.636949   4.002272   6.996255   7.829613
    22  H    8.278404   6.802220   7.395683   2.255417   2.841011
    23  H    7.274544   7.466781   8.137811   2.245459   0.963908
    24  H    6.997168   7.671850   6.330439   2.267925   3.513476
    25  H    3.128657   5.855309   2.256056   7.098793   8.258355
    26  H    6.244177   6.086107   2.249625   7.833893   9.311722
    27  H    3.135141   3.587160   2.256060   7.291433   8.288724
    28  H    6.848729   2.243958   6.403787   7.069850   7.445104
    29  H    4.792395   2.249212   3.116406   6.987658   7.962005
    30  H    4.538993   2.268308   5.827281   7.892677   8.200902
    31  H    2.262246   6.678899   4.528540   7.493002   8.253520
    32  H    2.250533   5.768130   6.264743   7.008841   7.100735
    33  H    2.275460   2.927521   4.173878   7.089783   7.646329
                   11         12         13         14         15
    11  O    0.000000
    12  O    2.778731   0.000000
    13  O    7.341410   7.536766   0.000000
    14  O    7.894657   7.157845   2.723289   0.000000
    15  O    7.301254   6.698228   2.700024   2.694049   0.000000
    16  O    7.960347   8.410051   5.389792   5.428215   7.353213
    17  O    8.049193   7.753854   3.896453   2.865182   5.259415
    18  O    7.447889   8.005501   2.880569   3.916936   5.263795
    19  O    8.316340   7.205043   5.957555   3.872032   6.240088
    20  O    8.321287   6.413233   7.494165   5.155881   6.830662
    21  O    8.259847   6.660907   5.410000   2.810526   4.509415
    22  H    3.146740   0.963573   8.482429   8.076042   7.552520
    23  H    2.663569   3.499524   8.733751   8.778685   8.922465
    24  H    0.963660   3.165520   6.752640   7.543048   6.706649
    25  H    7.348600   7.715371   0.974101   3.002637   3.586121
    26  H    8.215627   7.643174   2.926327   3.024619   0.963321
    27  H    8.112910   7.538689   2.847614   0.976674   3.552200
    28  H    8.621377   6.490990   7.852614   5.437959   6.858213
    29  H    8.104292   6.755830   4.494969   1.861079   3.668579
    30  H    9.243339   8.038541   6.702236   4.488271   6.947485
    31  H    7.679962   8.531276   3.510712   4.861783   6.032716
    32  H    7.672071   8.148300   6.076357   6.014390   7.887131
    33  H    8.132816   7.560655   4.653125   3.120071   5.618881
                   16         17         18         19         20
    16  O    0.000000
    17  O    2.783000   0.000000
    18  O    2.680926   2.575652   0.000000
    19  O    4.539540   2.744055   5.168846   0.000000
    20  O    6.937839   5.180702   7.370287   2.663909   0.000000
    21  O    6.526587   4.033241   6.029510   2.763822   2.657243
    22  H    9.272552   8.673988   8.951154   7.987621   6.987804
    23  H    7.685990   8.226002   8.083869   7.963236   7.851886
    24  H    7.944607   7.906587   7.114335   8.412949   8.544732
    25  H    4.516976   3.352340   1.930010   5.693261   7.497128
    26  H    7.859527   5.680008   5.648358   6.780802   7.451594
    27  H    4.597968   1.964238   3.283344   3.422586   5.184188
    28  H    7.802766   5.888884   8.033022   3.493521   0.963990
    29  H    6.203837   3.587492   5.355227   3.077509   3.553720
    30  H    5.078888   3.345797   5.874615   0.965369   2.778450
    31  H    2.741336   3.405937   0.963872   5.980819   8.223035
    32  H    0.963680   3.403891   3.458000   4.647801   6.867788
    33  H    3.175806   0.983796   3.492699   1.779698   4.313672
                   21         22         23         24         25
    21  O    0.000000
    22  H    7.426616   0.000000
    23  H    8.584496   3.623265   0.000000
    24  H    8.177881   3.642693   3.582092   0.000000
    25  H    5.616729   8.672843   8.529818   6.825773   0.000000
    26  H    4.976480   8.484419   9.873520   7.586449   3.861888
    27  H    3.119724   8.471386   8.791939   7.812102   2.805637
    28  H    2.724678   7.003536   8.289920   8.820886   7.965297
    29  H    0.980162   7.584709   8.667516   7.917957   4.755849
    30  H    3.141045   8.784925   8.780292   9.361740   6.435776
    31  H    6.981447   9.458680   8.293964   7.339424   2.545589
    32  H    6.806877   8.960562   7.108709   7.766567   5.239825
    33  H    3.507394   8.442679   8.084886   8.085567   4.211277
                   26         27         28         29         30
    26  H    0.000000
    27  H    3.855355   0.000000
    28  H    7.446835   5.616136   0.000000
    29  H    4.094529   2.306602   3.682734   0.000000
    30  H    7.412718   4.014728   3.565906   3.566157   0.000000
    31  H    6.391669   4.234622   8.916129   6.317702   6.665254
    32  H    8.470742   5.236797   7.767394   6.595312   5.190154
    33  H    6.090275   2.337946   5.070530   3.288799   2.384588
                   31         32         33
    31  H    0.000000
    32  H    3.484513   0.000000
    33  H    4.299948   3.584124   0.000000
 Stoichiometry    H12O16Si4Zr
 Framework group  C1[X(H12O16Si4Zr)]
 Deg. of freedom    93
 Full point group                 C1      NOp   1
 Largest Abelian subgroup         C1      NOp   1
 Largest concise Abelian subgroup C1      NOp   1
                         Standard orientation:                         
 ---------------------------------------------------------------------
 Center     Atomic      Atomic             Coordinates (Angstroms)
 Number     Number       Type             X           Y           Z
 ---------------------------------------------------------------------
      1         40           0        0.657751   -0.105890   -0.115226
      2          8           0       -0.168754   -0.904257    1.454641
      3          8           0        0.077478    1.759399   -0.143376
      4          8           0       -0.299705   -0.966097   -1.617491
      5          8           0        2.594821   -0.391722   -0.181989
      6         14           0       -1.867279   -1.338810   -1.931456
      7         14           0       -1.153541    2.837427   -0.064539
      8         14           0       -1.647800   -1.172922    2.133389
      9         14           0        4.215746   -0.243218   -0.013061
     10          8           0        4.975303    0.333825   -1.360523
     11          8           0        4.900598   -1.725543    0.271036
     12          8           0        4.421315    0.845729    1.209223
     13          8           0       -2.235665   -2.650128    1.725401
     14          8           0       -2.679473    0.033935    1.602340
     15          8           0       -1.477351   -1.043957    3.758946
     16          8           0       -2.080177   -1.562228   -3.551166
     17          8           0       -2.857244   -0.208665   -1.247013
     18          8           0       -2.340691   -2.730203   -1.152139
     19          8           0       -2.110729    2.428176   -1.387103
     20          8           0       -0.700276    4.403140   -0.288673
     21          8           0       -1.962813    2.740280    1.355054
     22          1           0        5.305036    1.213250    1.320751
     23          1           0        5.337187   -0.331816   -1.956410
     24          1           0        4.457572   -2.304561    0.901200
     25          1           0       -2.346528   -2.833236    0.775110
     26          1           0       -2.243694   -1.260794    4.300876
     27          1           0       -3.038959   -0.115251    0.706569
     28          1           0       -0.576331    4.928345    0.510123
     29          1           0       -2.247030    1.843842    1.631346
     30          1           0       -2.735879    3.108445   -1.667030
     31          1           0       -2.304585   -3.542840   -1.669215
     32          1           0       -1.369673   -1.254040   -4.124651
     33          1           0       -2.660046    0.736128   -1.437625
 ---------------------------------------------------------------------
 Rotational constants (GHZ):           0.2122217           0.1339499           0.1241426
 General basis read from cards:  (5D, 7F)
 ======================================================================================================
                                       Pseudopotential Parameters
 ======================================================================================================
  Center     Atomic      Valence      Angular      Power
  Number     Number     Electrons     Momentum     of R      Exponent        Coefficient   SO-Coeffient
 ======================================================================================================
    1         40           12
                                      G and up 
                                                     2        1.0000000        0.00000000    0.00000000
                                      S - G
                                                     2        8.6365280      150.24299400    0.00000000
                                                     2        3.7176390       18.78003600    0.00000000
                                      P - G
                                                     2        7.6267280       33.19279100    0.00000000
                                                     2        7.4532070       66.38903900    0.00000000
                                                     2        3.3583890        4.62072600    0.00000000
                                                     2        3.2297380        9.26027000    0.00000000
                                      D - G
                                                     2        5.9380860       13.99338300    0.00000000
                                                     2        5.8255440       20.99588200    0.00000000
                                                     2        2.2050190        2.28516600    0.00000000
                                                     2        2.2062920        3.44126000    0.00000000
                                      F - G
                                                     2        4.8002150       -5.23932000    0.00000000
                                                     2        4.7989920       -6.98742400    0.00000000
    2          8
                                   No pseudopotential on this center.
    3          8
                                   No pseudopotential on this center.
    4          8
                                   No pseudopotential on this center.
    5          8
                                   No pseudopotential on this center.
    6         14
                                   No pseudopotential on this center.
    7         14
                                   No pseudopotential on this center.
    8         14
                                   No pseudopotential on this center.
    9         14
                                   No pseudopotential on this center.
   10          8
                                   No pseudopotential on this center.
   11          8
                                   No pseudopotential on this center.
   12          8
                                   No pseudopotential on this center.
   13          8
                                   No pseudopotential on this center.
   14          8
                                   No pseudopotential on this center.
   15          8
                                   No pseudopotential on this center.
   16          8
                                   No pseudopotential on this center.
   17          8
                                   No pseudopotential on this center.
   18          8
                                   No pseudopotential on this center.
   19          8
                                   No pseudopotential on this center.
   20          8
                                   No pseudopotential on this center.
   21          8
                                   No pseudopotential on this center.
   22          1
                                   No pseudopotential on this center.
   23          1
                                   No pseudopotential on this center.
   24          1
                                   No pseudopotential on this center.
   25          1
                                   No pseudopotential on this center.
   26          1
                                   No pseudopotential on this center.
   27          1
                                   No pseudopotential on this center.
   28          1
                                   No pseudopotential on this center.
   29          1
                                   No pseudopotential on this center.
   30          1
                                   No pseudopotential on this center.
   31          1
                                   No pseudopotential on this center.
   32          1
                                   No pseudopotential on this center.
   33          1
                                   No pseudopotential on this center.
 ======================================================================================================
 There are   570 symmetry adapted cartesian basis functions of A   symmetry.
 There are   524 symmetry adapted basis functions of A   symmetry.
   524 basis functions,  1074 primitive gaussians,   570 cartesian basis functions
   104 alpha electrons      104 beta electrons
       nuclear repulsion energy      2832.9615529677 Hartrees.
 NAtoms=   33 NActive=   33 NUniq=   33 SFac= 1.00D+00 NAtFMM=   60 NAOKFM=F Big=F
 Integral buffers will be    131072 words long.
 Raffenetti 2 integral format.
 Two-electron integral symmetry is turned on.
 Nuclear repulsion after empirical dispersion term =     2832.9207546661 Hartrees.
 One-electron integrals computed using PRISM.
 PrsmSu:  requested number of processors reduced to:   4 ShMem   1 Linda.
   1 Symmetry operations used in ECPInt.
 ECPInt:  NShTT=   13203 NPrTT=   78401 LenC2=   11527 LenP2D=   44641.
 LDataN:  DoStor=T MaxTD1= 8 Len=  415
 Number of processors reduced to  13 by ecpmxn.
 NBasis=   524 RedAO= T EigKep=  3.20D-05  NBF=   524
 NBsUse=   524 1.00D-06 EigRej= -1.00D+00 NBFU=   524
 Defaulting to unpruned grid for atomic number  40.
 ExpMin= 1.01D-02 ExpMax= 1.61D+04 ExpMxC= 2.43D+03 IAcc=3 IRadAn=         5 AccDes= 0.00D+00
 Harris functional with IExCor=  402 and IRadAn=       5 diagonalized for initial guess.
 HarFok:  IExCor=  402 AccDes= 0.00D+00 IRadAn=         5 IDoV= 1 UseB2=F ITyADJ=14
 ICtDFT=  3500011 ScaDFX=  1.000000  1.000000  1.000000  1.000000
 Defaulting to unpruned grid for atomic number  40.
 FoFCou: FMM=F IPFlag=           0 FMFlag=      100000 FMFlg1=           0
         NFxFlg=           0 DoJE=T BraDBF=F KetDBF=T FulRan=T
         wScrn=  0.000000 ICntrl=       500 IOpCl=  0 I1Cent=   200000004 NGrid=           0
         NMat0=    1 NMatS0=      1 NMatT0=    0 NMatD0=    1 NMtDS0=    0 NMtDT0=    0
 Petite list used in FoFCou.
 Requested convergence on RMS density matrix=1.00D-08 within 128 cycles.
 Requested convergence on MAX density matrix=1.00D-06.
 Requested convergence on             energy=1.00D-06.
 No special actions if energy rises.
 Defaulting to unpruned grid for atomic number  40.
 Defaulting to unpruned grid for atomic number  40.
 Defaulting to unpruned grid for atomic number  40.
 Defaulting to unpruned grid for atomic number  40.
 Defaulting to unpruned grid for atomic number  40.
 Defaulting to unpruned grid for atomic number  40.
 Defaulting to unpruned grid for atomic number  40.
 Defaulting to unpruned grid for atomic number  40.
 Defaulting to unpruned grid for atomic number  40.
 Defaulting to unpruned grid for atomic number  40.
 Defaulting to unpruned grid for atomic number  40.
 Defaulting to unpruned grid for atomic number  40.
 Defaulting to unpruned grid for atomic number  40.
 Defaulting to unpruned grid for atomic number  40.
 Defaulting to unpruned grid for atomic number  40.
 Defaulting to unpruned grid for atomic number  40.
 SCF Done:  E(RB3LYP) =  -2416.94676156     A.U. after   14 cycles
            NFock= 14  Conv=0.27D-08     -V/T= 2.0185

 **********************************************************************

            Population analysis using the SCF Density.

 **********************************************************************

 Orbital symmetries:
       Occupied  (A) (A) (A) (A) (A) (A) (A) (A) (A) (A) (A) (A)
                 (A) (A) (A) (A) (A) (A) (A) (A) (A) (A) (A) (A)
                 (A) (A) (A) (A) (A) (A) (A) (A) (A) (A) (A) (A)
                 (A) (A) (A) (A) (A) (A) (A) (A) (A) (A) (A) (A)
                 (A) (A) (A) (A) (A) (A) (A) (A) (A) (A) (A) (A)
                 (A) (A) (A) (A) (A) (A) (A) (A) (A) (A) (A) (A)
                 (A) (A) (A) (A) (A) (A) (A) (A) (A) (A) (A) (A)
                 (A) (A) (A) (A) (A) (A) (A) (A) (A) (A) (A) (A)
                 (A) (A) (A) (A) (A) (A) (A) (A)
       Virtual   (A) (A) (A) (A) (A) (A) (A) (A) (A) (A) (A) (A)
                 (A) (A) (A) (A) (A) (A) (A) (A) (A) (A) (A) (A)
                 (A) (A) (A) (A) (A) (A) (A) (A) (A) (A) (A) (A)
                 (A) (A) (A) (A) (A) (A) (A) (A) (A) (A) (A) (A)
                 (A) (A) (A) (A) (A) (A) (A) (A) (A) (A) (A) (A)
                 (A) (A) (A) (A) (A) (A) (A) (A) (A) (A) (A) (A)
                 (A) (A) (A) (A) (A) (A) (A) (A) (A) (A) (A) (A)
                 (A) (A) (A) (A) (A) (A) (A) (A) (A) (A) (A) (A)
                 (A) (A) (A) (A) (A) (A) (A) (A) (A) (A) (A) (A)
                 (A) (A) (A) (A) (A) (A) (A) (A) (A) (A) (A) (A)
                 (A) (A) (A) (A) (A) (A) (A) (A) (A) (A) (A) (A)
                 (A) (A) (A) (A) (A) (A) (A) (A) (A) (A) (A) (A)
                 (A) (A) (A) (A) (A) (A) (A) (A) (A) (A) (A) (A)
                 (A) (A) (A) (A) (A) (A) (A) (A) (A) (A) (A) (A)
                 (A) (A) (A) (A) (A) (A) (A) (A) (A) (A) (A) (A)
                 (A) (A) (A) (A) (A) (A) (A) (A) (A) (A) (A) (A)
                 (A) (A) (A) (A) (A) (A) (A) (A) (A) (A) (A) (A)
                 (A) (A) (A) (A) (A) (A) (A) (A) (A) (A) (A) (A)
                 (A) (A) (A) (A) (A) (A) (A) (A) (A) (A) (A) (A)
                 (A) (A) (A) (A) (A) (A) (A) (A) (A) (A) (A) (A)
                 (A) (A) (A) (A) (A) (A) (A) (A) (A) (A) (A) (A)
                 (A) (A) (A) (A) (A) (A) (A) (A) (A) (A) (A) (A)
                 (A) (A) (A) (A) (A) (A) (A) (A) (A) (A) (A) (A)
                 (A) (A) (A) (A) (A) (A) (A) (A) (A) (A) (A) (A)
                 (A) (A) (A) (A) (A) (A) (A) (A) (A) (A) (A) (A)
                 (A) (A) (A) (A) (A) (A) (A) (A) (A) (A) (A) (A)
                 (A) (A) (A) (A) (A) (A) (A) (A) (A) (A) (A) (A)
                 (A) (A) (A) (A) (A) (A) (A) (A) (A) (A) (A) (A)
                 (A) (A) (A) (A) (A) (A) (A) (A) (A) (A) (A) (A)
                 (A) (A) (A) (A) (A) (A) (A) (A) (A) (A) (A) (A)
                 (A) (A) (A) (A) (A) (A) (A) (A) (A) (A) (A) (A)
                 (A) (A) (A) (A) (A) (A) (A) (A) (A) (A) (A) (A)
                 (A) (A) (A) (A) (A) (A) (A) (A) (A) (A) (A) (A)
                 (A) (A) (A) (A) (A) (A) (A) (A) (A) (A) (A) (A)
                 (A) (A) (A) (A) (A) (A) (A) (A) (A) (A) (A) (A)
 The electronic state is 1-A.
 Alpha  occ. eigenvalues --  -66.22826 -66.21761 -66.21483 -66.21015 -19.18611
 Alpha  occ. eigenvalues --  -19.18362 -19.17817 -19.17040 -19.16744 -19.16557
 Alpha  occ. eigenvalues --  -19.16419 -19.16200 -19.16170 -19.16031 -19.15951
 Alpha  occ. eigenvalues --  -19.15509 -19.15329 -19.15232 -19.14888 -19.14701
 Alpha  occ. eigenvalues --   -5.36886  -5.35842  -5.35559  -5.35074  -3.72870
 Alpha  occ. eigenvalues --   -3.72844  -3.72797  -3.71833  -3.71786  -3.71751
 Alpha  occ. eigenvalues --   -3.71528  -3.71519  -3.71480  -3.71039  -3.71030
 Alpha  occ. eigenvalues --   -3.71005  -2.13364  -1.29609  -1.29523  -1.29365
 Alpha  occ. eigenvalues --   -1.05701  -1.04786  -1.04146  -1.03475  -1.02589
 Alpha  occ. eigenvalues --   -1.02183  -1.01480  -1.00920  -1.00749  -1.00643
 Alpha  occ. eigenvalues --   -0.99821  -0.99298  -0.97380  -0.96294  -0.95722
 Alpha  occ. eigenvalues --   -0.95389  -0.61011  -0.59166  -0.58969  -0.58464
 Alpha  occ. eigenvalues --   -0.55565  -0.54541  -0.53872  -0.53038  -0.52970
 Alpha  occ. eigenvalues --   -0.52484  -0.52124  -0.51718  -0.48800  -0.47595
 Alpha  occ. eigenvalues --   -0.47211  -0.46706  -0.43388  -0.42643  -0.41879
 Alpha  occ. eigenvalues --   -0.41422  -0.41103  -0.40525  -0.39857  -0.39296
 Alpha  occ. eigenvalues --   -0.38835  -0.38704  -0.38629  -0.38125  -0.38004
 Alpha  occ. eigenvalues --   -0.37623  -0.37520  -0.37124  -0.36489  -0.36438
 Alpha  occ. eigenvalues --   -0.36144  -0.35660  -0.35415  -0.35072  -0.34924
 Alpha  occ. eigenvalues --   -0.34611  -0.33982  -0.33718  -0.33434  -0.33284
 Alpha  occ. eigenvalues --   -0.32786  -0.32185  -0.32044  -0.31299
 Alpha virt. eigenvalues --   -0.04349  -0.03147  -0.03033  -0.02762  -0.02104
 Alpha virt. eigenvalues --   -0.01166  -0.00574  -0.00212   0.00119   0.00337
 Alpha virt. eigenvalues --    0.00778   0.00943   0.01014   0.01941   0.02328
 Alpha virt. eigenvalues --    0.03165   0.03336   0.03810   0.03949   0.04081
 Alpha virt. eigenvalues --    0.04210   0.04860   0.05631   0.05843   0.06057
 Alpha virt. eigenvalues --    0.06479   0.07104   0.07429   0.07722   0.08656
 Alpha virt. eigenvalues --    0.08751   0.08971   0.09189   0.09661   0.09996
 Alpha virt. eigenvalues --    0.10441   0.10629   0.10793   0.11134   0.11737
 Alpha virt. eigenvalues --    0.11815   0.12508   0.13205   0.13336   0.13957
 Alpha virt. eigenvalues --    0.14055   0.14200   0.14859   0.15245   0.15440
 Alpha virt. eigenvalues --    0.15511   0.15780   0.16181   0.16783   0.16863
 Alpha virt. eigenvalues --    0.17306   0.17521   0.17602   0.17918   0.18273
 Alpha virt. eigenvalues --    0.18543   0.18888   0.19173   0.19521   0.19710
 Alpha virt. eigenvalues --    0.20068   0.20561   0.20680   0.21049   0.21337
 Alpha virt. eigenvalues --    0.21599   0.21743   0.22211   0.22613   0.22857
 Alpha virt. eigenvalues --    0.23359   0.23825   0.24036   0.24123   0.24551
 Alpha virt. eigenvalues --    0.25115   0.25264   0.25555   0.25779   0.26182
 Alpha virt. eigenvalues --    0.26323   0.26749   0.26919   0.27215   0.27439
 Alpha virt. eigenvalues --    0.27887   0.28046   0.28460   0.28785   0.29028
 Alpha virt. eigenvalues --    0.29416   0.29684   0.29712   0.30274   0.30627
 Alpha virt. eigenvalues --    0.30981   0.31155   0.31350   0.31582   0.32211
 Alpha virt. eigenvalues --    0.32535   0.32906   0.33441   0.33456   0.34041
 Alpha virt. eigenvalues --    0.34088   0.34940   0.35379   0.35839   0.36322
 Alpha virt. eigenvalues --    0.36819   0.37640   0.37920   0.38366   0.39054
 Alpha virt. eigenvalues --    0.39181   0.39732   0.40291   0.41152   0.41571
 Alpha virt. eigenvalues --    0.42232   0.43400   0.43717   0.44232   0.44483
 Alpha virt. eigenvalues --    0.45170   0.45985   0.46328   0.46785   0.47316
 Alpha virt. eigenvalues --    0.47938   0.48356   0.48898   0.49328   0.49803
 Alpha virt. eigenvalues --    0.49886   0.50557   0.51300   0.51369   0.53209
 Alpha virt. eigenvalues --    0.53896   0.54490   0.55398   0.57043   0.57147
 Alpha virt. eigenvalues --    0.58118   0.58752   0.59135   0.59644   0.60272
 Alpha virt. eigenvalues --    0.61150   0.61723   0.62048   0.64322   0.65868
 Alpha virt. eigenvalues --    0.66617   0.67591   0.68199   0.69237   0.69529
 Alpha virt. eigenvalues --    0.70252   0.70808   0.72706   0.74283   0.75220
 Alpha virt. eigenvalues --    0.75536   0.77416   0.78610   0.79037   0.80620
 Alpha virt. eigenvalues --    0.81014   0.81519   0.82735   0.84021   0.85548
 Alpha virt. eigenvalues --    0.86946   0.87611   0.90196   0.90645   0.91090
 Alpha virt. eigenvalues --    0.93849   0.95698   0.96421   0.96865   0.97395
 Alpha virt. eigenvalues --    0.98325   0.98832   0.99367   0.99861   1.00053
 Alpha virt. eigenvalues --    1.00604   1.01284   1.01961   1.03256   1.04029
 Alpha virt. eigenvalues --    1.04284   1.05547   1.06376   1.06730   1.07800
 Alpha virt. eigenvalues --    1.09894   1.12374   1.15259   1.16146   1.16423
 Alpha virt. eigenvalues --    1.18829   1.18957   1.20026   1.20656   1.20815
 Alpha virt. eigenvalues --    1.21473   1.21690   1.22216   1.22501   1.22970
 Alpha virt. eigenvalues --    1.23551   1.24068   1.24208   1.25275   1.25567
 Alpha virt. eigenvalues --    1.25824   1.27058   1.27498   1.28050   1.28552
 Alpha virt. eigenvalues --    1.28961   1.29717   1.30160   1.31176   1.31398
 Alpha virt. eigenvalues --    1.32265   1.32502   1.32979   1.33543   1.34507
 Alpha virt. eigenvalues --    1.35049   1.36195   1.36540   1.36904   1.38038
 Alpha virt. eigenvalues --    1.39039   1.39800   1.40234   1.41341   1.41553
 Alpha virt. eigenvalues --    1.42594   1.43230   1.44271   1.44844   1.46359
 Alpha virt. eigenvalues --    1.46988   1.49140   1.51195   1.51737   1.52676
 Alpha virt. eigenvalues --    1.56829   1.57539   1.58196   1.59320   1.59492
 Alpha virt. eigenvalues --    1.60092   1.61100   1.61922   1.62637   1.62931
 Alpha virt. eigenvalues --    1.63286   1.63702   1.65057   1.65449   1.66258
 Alpha virt. eigenvalues --    1.67498   1.68243   1.69259   1.69364   1.69955
 Alpha virt. eigenvalues --    1.71127   1.71665   1.72104   1.72775   1.72919
 Alpha virt. eigenvalues --    1.74165   1.75188   1.75566   1.76087   1.76336
 Alpha virt. eigenvalues --    1.77016   1.77303   1.78527   1.79071   1.79884
 Alpha virt. eigenvalues --    1.80365   1.81367   1.81936   1.82691   1.83083
 Alpha virt. eigenvalues --    1.83349   1.84826   1.84987   1.85772   1.86409
 Alpha virt. eigenvalues --    1.87274   1.88231   1.88841   1.89596   1.90505
 Alpha virt. eigenvalues --    1.91161   1.91584   1.92600   1.92643   1.94001
 Alpha virt. eigenvalues --    1.94528   1.95326   1.96038   1.97070   1.98318
 Alpha virt. eigenvalues --    1.98467   2.00137   2.01061   2.03030   2.03916
 Alpha virt. eigenvalues --    2.05868   2.06534   2.07789   2.09890   2.10378
 Alpha virt. eigenvalues --    2.11631   2.12913   2.14407   2.15981   2.16411
 Alpha virt. eigenvalues --    2.17580   2.18912   2.19063   2.20845   2.27020
 Alpha virt. eigenvalues --    2.32057   2.33330   2.35765   2.39482   2.40486
 Alpha virt. eigenvalues --    2.41176   2.41483   2.41602   2.42816   2.43718
 Alpha virt. eigenvalues --    2.44021   2.45412   2.46649   2.47678   2.49085
 Alpha virt. eigenvalues --    2.50214   2.50331   2.51704   2.52542   2.53197
 Alpha virt. eigenvalues --    2.55360   2.58642   2.59040   2.60037   2.60614
 Alpha virt. eigenvalues --    2.61151   2.61809   2.62174   2.62644   2.62789
 Alpha virt. eigenvalues --    2.63231   2.64031   2.64741   2.65031   2.65911
 Alpha virt. eigenvalues --    2.66364   2.66611   2.67280   2.67596   2.69363
 Alpha virt. eigenvalues --    2.69809   2.70263   2.71214   2.71702   2.72331
 Alpha virt. eigenvalues --    2.72909   2.74450   2.75538   2.76754   2.77482
 Alpha virt. eigenvalues --    2.78960   2.80612   2.81366   2.82419   2.83453
 Alpha virt. eigenvalues --    2.83871   2.84686   2.86718   2.87782   2.88137
 Alpha virt. eigenvalues --    3.15164   3.20990   3.36114   3.41180   3.46895
 Alpha virt. eigenvalues --    3.47805   3.48583   3.48658   3.51044   3.51170
 Alpha virt. eigenvalues --    3.52852   3.53591   3.60289   3.61076   3.62067
 Alpha virt. eigenvalues --    3.66154   4.38337   4.61396   7.94680  31.29557
          Condensed to atoms (all electrons):
               1          2          3          4          5          6
     1  Zr  15.030641  -0.066398  -0.002585  -0.119055  -0.181694  -0.661143
     2  O   -0.066398   9.036258   0.018827  -0.041861  -0.055089   0.072757
     3  O   -0.002585   0.018827   8.826031   0.018485  -0.047876   0.000151
     4  O   -0.119055  -0.041861   0.018485   8.815253  -0.062870  -0.689641
     5  O   -0.181694  -0.055089  -0.047876  -0.062870   9.398140  -0.010469
     6  Si  -0.661143   0.072757   0.000151  -0.689641  -0.010469  14.078797
     7  Si  -0.593396  -0.032200  -0.865888  -0.011089  -0.035241   0.079551
     8  Si  -0.681557  -0.995736  -0.017806   0.066617  -0.016415   0.017051
     9  Si  -0.286344  -0.039013  -0.027470  -0.028990  -1.154059   0.039281
    10  O   -0.027121   0.001066  -0.001208   0.000371   0.125859  -0.001507
    11  O   -0.074797   0.002591   0.003136   0.001772   0.313251  -0.000457
    12  O    0.050383   0.000808   0.003997   0.001749   0.121625  -0.003152
    13  O   -0.011879   0.180591   0.001506  -0.015004  -0.000662   0.028495
    14  O    0.004210   0.255570  -0.018476  -0.008523   0.001486   0.023369
    15  O   -0.086924   0.291238  -0.000569   0.001171   0.000636   0.001732
    16  O   -0.121799   0.004725  -0.000656   0.349437   0.003252  -0.431787
    17  O   -0.078346  -0.038889   0.010194   0.212614   0.001547  -0.450910
    18  O   -0.023075  -0.015220   0.003804   0.196335  -0.000658  -0.454845
    19  O    0.009750   0.008414   0.268471   0.011361   0.002264  -0.009232
    20  O   -0.145906  -0.000587   0.163145  -0.000756   0.001600   0.009612
    21  O    0.036930   0.009178   0.144914   0.003684   0.000121  -0.012415
    22  H   -0.009417  -0.000010   0.000003  -0.000006   0.006680   0.000090
    23  H   -0.007915  -0.000011  -0.000006  -0.000044  -0.025184   0.000124
    24  H   -0.005413  -0.000123  -0.000012   0.000008  -0.004121   0.000140
    25  H    0.014673  -0.019487  -0.000105  -0.000486   0.000014   0.003751
    26  H    0.006877   0.001011   0.000013  -0.000011  -0.000003  -0.000176
    27  H   -0.001954  -0.018351   0.000821  -0.001803   0.000017   0.011051
    28  H    0.004892  -0.000011  -0.018433  -0.000013  -0.000014  -0.000266
    29  H    0.002849  -0.006815  -0.020157  -0.000138  -0.000074   0.000277
    30  H    0.000572  -0.000012   0.000008  -0.000476  -0.000009  -0.000593
    31  H    0.000024   0.000180  -0.000020  -0.018501  -0.000012   0.064117
    32  H    0.002297  -0.000025   0.000043   0.010523   0.000005   0.022240
    33  H   -0.014762   0.000993  -0.010143  -0.009625  -0.000100   0.052393
               7          8          9         10         11         12
     1  Zr  -0.593396  -0.681557  -0.286344  -0.027121  -0.074797   0.050383
     2  O   -0.032200  -0.995736  -0.039013   0.001066   0.002591   0.000808
     3  O   -0.865888  -0.017806  -0.027470  -0.001208   0.003136   0.003997
     4  O   -0.011089   0.066617  -0.028990   0.000371   0.001772   0.001749
     5  O   -0.035241  -0.016415  -1.154059   0.125859   0.313251   0.121625
     6  Si   0.079551   0.017051   0.039281  -0.001507  -0.000457  -0.003152
     7  Si  13.780833   0.184129   0.016585   0.000366  -0.001118   0.002807
     8  Si   0.184129  13.859291   0.029344  -0.001258   0.001329  -0.001701
     9  Si   0.016585   0.029344  14.052158  -0.046361  -0.166841  -0.161511
    10  O    0.000366  -0.001258  -0.046361   8.517958   0.014323   0.027471
    11  O   -0.001118   0.001329  -0.166841   0.014323   8.514301  -0.051395
    12  O    0.002807  -0.001701  -0.161511   0.027471  -0.051395   8.585447
    13  O    0.006453  -0.100624  -0.000047   0.000000   0.000017  -0.000004
    14  O    0.007295  -0.362115  -0.001685  -0.000002   0.000003   0.000007
    15  O   -0.002022  -0.304269  -0.000420  -0.000001  -0.000017   0.000006
    16  O    0.003784  -0.011425  -0.001088   0.000004  -0.000008  -0.000002
    17  O   -0.002276   0.095656   0.002469   0.000002   0.000004  -0.000005
    18  O   -0.001093   0.078540   0.003760   0.000001   0.000007   0.000001
    19  O   -0.421157  -0.016421   0.000936   0.000005  -0.000001  -0.000038
    20  O   -0.109848   0.009611   0.002856   0.000014  -0.000003  -0.000032
    21  O    0.026451  -0.038575  -0.001407  -0.000001   0.000001   0.000008
    22  H   -0.000080   0.000104   0.045948  -0.005975  -0.004996   0.219704
    23  H    0.000044   0.000059   0.080856   0.229202  -0.005866   0.005794
    24  H    0.000036   0.000054   0.034180   0.007319   0.243843  -0.007131
    25  H   -0.000409   0.057203  -0.000198   0.000000  -0.000000  -0.000000
    26  H   -0.000387   0.046404  -0.000046  -0.000000   0.000000  -0.000000
    27  H    0.002079   0.069121   0.000023   0.000000  -0.000000   0.000000
    28  H    0.056803  -0.000011  -0.000147  -0.000000  -0.000000  -0.000002
    29  H    0.048255   0.022207  -0.000058   0.000000   0.000000  -0.000001
    30  H    0.040720   0.000091   0.000014   0.000000   0.000000   0.000000
    31  H    0.000153  -0.002203  -0.000050   0.000000  -0.000000   0.000000
    32  H   -0.000667   0.000080   0.000032  -0.000000   0.000000  -0.000000
    33  H    0.020610  -0.000080   0.000079  -0.000000   0.000000   0.000000
              13         14         15         16         17         18
     1  Zr  -0.011879   0.004210  -0.086924  -0.121799  -0.078346  -0.023075
     2  O    0.180591   0.255570   0.291238   0.004725  -0.038889  -0.015220
     3  O    0.001506  -0.018476  -0.000569  -0.000656   0.010194   0.003804
     4  O   -0.015004  -0.008523   0.001171   0.349437   0.212614   0.196335
     5  O   -0.000662   0.001486   0.000636   0.003252   0.001547  -0.000658
     6  Si   0.028495   0.023369   0.001732  -0.431787  -0.450910  -0.454845
     7  Si   0.006453   0.007295  -0.002022   0.003784  -0.002276  -0.001093
     8  Si  -0.100624  -0.362115  -0.304269  -0.011425   0.095656   0.078540
     9  Si  -0.000047  -0.001685  -0.000420  -0.001088   0.002469   0.003760
    10  O    0.000000  -0.000002  -0.000001   0.000004   0.000002   0.000001
    11  O    0.000017   0.000003  -0.000017  -0.000008   0.000004   0.000007
    12  O   -0.000004   0.000007   0.000006  -0.000002  -0.000005   0.000001
    13  O    8.625132   0.086658  -0.091080   0.003807  -0.030871  -0.046085
    14  O    0.086658   8.665161   0.055835   0.003624  -0.035730  -0.026914
    15  O   -0.091080   0.055835   8.780836  -0.000177   0.003637   0.001704
    16  O    0.003807   0.003624  -0.000177   8.902687  -0.092311  -0.113829
    17  O   -0.030871  -0.035730   0.003637  -0.092311   8.934250   0.227960
    18  O   -0.046085  -0.026914   0.001704  -0.113829   0.227960   9.011660
    19  O    0.000144  -0.000775   0.000149  -0.001379  -0.029443   0.000116
    20  O    0.000008  -0.000298   0.000036   0.000067  -0.000935   0.000014
    21  O   -0.000247   0.015243  -0.000672  -0.000211  -0.005597   0.000480
    22  H   -0.000000  -0.000000   0.000000   0.000000   0.000000  -0.000000
    23  H    0.000000   0.000000   0.000000  -0.000000   0.000000   0.000000
    24  H   -0.000000   0.000000   0.000002   0.000000  -0.000000  -0.000000
    25  H    0.219231  -0.011817   0.008903  -0.000068   0.000610   0.015135
    26  H   -0.004964  -0.010154   0.216506   0.000000  -0.000002   0.000006
    27  H   -0.009494   0.220575   0.004666   0.000174   0.018099  -0.000173
    28  H    0.000000  -0.000006  -0.000001  -0.000000   0.000004  -0.000000
    29  H    0.000813   0.017693  -0.002578  -0.000004  -0.000407   0.000006
    30  H    0.000001   0.000002   0.000000   0.000111  -0.000431  -0.000007
    31  H    0.002362   0.000173  -0.000019   0.003598  -0.000744   0.218013
    32  H   -0.000008  -0.000006   0.000000   0.233662  -0.003614   0.003872
    33  H    0.000223   0.002110  -0.000035  -0.000024   0.231050   0.002080
              19         20         21         22         23         24
     1  Zr   0.009750  -0.145906   0.036930  -0.009417  -0.007915  -0.005413
     2  O    0.008414  -0.000587   0.009178  -0.000010  -0.000011  -0.000123
     3  O    0.268471   0.163145   0.144914   0.000003  -0.000006  -0.000012
     4  O    0.011361  -0.000756   0.003684  -0.000006  -0.000044   0.000008
     5  O    0.002264   0.001600   0.000121   0.006680  -0.025184  -0.004121
     6  Si  -0.009232   0.009612  -0.012415   0.000090   0.000124   0.000140
     7  Si  -0.421157  -0.109848   0.026451  -0.000080   0.000044   0.000036
     8  Si  -0.016421   0.009611  -0.038575   0.000104   0.000059   0.000054
     9  Si   0.000936   0.002856  -0.001407   0.045948   0.080856   0.034180
    10  O    0.000005   0.000014  -0.000001  -0.005975   0.229202   0.007319
    11  O   -0.000001  -0.000003   0.000001  -0.004996  -0.005866   0.243843
    12  O   -0.000038  -0.000032   0.000008   0.219704   0.005794  -0.007131
    13  O    0.000144   0.000008  -0.000247  -0.000000   0.000000  -0.000000
    14  O   -0.000775  -0.000298   0.015243  -0.000000   0.000000   0.000000
    15  O    0.000149   0.000036  -0.000672   0.000000   0.000000   0.000002
    16  O   -0.001379   0.000067  -0.000211   0.000000  -0.000000   0.000000
    17  O   -0.029443  -0.000935  -0.005597   0.000000   0.000000  -0.000000
    18  O    0.000116   0.000014   0.000480  -0.000000   0.000000  -0.000000
    19  O    8.875845   0.032458   0.022681  -0.000000   0.000000  -0.000000
    20  O    0.032458   8.659284  -0.050620   0.000000   0.000000  -0.000000
    21  O    0.022681  -0.050620   8.485068  -0.000000   0.000000   0.000000
    22  H   -0.000000   0.000000  -0.000000   0.362286   0.000058   0.000122
    23  H    0.000000   0.000000   0.000000   0.000058   0.350863   0.000016
    24  H   -0.000000  -0.000000   0.000000   0.000122   0.000016   0.365702
    25  H   -0.000022   0.000000  -0.000018   0.000000   0.000000   0.000000
    26  H    0.000001  -0.000000   0.000042  -0.000000  -0.000000  -0.000000
    27  H    0.000056   0.000193  -0.003942  -0.000000  -0.000000   0.000000
    28  H    0.004625   0.229606  -0.002027  -0.000000   0.000000   0.000000
    29  H   -0.008583   0.007685   0.206528   0.000000  -0.000000  -0.000000
    30  H    0.223978  -0.001480  -0.007153   0.000000  -0.000000  -0.000000
    31  H    0.000004  -0.000000  -0.000000  -0.000000   0.000000   0.000000
    32  H    0.000098  -0.000000   0.000001  -0.000000  -0.000000  -0.000000
    33  H    0.014616  -0.000084   0.001492  -0.000000  -0.000000  -0.000000
              25         26         27         28         29         30
     1  Zr   0.014673   0.006877  -0.001954   0.004892   0.002849   0.000572
     2  O   -0.019487   0.001011  -0.018351  -0.000011  -0.006815  -0.000012
     3  O   -0.000105   0.000013   0.000821  -0.018433  -0.020157   0.000008
     4  O   -0.000486  -0.000011  -0.001803  -0.000013  -0.000138  -0.000476
     5  O    0.000014  -0.000003   0.000017  -0.000014  -0.000074  -0.000009
     6  Si   0.003751  -0.000176   0.011051  -0.000266   0.000277  -0.000593
     7  Si  -0.000409  -0.000387   0.002079   0.056803   0.048255   0.040720
     8  Si   0.057203   0.046404   0.069121  -0.000011   0.022207   0.000091
     9  Si  -0.000198  -0.000046   0.000023  -0.000147  -0.000058   0.000014
    10  O    0.000000  -0.000000   0.000000  -0.000000   0.000000   0.000000
    11  O   -0.000000   0.000000  -0.000000  -0.000000   0.000000   0.000000
    12  O   -0.000000  -0.000000   0.000000  -0.000002  -0.000001   0.000000
    13  O    0.219231  -0.004964  -0.009494   0.000000   0.000813   0.000001
    14  O   -0.011817  -0.010154   0.220575  -0.000006   0.017693   0.000002
    15  O    0.008903   0.216506   0.004666  -0.000001  -0.002578   0.000000
    16  O   -0.000068   0.000000   0.000174  -0.000000  -0.000004   0.000111
    17  O    0.000610  -0.000002   0.018099   0.000004  -0.000407  -0.000431
    18  O    0.015135   0.000006  -0.000173  -0.000000   0.000006  -0.000007
    19  O   -0.000022   0.000001   0.000056   0.004625  -0.008583   0.223978
    20  O    0.000000  -0.000000   0.000193   0.229606   0.007685  -0.001480
    21  O   -0.000018   0.000042  -0.003942  -0.002027   0.206528  -0.007153
    22  H    0.000000  -0.000000  -0.000000  -0.000000   0.000000   0.000000
    23  H    0.000000  -0.000000  -0.000000   0.000000  -0.000000  -0.000000
    24  H    0.000000  -0.000000   0.000000   0.000000  -0.000000  -0.000000
    25  H    0.298758  -0.000011   0.000101   0.000000   0.000001   0.000000
    26  H   -0.000011   0.366277   0.000034   0.000000   0.000021  -0.000000
    27  H    0.000101   0.000034   0.283260  -0.000000  -0.001506   0.000009
    28  H    0.000000   0.000000  -0.000000   0.348952  -0.000016  -0.000016
    29  H    0.000001   0.000021  -0.001506  -0.000016   0.285878   0.000157
    30  H    0.000000  -0.000000   0.000009  -0.000016   0.000157   0.334306
    31  H   -0.000503   0.000000   0.000012  -0.000000   0.000000  -0.000000
    32  H   -0.000001   0.000000  -0.000000   0.000000  -0.000000  -0.000000
    33  H    0.000006  -0.000000  -0.002416  -0.000002   0.000097  -0.001165
              31         32         33
     1  Zr   0.000024   0.002297  -0.014762
     2  O    0.000180  -0.000025   0.000993
     3  O   -0.000020   0.000043  -0.010143
     4  O   -0.018501   0.010523  -0.009625
     5  O   -0.000012   0.000005  -0.000100
     6  Si   0.064117   0.022240   0.052393
     7  Si   0.000153  -0.000667   0.020610
     8  Si  -0.002203   0.000080  -0.000080
     9  Si  -0.000050   0.000032   0.000079
    10  O    0.000000  -0.000000  -0.000000
    11  O   -0.000000   0.000000   0.000000
    12  O    0.000000  -0.000000   0.000000
    13  O    0.002362  -0.000008   0.000223
    14  O    0.000173  -0.000006   0.002110
    15  O   -0.000019   0.000000  -0.000035
    16  O    0.003598   0.233662  -0.000024
    17  O   -0.000744  -0.003614   0.231050
    18  O    0.218013   0.003872   0.002080
    19  O    0.000004   0.000098   0.014616
    20  O   -0.000000  -0.000000  -0.000084
    21  O   -0.000000   0.000001   0.001492
    22  H   -0.000000  -0.000000  -0.000000
    23  H    0.000000  -0.000000  -0.000000
    24  H    0.000000  -0.000000  -0.000000
    25  H   -0.000503  -0.000001   0.000006
    26  H    0.000000   0.000000  -0.000000
    27  H    0.000012  -0.000000  -0.002416
    28  H   -0.000000   0.000000  -0.000002
    29  H    0.000000  -0.000000   0.000097
    30  H   -0.000000  -0.000000  -0.001165
    31  H    0.331605   0.000003  -0.000038
    32  H    0.000003   0.350134   0.000156
    33  H   -0.000038   0.000156   0.269372
 Mulliken charges:
               1
     1  Zr   0.037381
     2  O   -0.554371
     3  O   -0.432138
     4  O   -0.680489
     5  O   -0.381949
     6  Si   2.221612
     7  Si   1.799918
     8  Si   2.013303
     9  Si   1.607210
    10  O   -0.840528
    11  O   -0.789081
    12  O   -0.794834
    13  O   -0.844471
    14  O   -0.882511
    15  O   -0.878274
    16  O   -0.734162
    17  O   -0.967585
    18  O   -1.081597
    19  O   -0.988920
    20  O   -0.805641
    21  O   -0.829938
    22  H    0.385489
    23  H    0.372009
    24  H    0.365379
    25  H    0.414740
    26  H    0.378562
    27  H    0.429348
    28  H    0.376084
    29  H    0.447867
    30  H    0.411375
    31  H    0.401846
    32  H    0.381173
    33  H    0.443196
 Sum of Mulliken charges =  -0.00000
 Mulliken charges with hydrogens summed into heavy atoms:
               1
     1  Zr   0.037381
     2  O   -0.554371
     3  O   -0.432138
     4  O   -0.680489
     5  O   -0.381949
     6  Si   2.221612
     7  Si   1.799918
     8  Si   2.013303
     9  Si   1.607210
    10  O   -0.468518
    11  O   -0.423702
    12  O   -0.409345
    13  O   -0.429732
    14  O   -0.453162
    15  O   -0.499712
    16  O   -0.352990
    17  O   -0.524389
    18  O   -0.679752
    19  O   -0.577546
    20  O   -0.429558
    21  O   -0.382071
 Electronic spatial extent (au):  <R**2>=           9865.4603
 Charge=             -0.0000 electrons
 Dipole moment (field-independent basis, Debye):
    X=              0.9904    Y=             -0.8801    Z=             -2.7603  Tot=              3.0619
 Quadrupole moment (field-independent basis, Debye-Ang):
   XX=           -160.1585   YY=           -154.8093   ZZ=           -157.5153
   XY=             -5.4174   XZ=              1.5501   YZ=              5.6159
 Traceless Quadrupole moment (field-independent basis, Debye-Ang):
   XX=             -2.6641   YY=              2.6851   ZZ=             -0.0210
   XY=             -5.4174   XZ=              1.5501   YZ=              5.6159
 Octapole moment (field-independent basis, Debye-Ang**2):
  XXX=             74.2217  YYY=              1.5109  ZZZ=            -28.5599  XYY=             -6.8202
  XXY=             19.6890  XXZ=             18.9305  XZZ=              8.9844  YZZ=            -13.7691
  YYZ=             -8.7983  XYZ=             26.3469
 Hexadecapole moment (field-independent basis, Debye-Ang**3):
 XXXX=          -6028.8623 YYYY=          -2824.2646 ZZZZ=          -2237.7229 XXXY=             35.9745
 XXXZ=             15.4255 YYYX=            -18.0387 YYYZ=            214.7784 ZZZX=           -222.8720
 ZZZY=            -51.1389 XXYY=          -1517.3993 XXZZ=          -1327.3585 YYZZ=           -939.0892
 XXYZ=            -21.6049 YYXZ=            155.8985 ZZXY=            -30.8877
 N-N= 2.832920754666D+03 E-N=-1.137844458410D+04  KE= 2.373155477450D+03
 PrsmSu:  requested number of processors reduced to:   2 ShMem   1 Linda.
 PrsmSu:  requested number of processors reduced to:  10 ShMem   1 Linda.
   1 Symmetry operations used in ECPInt.
 ECPInt:  NShTT=   13203 NPrTT=   78401 LenC2=   11527 LenP2D=   44641.
 LDataN:  DoStor=T MaxTD1= 9 Len=  602
 Number of processors reduced to  14 by ecpmxn.
 Calling FoFJK, ICntrl=      2127 FMM=F ISym2X=0 I1Cent= 0 IOpClX= 0 NMat=1 NMatS=1 NMatT=0.
 CoulSu:  requested number of processors reduced to:  10 ShMem   1 Linda.
 Defaulting to unpruned grid for atomic number  40.
 Defaulting to unpruned grid for atomic number  40.
 Defaulting to unpruned grid for atomic number  40.
 Defaulting to unpruned grid for atomic number  40.
 Defaulting to unpruned grid for atomic number  40.
 Defaulting to unpruned grid for atomic number  40.
 Defaulting to unpruned grid for atomic number  40.
 Defaulting to unpruned grid for atomic number  40.
 Defaulting to unpruned grid for atomic number  40.
 Defaulting to unpruned grid for atomic number  40.
 Defaulting to unpruned grid for atomic number  40.
 Defaulting to unpruned grid for atomic number  40.
 Defaulting to unpruned grid for atomic number  40.
 Defaulting to unpruned grid for atomic number  40.
 Defaulting to unpruned grid for atomic number  40.
 Defaulting to unpruned grid for atomic number  40.
 ***** Axes restored to original set *****
 -------------------------------------------------------------------
 Center     Atomic                   Forces (Hartrees/Bohr)
 Number     Number              X              Y              Z
 -------------------------------------------------------------------
      1       40           0.000080872   -0.000043037    0.000962001
      2        8          -0.000102093    0.000021886   -0.000484386
      3        8           0.000088791    0.000198492   -0.000074433
      4        8           0.000040870   -0.000147183   -0.000170975
      5        8          -0.000058601   -0.000217045   -0.000318785
      6       14          -0.000066514    0.000076571    0.000079902
      7       14          -0.000074720   -0.000031463    0.000147588
      8       14           0.000126991    0.000111164    0.000295817
      9       14           0.000006218    0.000391564    0.000023843
     10        8           0.000022868   -0.000124356    0.000035689
     11        8          -0.000024829   -0.000229865   -0.000059107
     12        8          -0.000097158   -0.000021760   -0.000124401
     13        8          -0.000026234   -0.000085530   -0.000086464
     14        8          -0.000017669   -0.000008094   -0.000078659
     15        8          -0.000077449   -0.000037285   -0.000129291
     16        8           0.000023092   -0.000010768   -0.000053724
     17        8           0.000037924   -0.000020220   -0.000058360
     18        8           0.000021766   -0.000021588   -0.000022165
     19        8           0.000009097   -0.000002226   -0.000044277
     20        8           0.000049440    0.000004668   -0.000020660
     21        8           0.000009201    0.000023706   -0.000091794
     22        1          -0.000000700    0.000006714    0.000017688
     23        1           0.000016903    0.000025463   -0.000009053
     24        1           0.000070895    0.000115394    0.000087216
     25        1          -0.000006542    0.000017202    0.000039735
     26        1           0.000010605    0.000008193    0.000010635
     27        1          -0.000017272    0.000005366    0.000041258
     28        1          -0.000016913    0.000007474    0.000010168
     29        1           0.000019726   -0.000009512    0.000033595
     30        1          -0.000003998    0.000000099    0.000012449
     31        1          -0.000015846   -0.000000916   -0.000007150
     32        1          -0.000031673   -0.000005511    0.000012903
     33        1           0.000002954    0.000002401    0.000023198
 -------------------------------------------------------------------
 Cartesian Forces:  Max     0.000962001 RMS     0.000140623

 GradGradGradGradGradGradGradGradGradGradGradGradGradGradGradGradGradGrad
 Berny optimization.
 FormGI is forming the generalized inverse of G from B-inverse, IUseBI=4.
 Internal  Forces:  Max     0.000596072 RMS     0.000104834
 Search for a local minimum.
 Step number   1 out of a maximum of  148
 All quantities printed in internal units (Hartrees-Bohrs-Radians)
 Mixed Optimization -- En-DIIS/RFO-DIIS
 Second derivative matrix not updated -- first step.
 ITU=  0
     Eigenvalues ---    0.00230   0.00230   0.00230   0.03240   0.03358
     Eigenvalues ---    0.03498   0.03580   0.03665   0.03666   0.03680
     Eigenvalues ---    0.03686   0.03693   0.03739   0.03789   0.03792
     Eigenvalues ---    0.03816   0.03834   0.03850   0.05521   0.09402
     Eigenvalues ---    0.09687   0.11077   0.11224   0.11833   0.11884
     Eigenvalues ---    0.11890   0.12177   0.12239   0.12299   0.12782
     Eigenvalues ---    0.12895   0.13099   0.13313   0.16000   0.16000
     Eigenvalues ---    0.16000   0.16000   0.16000   0.16000   0.16000
     Eigenvalues ---    0.16000   0.16000   0.16000   0.16000   0.16000
     Eigenvalues ---    0.19173   0.19314   0.19332   0.20013   0.20203
     Eigenvalues ---    0.20204   0.20208   0.20515   0.20653   0.20795
     Eigenvalues ---    0.20989   0.21175   0.21186   0.21227   0.25000
     Eigenvalues ---    0.25000   0.25000   0.38002   0.39187   0.40659
     Eigenvalues ---    0.41546   0.42502   0.42509   0.42670   0.42743
     Eigenvalues ---    0.42824   0.43363   0.43951   0.43980   0.44273
     Eigenvalues ---    0.44485   0.44689   0.44769   0.50655   0.51353
     Eigenvalues ---    0.52036   0.52548   0.54334   0.54624   0.54641
     Eigenvalues ---    0.54649   0.54689   0.54693   0.54712   0.54765
     Eigenvalues --- 1000.000001000.000001000.000001000.000001000.00000
     Eigenvalues --- 1000.000001000.000001000.000001000.000001000.00000
     Eigenvalues --- 1000.000001000.000001000.000001000.000001000.00000
     Eigenvalues --- 1000.000001000.000001000.000001000.000001000.00000
     Eigenvalues --- 1000.000001000.000001000.000001000.000001000.00000
     Eigenvalues --- 1000.000001000.000001000.000001000.000001000.00000
     Eigenvalues --- 1000.000001000.000001000.000001000.000001000.00000
     Eigenvalues --- 1000.000001000.000001000.000001000.000001000.00000
     Eigenvalues --- 1000.000001000.000001000.000001000.000001000.00000
     Eigenvalues --- 1000.000001000.000001000.00000
 RFO step:  Lambda=-1.07407417D-05 EMin= 2.30000000D-03
 Linear search not attempted -- first point.
 Iteration  1 RMS(Cart)=  0.00723709 RMS(Int)=  0.00001082
 Iteration  2 RMS(Cart)=  0.00002102 RMS(Int)=  0.00000125
 Iteration  3 RMS(Cart)=  0.00000000 RMS(Int)=  0.00000125
 Iteration  1 RMS(Cart)=  0.00000068 RMS(Int)=  0.00000011
 Variable       Old X    -DE/DX   Delta X   Delta X   Delta X     New X
                                 (Linear)    (Quad)   (Total)
    R1        3.67647  -0.00027   0.00000  -0.00130  -0.00130   3.67517
    R2        3.69189   0.00016   0.00000   0.00078   0.00078   3.69268
    R3        3.73835   0.00020   0.00000   0.00104   0.00104   3.73940
    R4        3.70232  -0.00005   0.00000  -0.00027  -0.00027   3.70205
    R5        3.11688   0.00004   0.00000   0.00009   0.00009   3.11696
    R6        3.09579   0.00001   0.00000   0.00001   0.00001   3.09580
    R7        3.10213   0.00003   0.00000   0.00007   0.00007   3.10220
    R8        3.09245   0.00000   0.00000   0.00001   0.00001   3.09246
    R9        3.11587   0.00004   0.00000   0.00010   0.00010   3.11597
   R10        3.11989  -0.00005   0.00000  -0.00012  -0.00012   3.11977
   R11        3.14367   0.00000   0.00000   0.00001   0.00001   3.14368
   R12        3.18062   0.00002   0.00000   0.00006   0.00006   3.18069
   R13        3.10924   0.00002   0.00000   0.00005   0.00005   3.10929
   R14        3.09339  -0.00006   0.00000  -0.00014  -0.00014   3.09324
   R15        3.10179   0.00009   0.00000   0.00019   0.00019   3.10198
   R16        3.16373   0.00003   0.00000   0.00008   0.00008   3.16381
   R17        3.09830  -0.00012   0.00000  -0.00028  -0.00028   3.09802
   R18        3.11980  -0.00003   0.00000  -0.00008  -0.00008   3.11972
   R19        3.13206   0.00012   0.00000   0.00030   0.00030   3.13236
   R20        3.11779  -0.00010   0.00000  -0.00023  -0.00023   3.11755
   R21        1.82152  -0.00001   0.00000  -0.00001  -0.00001   1.82151
   R22        1.82105  -0.00005   0.00000  -0.00009  -0.00009   1.82097
   R23        1.82089   0.00000   0.00000   0.00001   0.00001   1.82090
   R24        1.84078  -0.00004   0.00000  -0.00008  -0.00008   1.84070
   R25        1.84565  -0.00003   0.00000  -0.00006  -0.00006   1.84558
   R26        1.82041  -0.00001   0.00000  -0.00001  -0.00001   1.82040
   R27        1.82109  -0.00003   0.00000  -0.00006  -0.00006   1.82103
   R28        1.85910  -0.00000   0.00000  -0.00001  -0.00001   1.85910
   R29        1.82145   0.00000   0.00000   0.00001   0.00001   1.82146
   R30        1.82428  -0.00000   0.00000  -0.00000  -0.00000   1.82428
   R31        1.82168   0.00001   0.00000   0.00002   0.00002   1.82170
   R32        1.85224   0.00001   0.00000   0.00002   0.00002   1.85226
    A1        1.85172   0.00004   0.00000   0.00229   0.00229   1.85402
    A2        1.80155  -0.00016   0.00000  -0.00078  -0.00078   1.80077
    A3        1.96889   0.00043   0.00000   0.00371   0.00371   1.97260
    A4        1.83430   0.00016   0.00000  -0.00130  -0.00130   1.83300
    A5        2.01802  -0.00021   0.00000  -0.00110  -0.00111   2.01691
    A6        1.97057  -0.00025   0.00000  -0.00285  -0.00285   1.96772
    A7        2.46524   0.00015   0.00000   0.00061   0.00061   2.46585
    A8        2.58826  -0.00004   0.00000  -0.00018  -0.00018   2.58808
    A9        2.35483   0.00001   0.00000   0.00004   0.00004   2.35487
   A10        2.86714  -0.00060   0.00000   0.00000  -0.00000   2.86714
   A11        1.91978   0.00001   0.00000   0.00002   0.00002   1.91979
   A12        1.91546  -0.00002   0.00000  -0.00006  -0.00006   1.91540
   A13        1.95201   0.00001   0.00000   0.00009   0.00009   1.95210
   A14        2.00708  -0.00000   0.00000  -0.00002  -0.00002   2.00706
   A15        1.88610  -0.00004   0.00000  -0.00021  -0.00021   1.88590
[...]
 Alpha virt. eigenvalues --    3.47774   3.48622   3.48666   3.51100   3.51131
 Alpha virt. eigenvalues --    3.52786   3.53567   3.60280   3.61076   3.62083
 Alpha virt. eigenvalues --    3.66184   4.37797   4.61331   7.94453  31.29548
          Condensed to atoms (all electrons):
               1          2          3          4          5          6
     1  Zr  15.032670  -0.080979  -0.000452  -0.115226  -0.184013  -0.654862
     2  O   -0.080979   9.038256   0.019168  -0.041976  -0.056032   0.075786
     3  O   -0.000452   0.019168   8.824112   0.018459  -0.047872  -0.000656
     4  O   -0.115226  -0.041976   0.018459   8.813649  -0.062209  -0.690718
     5  O   -0.184013  -0.056032  -0.047872  -0.062209   9.387956  -0.010885
     6  Si  -0.654862   0.075786  -0.000656  -0.690718  -0.010885  14.073279
     7  Si  -0.592651  -0.030056  -0.864163  -0.011730  -0.034852   0.080961
     8  Si  -0.668524  -0.990174  -0.017764   0.066474  -0.016381   0.012780
     9  Si  -0.286893  -0.037183  -0.027511  -0.030084  -1.133876   0.038923
    10  O   -0.027437   0.001034  -0.001195   0.000371   0.122525  -0.001510
    11  O   -0.073344   0.002470   0.003068   0.001688   0.299844  -0.000437
    12  O    0.049941   0.000591   0.004061   0.001811   0.120352  -0.003213
    13  O   -0.013567   0.180292   0.001486  -0.014989  -0.000666   0.029171
    14  O    0.000622   0.256242  -0.018602  -0.008570   0.001531   0.024102
    15  O   -0.087721   0.291435  -0.000510   0.001183   0.000615   0.001724
    16  O   -0.121268   0.004785  -0.000654   0.348455   0.003362  -0.431005
    17  O   -0.077477  -0.039073   0.009928   0.212232   0.001527  -0.450614
    18  O   -0.025367  -0.015007   0.003779   0.196793  -0.000677  -0.454139
    19  O    0.007930   0.008413   0.267897   0.011198   0.002219  -0.008708
    20  O   -0.146365  -0.000584   0.162538  -0.000740   0.001625   0.009471
    21  O    0.037487   0.009220   0.143096   0.003688   0.000116  -0.012341
    22  H   -0.009134  -0.000011   0.000001  -0.000006   0.006634   0.000090
    23  H   -0.007688  -0.000011  -0.000006  -0.000044  -0.024976   0.000120
    24  H   -0.005515  -0.000106  -0.000011   0.000010  -0.005389   0.000134
    25  H    0.015112  -0.019538  -0.000105  -0.000467   0.000015   0.003580
    26  H    0.006907   0.000970   0.000013  -0.000011  -0.000003  -0.000176
    27  H   -0.001276  -0.018500   0.000815  -0.001806   0.000015   0.010928
    28  H    0.004970  -0.000011  -0.018311  -0.000013  -0.000014  -0.000270
    29  H    0.002902  -0.006909  -0.020083  -0.000141  -0.000073   0.000264
    30  H    0.000576  -0.000011  -0.000007  -0.000474  -0.000009  -0.000615
    31  H    0.000241   0.000177  -0.000020  -0.018488  -0.000013   0.063859
    32  H    0.002233  -0.000025   0.000044   0.010452   0.000003   0.022299
    33  H   -0.014726   0.001004  -0.010105  -0.009553  -0.000100   0.052297
               7          8          9         10         11         12
     1  Zr  -0.592651  -0.668524  -0.286893  -0.027437  -0.073344   0.049941
     2  O   -0.030056  -0.990174  -0.037183   0.001034   0.002470   0.000591
     3  O   -0.864163  -0.017764  -0.027511  -0.001195   0.003068   0.004061
     4  O   -0.011730   0.066474  -0.030084   0.000371   0.001688   0.001811
     5  O   -0.034852  -0.016381  -1.133876   0.122525   0.299844   0.120352
     6  Si   0.080961   0.012780   0.038923  -0.001510  -0.000437  -0.003213
     7  Si  13.774212   0.181238   0.016360   0.000366  -0.001108   0.002863
     8  Si   0.181238  13.843912   0.029483  -0.001215   0.001245  -0.001670
     9  Si   0.016360   0.029483  14.014377  -0.043609  -0.145497  -0.157090
    10  O    0.000366  -0.001215  -0.043609   8.517223   0.015914   0.026460
    11  O   -0.001108   0.001245  -0.145497   0.015914   8.504377  -0.054301
    12  O    0.002863  -0.001670  -0.157090   0.026460  -0.054301   8.586676
    13  O    0.006521  -0.099257   0.000055   0.000000   0.000015  -0.000002
    14  O    0.007850  -0.360943  -0.001659  -0.000002   0.000004   0.000007
    15  O   -0.001824  -0.304675  -0.000482  -0.000001  -0.000016   0.000004
    16  O    0.003638  -0.011493  -0.001060   0.000005  -0.000008  -0.000002
    17  O   -0.002124   0.096152   0.002395   0.000002   0.000004  -0.000006
    18  O   -0.001048   0.078708   0.003810   0.000001   0.000007   0.000000
    19  O   -0.416896  -0.016098   0.000980   0.000005  -0.000001  -0.000037
    20  O   -0.109393   0.009727   0.002942   0.000014  -0.000003  -0.000034
    21  O    0.028001  -0.038807  -0.001421  -0.000001   0.000001   0.000010
    22  H   -0.000085   0.000102   0.045681  -0.006107  -0.005101   0.220006
    23  H    0.000042   0.000058   0.080341   0.229397  -0.005842   0.005692
    24  H    0.000037   0.000057   0.036128   0.007545   0.244098  -0.007458
    25  H   -0.000412   0.057106  -0.000200   0.000000  -0.000000  -0.000000
    26  H   -0.000388   0.046457  -0.000045  -0.000000   0.000000  -0.000000
    27  H    0.002017   0.068977   0.000020   0.000000  -0.000000   0.000000
    28  H    0.056684  -0.000020  -0.000147  -0.000000  -0.000000  -0.000002
    29  H    0.048157   0.022297  -0.000058   0.000000   0.000000  -0.000001
    30  H    0.040719   0.000094   0.000015   0.000000   0.000000   0.000000
    31  H    0.000148  -0.002215  -0.000049   0.000000  -0.000000   0.000000
    32  H   -0.000668   0.000079   0.000031  -0.000000   0.000000  -0.000000
    33  H    0.020479  -0.000087   0.000078  -0.000000   0.000000   0.000000
              13         14         15         16         17         18
     1  Zr  -0.013567   0.000622  -0.087721  -0.121268  -0.077477  -0.025367
     2  O    0.180292   0.256242   0.291435   0.004785  -0.039073  -0.015007
     3  O    0.001486  -0.018602  -0.000510  -0.000654   0.009928   0.003779
     4  O   -0.014989  -0.008570   0.001183   0.348455   0.212232   0.196793
     5  O   -0.000666   0.001531   0.000615   0.003362   0.001527  -0.000677
     6  Si   0.029171   0.024102   0.001724  -0.431005  -0.450614  -0.454139
     7  Si   0.006521   0.007850  -0.001824   0.003638  -0.002124  -0.001048
     8  Si  -0.099257  -0.360943  -0.304675  -0.011493   0.096152   0.078708
     9  Si   0.000055  -0.001659  -0.000482  -0.001060   0.002395   0.003810
    10  O    0.000000  -0.000002  -0.000001   0.000005   0.000002   0.000001
    11  O    0.000015   0.000004  -0.000016  -0.000008   0.000004   0.000007
    12  O   -0.000002   0.000007   0.000004  -0.000002  -0.000006   0.000000
    13  O    8.624995   0.086268  -0.091506   0.003786  -0.030874  -0.045993
    14  O    0.086268   8.665266   0.055923   0.003645  -0.035863  -0.026931
    15  O   -0.091506   0.055923   8.782098  -0.000176   0.003639   0.001704
    16  O    0.003786   0.003645  -0.000176   8.902084  -0.092070  -0.113092
    17  O   -0.030874  -0.035863   0.003639  -0.092070   8.933867   0.227364
    18  O   -0.045993  -0.026931   0.001704  -0.113092   0.227364   9.012568
    19  O    0.000146  -0.000916   0.000145  -0.001376  -0.029584   0.000117
    20  O    0.000009  -0.000285   0.000034   0.000068  -0.000929   0.000014
    21  O   -0.000248   0.015352  -0.000670  -0.000214  -0.005677   0.000488
    22  H   -0.000000  -0.000000   0.000000   0.000000   0.000000  -0.000000
    23  H    0.000000   0.000000   0.000000  -0.000000   0.000000   0.000000
    24  H   -0.000000   0.000000   0.000001   0.000000  -0.000000  -0.000000
    25  H    0.219059  -0.011813   0.008911  -0.000071   0.000621   0.015179
    26  H   -0.004970  -0.010153   0.216530   0.000000  -0.000003   0.000006
    27  H   -0.009502   0.220541   0.004663   0.000173   0.018040  -0.000200
    28  H    0.000000  -0.000006  -0.000001  -0.000000   0.000004  -0.000000
    29  H    0.000817   0.017621  -0.002599  -0.000005  -0.000406   0.000006
    30  H    0.000001   0.000006   0.000000   0.000110  -0.000438  -0.000007
    31  H    0.002362   0.000173  -0.000019   0.003672  -0.000767   0.217950
    32  H   -0.000008  -0.000006   0.000000   0.233768  -0.003643   0.003907
    33  H    0.000224   0.002128  -0.000035  -0.000031   0.231119   0.002102
              19         20         21         22         23         24
     1  Zr   0.007930  -0.146365   0.037487  -0.009134  -0.007688  -0.005515
     2  O    0.008413  -0.000584   0.009220  -0.000011  -0.000011  -0.000106
     3  O    0.267897   0.162538   0.143096   0.000001  -0.000006  -0.000011
     4  O    0.011198  -0.000740   0.003688  -0.000006  -0.000044   0.000010
     5  O    0.002219   0.001625   0.000116   0.006634  -0.024976  -0.005389
     6  Si  -0.008708   0.009471  -0.012341   0.000090   0.000120   0.000134
     7  Si  -0.416896  -0.109393   0.028001  -0.000085   0.000042   0.000037
     8  Si  -0.016098   0.009727  -0.038807   0.000102   0.000058   0.000057
     9  Si   0.000980   0.002942  -0.001421   0.045681   0.080341   0.036128
    10  O    0.000005   0.000014  -0.000001  -0.006107   0.229397   0.007545
    11  O   -0.000001  -0.000003   0.000001  -0.005101  -0.005842   0.244098
    12  O   -0.000037  -0.000034   0.000010   0.220006   0.005692  -0.007458
    13  O    0.000146   0.000009  -0.000248  -0.000000   0.000000  -0.000000
    14  O   -0.000916  -0.000285   0.015352  -0.000000   0.000000   0.000000
    15  O    0.000145   0.000034  -0.000670   0.000000   0.000000   0.000001
    16  O   -0.001376   0.000068  -0.000214   0.000000  -0.000000   0.000000
    17  O   -0.029584  -0.000929  -0.005677   0.000000   0.000000  -0.000000
    18  O    0.000117   0.000014   0.000488  -0.000000   0.000000  -0.000000
    19  O    8.875143   0.030989   0.022297  -0.000000   0.000000  -0.000000
    20  O    0.030989   8.660188  -0.049683   0.000000   0.000000  -0.000000
    21  O    0.022297  -0.049683   8.484412  -0.000000   0.000000   0.000000
    22  H   -0.000000   0.000000  -0.000000   0.361997   0.000061   0.000139
    23  H    0.000000   0.000000   0.000000   0.000061   0.350481   0.000010
    24  H   -0.000000  -0.000000   0.000000   0.000139   0.000010   0.365554
    25  H   -0.000022   0.000000  -0.000018   0.000000   0.000000   0.000000
    26  H    0.000001  -0.000000   0.000041  -0.000000  -0.000000  -0.000000
    27  H    0.000043   0.000193  -0.003950  -0.000000  -0.000000   0.000000
    28  H    0.004572   0.229396  -0.001954  -0.000000   0.000000   0.000000
    29  H   -0.008548   0.007684   0.206549   0.000000  -0.000000  -0.000000
    30  H    0.224029  -0.001458  -0.007185   0.000000  -0.000000  -0.000000
    31  H    0.000004  -0.000000  -0.000000  -0.000000   0.000000   0.000000
    32  H    0.000097  -0.000000   0.000001  -0.000000  -0.000000  -0.000000
    33  H    0.014634  -0.000078   0.001517  -0.000000  -0.000000  -0.000000
              25         26         27         28         29         30
     1  Zr   0.015112   0.006907  -0.001276   0.004970   0.002902   0.000576
     2  O   -0.019538   0.000970  -0.018500  -0.000011  -0.006909  -0.000011
     3  O   -0.000105   0.000013   0.000815  -0.018311  -0.020083  -0.000007
     4  O   -0.000467  -0.000011  -0.001806  -0.000013  -0.000141  -0.000474
     5  O    0.000015  -0.000003   0.000015  -0.000014  -0.000073  -0.000009
     6  Si   0.003580  -0.000176   0.010928  -0.000270   0.000264  -0.000615
     7  Si  -0.000412  -0.000388   0.002017   0.056684   0.048157   0.040719
     8  Si   0.057106   0.046457   0.068977  -0.000020   0.022297   0.000094
     9  Si  -0.000200  -0.000045   0.000020  -0.000147  -0.000058   0.000015
    10  O    0.000000  -0.000000   0.000000  -0.000000   0.000000   0.000000
    11  O   -0.000000   0.000000  -0.000000  -0.000000   0.000000   0.000000
    12  O   -0.000000  -0.000000   0.000000  -0.000002  -0.000001   0.000000
    13  O    0.219059  -0.004970  -0.009502   0.000000   0.000817   0.000001
    14  O   -0.011813  -0.010153   0.220541  -0.000006   0.017621   0.000006
    15  O    0.008911   0.216530   0.004663  -0.000001  -0.002599   0.000000
    16  O   -0.000071   0.000000   0.000173  -0.000000  -0.000005   0.000110
    17  O    0.000621  -0.000003   0.018040   0.000004  -0.000406  -0.000438
    18  O    0.015179   0.000006  -0.000200  -0.000000   0.000006  -0.000007
    19  O   -0.000022   0.000001   0.000043   0.004572  -0.008548   0.224029
    20  O    0.000000  -0.000000   0.000193   0.229396   0.007684  -0.001458
    21  O   -0.000018   0.000041  -0.003950  -0.001954   0.206549  -0.007185
    22  H    0.000000  -0.000000  -0.000000  -0.000000   0.000000   0.000000
    23  H    0.000000  -0.000000  -0.000000   0.000000  -0.000000  -0.000000
    24  H    0.000000  -0.000000   0.000000   0.000000  -0.000000  -0.000000
    25  H    0.298680  -0.000011   0.000101   0.000000   0.000001   0.000000
    26  H   -0.000011   0.366150   0.000035   0.000000   0.000021  -0.000000
    27  H    0.000101   0.000035   0.283178  -0.000000  -0.001505   0.000009
    28  H    0.000000   0.000000  -0.000000   0.349090  -0.000015  -0.000015
    29  H    0.000001   0.000021  -0.001505  -0.000015   0.285784   0.000158
    30  H    0.000000  -0.000000   0.000009  -0.000015   0.000158   0.334594
    31  H   -0.000491   0.000000   0.000012  -0.000000   0.000000  -0.000000
    32  H   -0.000001   0.000000  -0.000000   0.000000  -0.000000  -0.000000
    33  H    0.000005  -0.000000  -0.002408  -0.000002   0.000096  -0.001181
              31         32         33
     1  Zr   0.000241   0.002233  -0.014726
     2  O    0.000177  -0.000025   0.001004
     3  O   -0.000020   0.000044  -0.010105
     4  O   -0.018488   0.010452  -0.009553
     5  O   -0.000013   0.000003  -0.000100
     6  Si   0.063859   0.022299   0.052297
     7  Si   0.000148  -0.000668   0.020479
     8  Si  -0.002215   0.000079  -0.000087
     9  Si  -0.000049   0.000031   0.000078
    10  O    0.000000  -0.000000  -0.000000
    11  O   -0.000000   0.000000   0.000000
    12  O    0.000000  -0.000000   0.000000
    13  O    0.002362  -0.000008   0.000224
    14  O    0.000173  -0.000006   0.002128
    15  O   -0.000019   0.000000  -0.000035
    16  O    0.003672   0.233768  -0.000031
    17  O   -0.000767  -0.003643   0.231119
    18  O    0.217950   0.003907   0.002102
    19  O    0.000004   0.000097   0.014634
    20  O   -0.000000  -0.000000  -0.000078
    21  O   -0.000000   0.000001   0.001517
    22  H   -0.000000  -0.000000  -0.000000
    23  H    0.000000  -0.000000  -0.000000
    24  H    0.000000  -0.000000  -0.000000
    25  H   -0.000491  -0.000001   0.000005
    26  H    0.000000   0.000000  -0.000000
    27  H    0.000012  -0.000000  -0.002408
    28  H   -0.000000   0.000000  -0.000002
    29  H    0.000000  -0.000000   0.000096
    30  H   -0.000000  -0.000000  -0.001181
    31  H    0.331393   0.000002  -0.000038
    32  H    0.000002   0.350135   0.000156
    33  H   -0.000038   0.000156   0.269354
 Mulliken charges:
               1
     1  Zr   0.032891
     2  O   -0.553658
     3  O   -0.430435
     4  O   -0.679215
     5  O   -0.370300
     6  Si   2.220380
     7  Si   1.797106
     8  Si   2.014375
     9  Si   1.595250
    10  O   -0.839784
    11  O   -0.787079
    12  O   -0.794657
    13  O   -0.843625
    14  O   -0.881532
    15  O   -0.878377
    16  O   -0.735029
    17  O   -0.967350
    18  O   -1.082042
    19  O   -0.988671
    20  O   -0.805339
    21  O   -0.830107
    22  H    0.385731
    23  H    0.372364
    24  H    0.364768
    25  H    0.414778
    26  H    0.378630
    27  H    0.429388
    28  H    0.376066
    29  H    0.447986
    30  H    0.411089
    31  H    0.402105
    32  H    0.381143
    33  H    0.443151
 Sum of Mulliken charges =  -0.00000
 Mulliken charges with hydrogens summed into heavy atoms:
               1
     1  Zr   0.032891
     2  O   -0.553658
     3  O   -0.430435
     4  O   -0.679215
     5  O   -0.370300
     6  Si   2.220380
     7  Si   1.797106
     8  Si   2.014375
     9  Si   1.595250
    10  O   -0.467420
    11  O   -0.422311
    12  O   -0.408926
    13  O   -0.428847
    14  O   -0.452144
    15  O   -0.499747
    16  O   -0.353886
    17  O   -0.524199
    18  O   -0.679938
    19  O   -0.577582
    20  O   -0.429273
    21  O   -0.382121
 Electronic spatial extent (au):  <R**2>=           9867.3118
 Charge=             -0.0000 electrons
 Dipole moment (field-independent basis, Debye):
    X=              1.0609    Y=             -0.8545    Z=             -2.6475  Tot=              2.9774
 Quadrupole moment (field-independent basis, Debye-Ang):
   XX=           -159.6502   YY=           -154.9901   ZZ=           -157.4271
   XY=             -5.4637   XZ=              1.8815   YZ=              5.5341
 Traceless Quadrupole moment (field-independent basis, Debye-Ang):
   XX=             -2.2944   YY=              2.3656   ZZ=             -0.0713
   XY=             -5.4637   XZ=              1.8815   YZ=              5.5341
 Octapole moment (field-independent basis, Debye-Ang**2):
  XXX=             77.0456  YYY=              2.3597  ZZZ=            -27.8322  XYY=             -7.3293
  XXY=             18.8038  XXZ=             20.8871  XZZ=              9.8561  YZZ=            -13.8749
  YYZ=             -8.7592  XYZ=             25.7440
 Hexadecapole moment (field-independent basis, Debye-Ang**3):
 XXXX=          -6013.3724 YYYY=          -2826.8314 ZZZZ=          -2244.5476 XXXY=             34.8413
 XXXZ=             19.8173 YYYX=            -17.8944 YYYZ=            213.8682 ZZZX=           -222.1714
 ZZZY=            -50.8579 XXYY=          -1517.4542 XXZZ=          -1322.4643 YYZZ=           -936.2067
 XXYZ=            -23.2983 YYXZ=            158.0242 ZZXY=            -33.9181
 N-N= 2.832800125325D+03 E-N=-1.137821685018D+04  KE= 2.373155462860D+03
 1\1\GINC-GRA1244\FOpt\RB3LYP\Gen\H12O16Si4Zr1\SARASHS\14-Aug-2020\0\\#
 n B3LYP/Gen Pseudo=cards EmpiricalDispersion=GD3 Opt=modredundant\\Tit
 le\\0,1\Zr,0.6568371748,-0.1295884797,-0.0595480583\O,-0.2321531626,-0
 .9123236772,1.483517013\O,0.1068415869,1.74461671,-0.118346099\O,-0.26
 51030643,-0.9818980933,-1.5885494997\O,2.5910493684,-0.4387287069,-0.0
 823196355\Si,-1.8272968671,-1.3312160385,-1.9518275496\Si,-1.110617824
 6,2.840005313,-0.0778841323\Si,-1.7353803515,-1.1564098129,2.116903664
 6\Si,4.2095888074,-0.3075846359,0.1195821798\O,5.0037928388,0.24270950
 06,-1.2185572368\O,4.8730390607,-1.7933408195,0.4365366534\O,4.3991024
 524,0.7913554283,1.3356374926\O,-2.3324409531,-2.6259332209,1.69436849
 93\O,-2.731231355,0.0641552918,1.5497553727\O,-1.6147956125,-1.0246605
 414,3.7464475825\O,-1.9917430451,-1.5571461851,-3.5769471551\O,-2.8211
 699417,-0.1836123942,-1.3031622528\O,-2.3470753991,-2.7128903664,-1.18
 4799614\O,-2.0327611361,2.4418776875,-1.4284864079\O,-0.627766695,4.39
 86836511,-0.2894619805\O,-1.9644665726,2.75754959,1.3162323123\H,5.284
 2510478,1.1492597373,1.4656977559\H,5.3754953817,-0.433779025,-1.79584
 4795\H,4.4334990877,-2.3429725005,1.0948134356\H,-2.4154129827,-2.8103
 091694,0.7415056756\H,-2.4012215924,-1.2271554026,4.2646038943\H,-3.06
 44125125,-0.0825472211,0.6434895827\H,-0.5268111662,4.9245100131,0.512
 1714238\H,-2.2708055526,1.8663696534,1.5858954709\H,-2.640763441,3.129
 6690503,-1.7271615165\H,-2.3105660447,-3.5267684218,-1.6998811286\H,-1
 .2595418527,-1.2601399949,-4.1285703286\H,-2.6037196815,0.7574430808,-
 1.4901806184\\Version=ES64L-G16RevB.01\State=1-A\HF=-2416.9467798\RMSD
 =2.861e-09\RMSF=4.760e-05\Dipole=0.4379345,-0.344372,-1.0304408\Quadru
 pole=-1.8644693,1.8774162,-0.012947,-4.1122659,1.4166885,3.9964031\PG=
 C01 [X(H12O16Si4Zr1)]\\@


 A SLIP OF THE FOOT YOU MAY SOON RECOVER, BUT A SLIP OF THE TONGUE
 YOU MAY NEVER GET OVER. -- BEN FRANKLIN
 Job cpu time:       0 days 10 hours 23 minutes 27.7 seconds.
 Elapsed time:       0 days  0 hours 47 minutes 57.2 seconds.
 File lengths (MBytes):  RWF=    167 Int=      0 D2E=      0 Chk=     21 Scr=      1
 Normal termination of Gaussian 16 at Fri Aug 14 03:47:43 2020.
