 Entering Gaussian System, Link 0=g16
 Initial command:
 /opt/software/gaussian/g16.b01/l1.exe "/localscratch/sarashs.37242614.0/Gau-25882.inp" -scrdir="/localscratch/sarashs.37242614.0/"
 Entering Link 1 = /opt/software/gaussian/g16.b01/l1.exe PID=     25888.
  
 Copyright (c) 1988-2017, Gaussian, Inc.  All Rights Reserved.
  
 This is part of the Gaussian(R) 16 program.  It is based on
 the Gaussian(R) 09 system (copyright 2009, Gaussian, Inc.),
 the Gaussian(R) 03 system (copyright 2003, Gaussian, Inc.),
 the Gaussian(R) 98 system (copyright 1998, Gaussian, Inc.),
 the Gaussian(R) 94 system (copyright 1995, Gaussian, Inc.),
 the Gaussian 92(TM) system (copyright 1992, Gaussian, Inc.),
 the Gaussian 90(TM) system (copyright 1990, Gaussian, Inc.),
 the Gaussian 88(TM) system (copyright 1988, Gaussian, Inc.),
 the Gaussian 86(TM) system (copyright 1986, Carnegie Mellon
 University), and the Gaussian 82(TM) system (copyright 1983,
 Carnegie Mellon University). Gaussian is a federally registered
 trademark of Gaussian, Inc.
  
 This software contains proprietary and confidential information,
 including trade secrets, belonging to Gaussian, Inc.
  
 This software is provided under written license and may be
 used, copied, transmitted, or stored only in accord with that
 written license.
  
 The following legend is applicable only to US Government
 contracts under FAR:
  
                    RESTRICTED RIGHTS LEGEND
  
 Use, reproduction and disclosure by the US Government is
 subject to restrictions as set forth in subparagraphs (a)
 and (c) of the Commercial Computer Software - Restricted
 Rights clause in FAR 52.227-19.
  
 Gaussian, Inc.
 340 Quinnipiac St., Bldg. 40, Wallingford CT 06492
  
  
 ---------------------------------------------------------------
 Warning -- This program may not be used in any manner that
 competes with the business of Gaussian, Inc. or will provide
 assistance to any competitor of Gaussian, Inc.  The licensee
 of this program is prohibited from giving any competitor of
 Gaussian, Inc. access to this program.  By using this program,
 the user acknowledges that Gaussian, Inc. is engaged in the
 business of creating and licensing software in the field of
 computational chemistry and represents and warrants to the
 licensee that it is not a competitor of Gaussian, Inc. and that
 it will not use this program in any manner prohibited above.
 ---------------------------------------------------------------
  

 Cite this work as:
 Gaussian 16, Revision B.01,
 M. J. Frisch, G. W. Trucks, H. B. Schlegel, G. E. Scuseria, 
 M. A. Robb, J. R. Cheeseman, G. Scalmani, V. Barone, 
 G. A. Petersson, H. Nakatsuji, X. Li, M. Caricato, A. V. Marenich, 
 J. Bloino, B. G. Janesko, R. Gomperts, B. Mennucci, H. P. Hratchian, 
 J. V. Ortiz, A. F. Izmaylov, J. L. Sonnenberg, D. Williams-Young, 
 F. Ding, F. Lipparini, F. Egidi, J. Goings, B. Peng, A. Petrone, 
 T. Henderson, D. Ranasinghe, V. G. Zakrzewski, J. Gao, N. Rega, 
 G. Zheng, W. Liang, M. Hada, M. Ehara, K. Toyota, R. Fukuda, 
 J. Hasegawa, M. Ishida, T. Nakajima, Y. Honda, O. Kitao, H. Nakai, 
 T. Vreven, K. Throssell, J. A. Montgomery, Jr., J. E. Peralta, 
 F. Ogliaro, M. J. Bearpark, J. J. Heyd, E. N. Brothers, K. N. Kudin, 
 V. N. Staroverov, T. A. Keith, R. Kobayashi, J. Normand, 
 K. Raghavachari, A. P. Rendell, J. C. Burant, S. S. Iyengar, 
 J. Tomasi, M. Cossi, J. M. Millam, M. Klene, C. Adamo, R. Cammi, 
 J. W. Ochterski, R. L. Martin, K. Morokuma, O. Farkas, 
 J. B. Foresman, and D. J. Fox, Gaussian, Inc., Wallingford CT, 2016.
 
 ******************************************
 Gaussian 16:  ES64L-G16RevB.01 20-Dec-2017
                14-Aug-2020 
 ******************************************
 %NProcShared=16
 Will use up to   16 processors via shared memory.
 ------------------------------------------------------------------
 #n B3LYP/Gen Pseudo=cards EmpiricalDispersion=GD3 Opt=modredundant
 ------------------------------------------------------------------
 1/18=120,19=15,26=3,38=1/1,3;
 2/9=110,12=2,17=6,18=5,40=1/2;
 3/5=7,11=2,16=1,17=8,25=1,30=1,71=1,74=-5,124=31/1,2,3;
 4//1;
 5/5=2,38=5/2;
 6/7=2,8=2,9=2,10=2,28=1/1;
 7//1,2,3,16;
 1/18=20,19=15,26=3/3(2);
 2/9=110/2;
 99//99;
 2/9=110/2;
 3/5=7,6=1,11=2,16=1,17=8,25=1,30=1,71=1,74=-5,82=7,124=31/1,2,3;
 4/5=5,16=3,69=1/1;
 5/5=2,38=5/2;
 7//1,2,3,16;
 1/18=20,19=15,26=3/3(-5);
 2/9=110/2;
 6/7=2,8=2,9=2,10=2,19=2,28=1/1;
 99/9=1/99;
 -----
 Title
 -----
 Symbolic Z-matrix:
 Charge =  0 Multiplicity = 1
 Zr                    0.65779  -0.12506  -0.07164 
 O                    -0.22285  -0.90624   1.4773 
 O                     0.10302   1.74748  -0.12299 
 O                    -0.2683   -0.97885  -1.59705 
 O                     2.59206  -0.4363   -0.08284 
 Si                   -1.83119  -1.33244  -1.9536 
 Si                   -1.1155    2.84172  -0.08279 
 Si                   -1.72376  -1.15291   2.11517 
 Si                    4.21737  -0.24961  -0.12146 
 O                     4.88495  -0.53376  -1.60441 
 O                     4.9435   -1.33628   0.8978 
 O                     4.47676   1.33101   0.27403 
 O                    -2.31924  -2.624     1.69627 
 O                    -2.72422   0.06508   1.55086 
 O                    -1.59734  -1.01957   3.74439 
 O                    -2.00144  -1.55965  -3.57782 
 O                    -2.82509  -0.18676  -1.30145 
 O                    -2.34448  -2.71439  -1.18277 
 O                    -2.04046   2.43957  -1.43023 
 O                    -0.63565   4.40049  -0.29987 
 O                    -1.96551   2.76086   1.31383 
 H                     5.35908   1.6817    0.10973 
 H                     5.22204  -1.42504  -1.74967 
 H                     4.549    -1.45861   1.76847 
 H                    -2.40577  -2.80951   0.74392 
 H                    -2.38137  -1.22423   4.26535 
 H                    -3.06034  -0.08306   0.64589 
 H                    -0.52731   4.92728   0.50015 
 H                    -2.26909   1.86932   1.58533 
 H                    -2.64854   3.12676  -1.73014 
 H                    -2.30452  -3.52952  -1.69562 
 H                    -1.27114  -1.26305  -4.13223 
 H                    -2.61026   0.75461  -1.48993 
 
 The following ModRedundant input section has been read:
 A       1       5       9 F                                                   
 D       1       5       9      12 F                                           
 D       3       1       5       9 F                                           
 

 GradGradGradGradGradGradGradGradGradGradGradGradGradGradGradGradGradGrad
 Berny optimization.
 Initialization pass.
                           ----------------------------
                           !    Initial Parameters    !
                           ! (Angstroms and Degrees)  !
 --------------------------                            --------------------------
 ! Name  Definition              Value          Derivative Info.                !
 --------------------------------------------------------------------------------
 ! R1    R(1,2)                  1.9455         estimate D2E/DX2                !
 ! R2    R(1,3)                  1.9537         estimate D2E/DX2                !
 ! R3    R(1,4)                  1.9783         estimate D2E/DX2                !
 ! R4    R(1,5)                  1.9592         estimate D2E/DX2                !
 ! R5    R(2,8)                  1.6494         estimate D2E/DX2                !
 ! R6    R(3,7)                  1.6382         estimate D2E/DX2                !
 ! R7    R(4,6)                  1.6416         estimate D2E/DX2                !
 ! R8    R(5,9)                  1.6365         estimate D2E/DX2                !
 ! R9    R(6,16)                 1.6488         estimate D2E/DX2                !
 ! R10   R(6,17)                 1.651          estimate D2E/DX2                !
 ! R11   R(6,18)                 1.6636         estimate D2E/DX2                !
 ! R12   R(7,19)                 1.6831         estimate D2E/DX2                !
 ! R13   R(7,20)                 1.6453         estimate D2E/DX2                !
 ! R14   R(7,21)                 1.6369         estimate D2E/DX2                !
 ! R15   R(8,13)                 1.6414         estimate D2E/DX2                !
 ! R16   R(8,14)                 1.6742         estimate D2E/DX2                !
 ! R17   R(8,15)                 1.6395         estimate D2E/DX2                !
 ! R18   R(9,10)                 1.6509         estimate D2E/DX2                !
 ! R19   R(9,11)                 1.6574         estimate D2E/DX2                !
 ! R20   R(9,12)                 1.6499         estimate D2E/DX2                !
 ! R21   R(10,23)                0.9639         estimate D2E/DX2                !
 ! R22   R(11,24)                0.9637         estimate D2E/DX2                !
 ! R23   R(12,22)                0.9636         estimate D2E/DX2                !
 ! R24   R(13,25)                0.9741         estimate D2E/DX2                !
 ! R25   R(14,27)                0.9767         estimate D2E/DX2                !
 ! R26   R(15,26)                0.9633         estimate D2E/DX2                !
 ! R27   R(16,32)                0.9637         estimate D2E/DX2                !
 ! R28   R(17,33)                0.9838         estimate D2E/DX2                !
 ! R29   R(18,31)                0.9639         estimate D2E/DX2                !
 ! R30   R(19,30)                0.9654         estimate D2E/DX2                !
 ! R31   R(20,28)                0.964          estimate D2E/DX2                !
 ! R32   R(21,29)                0.9802         estimate D2E/DX2                !
 ! A1    A(2,1,3)              106.0959         estimate D2E/DX2                !
 ! A2    A(2,1,4)              103.2214         estimate D2E/DX2                !
 ! A3    A(2,1,5)              112.8091         estimate D2E/DX2                !
 ! A4    A(3,1,4)              105.0977         estimate D2E/DX2                !
 ! A5    A(3,1,5)              115.6243         estimate D2E/DX2                !
 ! A6    A(4,1,5)              112.9055         estimate D2E/DX2                !
 ! A7    A(1,2,8)              141.2479         estimate D2E/DX2                !
 ! A8    A(1,3,7)              148.2962         estimate D2E/DX2                !
 ! A9    A(1,4,6)              134.9216         estimate D2E/DX2                !
 ! A10   A(1,5,9)              164.275          Frozen                          !
 ! A11   A(4,6,16)             109.9952         estimate D2E/DX2                !
 ! A12   A(4,6,17)             109.7479         estimate D2E/DX2                !
 ! A13   A(4,6,18)             111.8422         estimate D2E/DX2                !
 ! A14   A(16,6,17)            114.9972         estimate D2E/DX2                !
 ! A15   A(16,6,18)            108.0658         estimate D2E/DX2                !
 ! A16   A(17,6,18)            101.9869         estimate D2E/DX2                !
 ! A17   A(3,7,19)             103.269          estimate D2E/DX2                !
 ! A18   A(3,7,20)             114.3706         estimate D2E/DX2                !
 ! A19   A(3,7,21)             111.9733         estimate D2E/DX2                !
 ! A20   A(19,7,20)            106.3205         estimate D2E/DX2                !
 ! A21   A(19,7,21)            112.6973         estimate D2E/DX2                !
 ! A22   A(20,7,21)            108.1076         estimate D2E/DX2                !
 ! A23   A(2,8,13)             111.4365         estimate D2E/DX2                !
 ! A24   A(2,8,14)             107.7362         estimate D2E/DX2                !
 ! A25   A(2,8,15)             107.5759         estimate D2E/DX2                !
 ! A26   A(13,8,14)            110.4391         estimate D2E/DX2                !
 ! A27   A(13,8,15)            110.7606         estimate D2E/DX2                !
 ! A28   A(14,8,15)            108.7751         estimate D2E/DX2                !
 ! A29   A(5,9,10)             113.777          estimate D2E/DX2                !
 ! A30   A(5,9,11)             110.2317         estimate D2E/DX2                !
 ! A31   A(5,9,12)             105.0573         estimate D2E/DX2                !
 ! A32   A(10,9,11)            105.2123         estimate D2E/DX2                !
 ! A33   A(10,9,12)            108.4598         estimate D2E/DX2                !
 ! A34   A(11,9,12)            114.3199         estimate D2E/DX2                !
 ! A35   A(9,10,23)            115.8443         estimate D2E/DX2                !
 ! A36   A(9,11,24)            117.3549         estimate D2E/DX2                !
 ! A37   A(9,12,22)            116.8568         estimate D2E/DX2                !
 ! A38   A(8,13,25)            116.8991         estimate D2E/DX2                !
 ! A39   A(8,14,27)            114.056          estimate D2E/DX2                !
 ! A40   A(8,15,26)            117.2166         estimate D2E/DX2                !
 ! A41   A(6,16,32)            116.4907         estimate D2E/DX2                !
 ! A42   A(6,17,33)            117.1859         estimate D2E/DX2                !
 ! A43   A(6,18,31)            116.3076         estimate D2E/DX2                !
 ! A44   A(7,19,30)            115.1373         estimate D2E/DX2                !
 ! A45   A(7,20,28)            116.1676         estimate D2E/DX2                !
 ! A46   A(7,21,29)            116.2372         estimate D2E/DX2                !
 ! D1    D(3,1,2,8)             57.7292         estimate D2E/DX2                !
 ! D2    D(4,1,2,8)            -52.5301         estimate D2E/DX2                !
 ! D3    D(5,1,2,8)           -174.7067         estimate D2E/DX2                !
 ! D4    D(2,1,3,7)            -50.098          estimate D2E/DX2                !
 ! D5    D(4,1,3,7)             58.8315         estimate D2E/DX2                !
 ! D6    D(5,1,3,7)           -175.9641         estimate D2E/DX2                !
 ! D7    D(2,1,4,6)             42.7683         estimate D2E/DX2                !
 ! D8    D(3,1,4,6)            -68.2312         estimate D2E/DX2                !
 ! D9    D(5,1,4,6)            164.8802         estimate D2E/DX2                !
 ! D10   D(2,1,5,9)           -124.3643         estimate D2E/DX2                !
 ! D11   D(3,1,5,9)             -2.0011         Frozen                          !
 ! D12   D(4,1,5,9)            119.0811         estimate D2E/DX2                !
 ! D13   D(1,2,8,13)            93.5308         estimate D2E/DX2                !
 ! D14   D(1,2,8,14)           -27.7655         estimate D2E/DX2                !
 ! D15   D(1,2,8,15)          -144.8802         estimate D2E/DX2                !
 ! D16   D(1,3,7,19)           -61.1012         estimate D2E/DX2                !
 ! D17   D(1,3,7,20)          -176.1751         estimate D2E/DX2                !
 ! D18   D(1,3,7,21)            60.409          estimate D2E/DX2                !
 ! D19   D(1,4,6,16)           160.167          estimate D2E/DX2                !
 ! D20   D(1,4,6,17)            32.6925         estimate D2E/DX2                !
 ! D21   D(1,4,6,18)           -79.742          estimate D2E/DX2                !
 ! D22   D(1,5,9,10)          -100.1285         estimate D2E/DX2                !
 ! D23   D(1,5,9,11)           141.9692         estimate D2E/DX2                !
 ! D24   D(1,5,9,12)            18.3503         Frozen                          !
 ! D25   D(4,6,16,32)          -14.1998         estimate D2E/DX2                !
 ! D26   D(17,6,16,32)         110.2979         estimate D2E/DX2                !
 ! D27   D(18,6,16,32)        -136.5531         estimate D2E/DX2                !
 ! D28   D(4,6,17,33)           51.0095         estimate D2E/DX2                !
 ! D29   D(16,6,17,33)         -73.6179         estimate D2E/DX2                !
 ! D30   D(18,6,17,33)         169.7166         estimate D2E/DX2                !
 ! D31   D(4,6,18,31)          -96.4424         estimate D2E/DX2                !
 ! D32   D(16,6,18,31)          24.7715         estimate D2E/DX2                !
 ! D33   D(17,6,18,31)         146.349          estimate D2E/DX2                !
 ! D34   D(3,7,19,30)         -162.1837         estimate D2E/DX2                !
 ! D35   D(20,7,19,30)         -41.4662         estimate D2E/DX2                !
 ! D36   D(21,7,19,30)          76.796          estimate D2E/DX2                !
 ! D37   D(3,7,20,28)          -98.427          estimate D2E/DX2                !
 ! D38   D(19,7,20,28)         148.2947         estimate D2E/DX2                !
 ! D39   D(21,7,20,28)          27.0455         estimate D2E/DX2                !
 ! D40   D(3,7,21,29)          -49.8995         estimate D2E/DX2                !
 ! D41   D(19,7,21,29)          66.0156         estimate D2E/DX2                !
 ! D42   D(20,7,21,29)        -176.7753         estimate D2E/DX2                !
 ! D43   D(2,8,13,25)          -58.468          estimate D2E/DX2                !
 ! D44   D(14,8,13,25)          61.2404         estimate D2E/DX2                !
 ! D45   D(15,8,13,25)        -178.1888         estimate D2E/DX2                !
 ! D46   D(2,8,14,27)           80.2918         estimate D2E/DX2                !
 ! D47   D(13,8,14,27)         -41.6247         estimate D2E/DX2                !
 ! D48   D(15,8,14,27)        -163.3756         estimate D2E/DX2                !
 ! D49   D(2,8,15,26)         -174.1994         estimate D2E/DX2                !
 ! D50   D(13,8,15,26)         -52.1897         estimate D2E/DX2                !
 ! D51   D(14,8,15,26)          69.3652         estimate D2E/DX2                !
 ! D52   D(5,9,10,23)          -94.8509         estimate D2E/DX2                !
 ! D53   D(11,9,10,23)          25.9074         estimate D2E/DX2                !
 ! D54   D(12,9,10,23)         148.6394         estimate D2E/DX2                !
 ! D55   D(5,9,11,24)          -43.8206         estimate D2E/DX2                !
 ! D56   D(10,9,11,24)        -166.8802         estimate D2E/DX2                !
 ! D57   D(12,9,11,24)          74.2393         estimate D2E/DX2                !
 ! D58   D(5,9,12,22)         -166.4778         estimate D2E/DX2                !
 ! D59   D(10,9,12,22)         -44.4748         estimate D2E/DX2                !
 ! D60   D(11,9,12,22)          72.5537         estimate D2E/DX2                !
 --------------------------------------------------------------------------------
 Trust Radius=3.00D-01 FncErr=1.00D-07 GrdErr=1.00D-06 EigMax=2.50D+02 EigMin=1.00D-04
 Number of steps in this run=    148 maximum allowed number of steps=    198.
 GradGradGradGradGradGradGradGradGradGradGradGradGradGradGradGradGradGrad

                          Input orientation:                          
 ---------------------------------------------------------------------
 Center     Atomic      Atomic             Coordinates (Angstroms)
 Number     Number       Type             X           Y           Z
 ---------------------------------------------------------------------
      1         40           0        0.657790   -0.125060   -0.071640
      2          8           0       -0.222850   -0.906240    1.477300
      3          8           0        0.103020    1.747480   -0.122990
      4          8           0       -0.268300   -0.978850   -1.597050
      5          8           0        2.592060   -0.436300   -0.082840
      6         14           0       -1.831190   -1.332440   -1.953600
      7         14           0       -1.115500    2.841720   -0.082790
      8         14           0       -1.723760   -1.152910    2.115170
      9         14           0        4.217370   -0.249610   -0.121460
     10          8           0        4.884950   -0.533760   -1.604410
     11          8           0        4.943500   -1.336280    0.897800
     12          8           0        4.476760    1.331010    0.274030
     13          8           0       -2.319240   -2.624000    1.696270
     14          8           0       -2.724220    0.065080    1.550860
     15          8           0       -1.597340   -1.019570    3.744390
     16          8           0       -2.001440   -1.559650   -3.577820
     17          8           0       -2.825090   -0.186760   -1.301450
     18          8           0       -2.344480   -2.714390   -1.182770
     19          8           0       -2.040460    2.439570   -1.430230
     20          8           0       -0.635650    4.400490   -0.299870
     21          8           0       -1.965510    2.760860    1.313830
     22          1           0        5.359080    1.681700    0.109730
     23          1           0        5.222040   -1.425040   -1.749670
     24          1           0        4.549000   -1.458610    1.768470
     25          1           0       -2.405770   -2.809510    0.743920
     26          1           0       -2.381370   -1.224230    4.265350
     27          1           0       -3.060340   -0.083060    0.645890
     28          1           0       -0.527310    4.927280    0.500150
     29          1           0       -2.269090    1.869320    1.585330
     30          1           0       -2.648540    3.126760   -1.730140
     31          1           0       -2.304520   -3.529520   -1.695620
     32          1           0       -1.271140   -1.263050   -4.132230
     33          1           0       -2.610260    0.754610   -1.489930
 ---------------------------------------------------------------------
                    Distance matrix (angstroms):
                    1          2          3          4          5
     1  Zr   0.000000
     2  O    1.945504   0.000000
     3  O    1.953666   3.115983   0.000000
     4  O    1.978251   3.075543   3.121475   0.000000
     5  O    1.959183   3.252476   3.311469   3.281593   0.000000
     6  Si   3.345827   3.813067   4.071635   1.641578   4.885484
     7  Si   3.456366   4.156670   1.638221   4.196128   4.948880
     8  Si   3.392697   1.649380   4.093745   3.991145   4.896027
     9  Si   3.562107   4.764740   4.573428   4.778116   1.636453
    10  O    4.515008   5.977064   5.501410   5.172441   2.753546
    11  O    4.557870   5.216505   5.829394   5.789205   2.702016
    12  O    4.101726   5.342236   4.411425   5.599285   2.608224
    13  O    4.270002   2.719099   5.318542   4.214123   5.663226
    14  O    3.755882   2.684348   3.691278   4.126823   5.584191
    15  O    4.521929   2.653632   5.050190   5.504452   5.704294
    16  O    4.628483   5.398571   5.225104   2.695283   5.880225
    17  O    3.694143   3.874372   3.701875   2.692947   5.558129
    18  O    4.117386   3.853141   5.198238   2.737563   5.546978
    19  O    3.962783   4.790812   2.604299   3.854086   5.616612
    20  O    4.712290   5.611606   2.759598   5.545712   5.818913
    21  O    4.138812   4.063399   2.714813   5.033803   5.739683
    22  H    5.039782   6.302827   5.261621   6.454381   3.489901
    23  H    5.033698   6.350537   6.238216   5.510555   3.266914
    24  H    4.506204   4.812530   5.798566   5.896039   2.881333
    25  H    4.154132   2.987545   5.273682   3.660633   5.594101
    26  H    5.408711   3.540275   5.853271   6.236426   6.653014
    27  H    3.786965   3.069237   3.734823   3.691708   5.710118
    28  H    5.220876   5.922624   3.301022   6.272775   6.232041
    29  H    3.910208   3.450000   2.925766   4.716225   5.632890
    30  H    4.925117   5.695325   3.472237   4.747556   6.547739
    31  H    4.796138   4.613282   6.009671   3.265245   6.012118
    32  H    4.637260   5.717784   5.198616   2.741094   5.657331
    33  H    3.669539   4.154829   3.196280   2.915671   5.519266
                    6          7          8          9         10
     6  Si   0.000000
     7  Si   4.629876   0.000000
     8  Si   4.074145   4.599791   0.000000
     9  Si   6.412046   6.164197   6.412136   0.000000
    10  O    6.772471   7.050858   7.608789   1.650922   0.000000
    11  O    7.350301   7.424872   6.779968   1.657410   2.628407
    12  O    7.200454   5.803700   6.928644   1.649865   2.678157
    13  O    3.902290   5.872660   1.641396   7.188125   8.195361
    14  O    3.877087   3.600906   1.674176   7.147122   8.259165
    15  O    5.711363   5.457933   1.639549   7.024848   8.418180
    16  O    1.648848   5.689656   5.714252   7.234378   7.236654
    17  O    1.650975   3.685040   3.717481   7.140908   7.723789
    18  O    1.663560   5.795749   3.701340   7.089386   7.562909
    19  O    3.813892   1.683113   5.057279   6.935777   7.538722
    20  O    6.085279   1.645340   6.152776   6.723620   7.518356
    21  O    5.239203   1.636949   4.002272   7.025026   8.142447
    22  H    8.064884   6.580494   7.888183   2.255418   2.841010
    23  H    7.056785   7.819728   7.953313   2.245454   0.963904
    24  H    7.387594   7.348916   6.289767   2.267927   3.513478
    25  H    3.128657   5.855309   2.256056   7.153178   7.990512
    26  H    6.244177   6.086107   2.249625   7.983568   9.366442
    27  H    3.135141   3.587160   2.256060   7.319947   8.270104
    28  H    6.848729   2.243958   6.403787   7.049722   7.971492
    29  H    4.792395   2.249212   3.116406   7.034000   8.193261
    30  H    4.538993   2.268308   5.827281   7.818468   8.376675
    31  H    2.262246   6.678899   4.528540   7.467988   7.789183
    32  H    2.250533   5.768130   6.264743   6.872924   6.694713
    33  H    2.275460   2.927521   4.173878   7.035460   7.605996
                   11         12         13         14         15
    11  O    0.000000
    12  O    2.778736   0.000000
    13  O    7.419108   7.990650   0.000000
    14  O    7.822035   7.422061   2.723289   0.000000
    15  O    7.140446   7.379927   2.700024   2.694049   0.000000
    16  O    8.265184   8.072158   5.389792   5.428215   7.353213
    17  O    8.155310   7.622518   3.896453   2.865182   5.259415
    18  O    7.703416   8.063302   2.880569   3.916936   5.263795
    19  O    8.273600   6.826973   5.957555   3.872032   6.240088
    20  O    8.091468   5.990643   7.494165   5.155881   6.830662
    21  O    8.043262   6.680456   5.410000   2.810526   4.509415
    22  H    3.146739   0.963570   8.944985   8.368396   8.300566
    23  H    2.663562   3.499516   8.377524   8.732526   8.766587
    24  H    0.963671   3.165525   6.966783   7.434293   6.471052
    25  H    7.497056   8.045739   0.974101   3.002637   3.586121
    26  H    8.062671   8.336296   2.926327   3.024619   0.963321
    27  H    8.105274   7.677614   2.847614   0.976674   3.552200
    28  H    8.325868   6.166442   7.852614   5.437959   6.858213
    29  H    7.922754   6.893169   4.494969   1.861079   3.668579
    30  H    9.190423   7.616516   6.702236   4.488271   6.947485
    31  H    8.004369   8.572633   3.510712   4.861783   6.032716
    32  H    7.995518   7.693025   6.076357   6.014390   7.887131
    33  H    8.193434   7.325957   4.653125   3.120071   5.618881
                   16         17         18         19         20
    16  O    0.000000
    17  O    2.783000   0.000000
    18  O    2.680926   2.575652   0.000000
    19  O    4.539540   2.744055   5.168846   0.000000
    20  O    6.937839   5.180702   7.370287   2.663909   0.000000
    21  O    6.526587   4.033241   6.029510   2.763822   2.657243
    22  H    8.847691   8.512533   8.963314   7.595988   6.595178
    23  H    7.452444   8.154173   7.696494   8.232931   8.387565
    24  H    8.455844   8.088215   7.603083   8.297498   8.092446
    25  H    4.516976   3.352340   1.930010   5.693261   7.497128
    26  H    7.859527   5.680008   5.648358   6.780802   7.451594
    27  H    4.597968   1.964238   3.283344   3.422586   5.184188
    28  H    7.802766   5.888884   8.033022   3.493521   0.963990
    29  H    6.203837   3.587492   5.355227   3.077509   3.553720
    30  H    5.078888   3.345797   5.874615   0.965369   2.778450
    31  H    2.741336   3.405937   0.963872   5.980819   8.223035
    32  H    0.963680   3.403891   3.458000   4.647801   6.867788
    33  H    3.175806   0.983796   3.492699   1.779698   4.313672
                   21         22         23         24         25
    21  O    0.000000
    22  H    7.500937   0.000000
    23  H    8.863840   3.623256   0.000000
    24  H    7.774925   3.642691   3.582097   0.000000
    25  H    5.616729   8.992556   8.143601   7.158454   0.000000
    26  H    4.976480   9.253549   9.697043   7.370168   3.861888
    27  H    3.119724   8.619076   8.725677   7.813730   2.805637
    28  H    2.724678   6.733187   8.858255   8.255734   7.965297
    29  H    0.980162   7.771845   8.836971   7.589138   4.755849
    30  H    3.141045   8.342380   9.092046   9.223366   6.435776
    31  H    6.981447   9.441762   7.815425   7.953573   2.545589
    32  H    6.806877   8.403904   6.918397   8.290388   5.239825
    33  H    3.507394   8.181002   8.134080   8.171323   4.211277
                   26         27         28         29         30
    26  H    0.000000
    27  H    3.855355   0.000000
    28  H    7.446835   5.616136   0.000000
    29  H    4.094529   2.306602   3.682734   0.000000
    30  H    7.412718   4.014728   3.565906   3.566157   0.000000
    31  H    6.391669   4.234622   8.916129   6.317702   6.665254
    32  H    8.470742   5.236797   7.767394   6.595312   5.190154
    33  H    6.090275   2.337946   5.070530   3.288799   2.384588
                   31         32         33
    31  H    0.000000
    32  H    3.484513   0.000000
    33  H    4.299948   3.584124   0.000000
 Stoichiometry    H12O16Si4Zr
 Framework group  C1[X(H12O16Si4Zr)]
 Deg. of freedom    93
 Full point group                 C1      NOp   1
 Largest Abelian subgroup         C1      NOp   1
 Largest concise Abelian subgroup C1      NOp   1
                         Standard orientation:                         
 ---------------------------------------------------------------------
 Center     Atomic      Atomic             Coordinates (Angstroms)
 Number     Number       Type             X           Y           Z
 ---------------------------------------------------------------------
      1         40           0        0.658220   -0.129658   -0.022304
      2          8           0       -0.272931   -0.901406    1.501621
      3          8           0        0.110318    1.744008   -0.099708
      4          8           0       -0.221536   -0.988216   -1.572267
      5          8           0        2.591047   -0.445798    0.028987
      6         14           0       -1.773329   -1.339541   -1.976356
      7         14           0       -1.105955    2.841476   -0.103001
      8         14           0       -1.793872   -1.141338    2.092914
      9         14           0        4.217256   -0.263367    0.040840
     10          8           0        4.930543   -0.556093   -1.418981
     11          8           0        4.907974   -1.347097    1.087476
     12          8           0        4.468231    1.318422    0.437087
     13          8           0       -2.379738   -2.612864    1.662159
     14          8           0       -2.772790    0.076517    1.491736
     15          8           0       -1.718573   -1.000731    3.724686
     16          8           0       -1.892842   -1.573884   -3.604084
     17          8           0       -2.784269   -0.188348   -1.361155
     18          8           0       -2.314354   -2.716595   -1.215800
     19          8           0       -1.988998    2.435378   -1.477115
     20          8           0       -0.615359    4.398010   -0.311953
     21          8           0       -1.999826    2.769253    1.266445
     22          1           0        5.356224    1.666129    0.299119
     23          1           0        5.269683   -1.448882   -1.549448
     24          1           0        4.485872   -1.464382    1.945809
     25          1           0       -2.436665   -2.802589    0.708410
     26          1           0       -2.519193   -1.200996    4.221566
     27          1           0       -3.080577   -0.074992    0.577294
     28          1           0       -0.530921    4.928246    0.488670
     29          1           0       -2.314187    1.879751    1.532302
     30          1           0       -2.585486    3.122687   -1.799212
     31          1           0       -2.260393   -3.534202   -1.723398
     32          1           0       -1.144626   -1.281701   -4.136515
     33          1           0       -2.561101    0.751593   -1.547063
 ---------------------------------------------------------------------
 Rotational constants (GHZ):           0.2124850           0.1337739           0.1240186
 General basis read from cards:  (5D, 7F)
 ======================================================================================================
                                       Pseudopotential Parameters
 ======================================================================================================
  Center     Atomic      Valence      Angular      Power
  Number     Number     Electrons     Momentum     of R      Exponent        Coefficient   SO-Coeffient
 ======================================================================================================
    1         40           12
                                      G and up 
                                                     2        1.0000000        0.00000000    0.00000000
                                      S - G
                                                     2        8.6365280      150.24299400    0.00000000
                                                     2        3.7176390       18.78003600    0.00000000
                                      P - G
                                                     2        7.6267280       33.19279100    0.00000000
                                                     2        7.4532070       66.38903900    0.00000000
                                                     2        3.3583890        4.62072600    0.00000000
                                                     2        3.2297380        9.26027000    0.00000000
                                      D - G
                                                     2        5.9380860       13.99338300    0.00000000
                                                     2        5.8255440       20.99588200    0.00000000
                                                     2        2.2050190        2.28516600    0.00000000
                                                     2        2.2062920        3.44126000    0.00000000
                                      F - G
                                                     2        4.8002150       -5.23932000    0.00000000
                                                     2        4.7989920       -6.98742400    0.00000000
    2          8
                                   No pseudopotential on this center.
    3          8
                                   No pseudopotential on this center.
    4          8
                                   No pseudopotential on this center.
    5          8
                                   No pseudopotential on this center.
    6         14
                                   No pseudopotential on this center.
    7         14
                                   No pseudopotential on this center.
    8         14
                                   No pseudopotential on this center.
    9         14
                                   No pseudopotential on this center.
   10          8
                                   No pseudopotential on this center.
   11          8
                                   No pseudopotential on this center.
   12          8
                                   No pseudopotential on this center.
   13          8
                                   No pseudopotential on this center.
   14          8
                                   No pseudopotential on this center.
   15          8
                                   No pseudopotential on this center.
   16          8
                                   No pseudopotential on this center.
   17          8
                                   No pseudopotential on this center.
   18          8
                                   No pseudopotential on this center.
   19          8
                                   No pseudopotential on this center.
   20          8
                                   No pseudopotential on this center.
   21          8
                                   No pseudopotential on this center.
   22          1
                                   No pseudopotential on this center.
   23          1
                                   No pseudopotential on this center.
   24          1
                                   No pseudopotential on this center.
   25          1
                                   No pseudopotential on this center.
   26          1
                                   No pseudopotential on this center.
   27          1
                                   No pseudopotential on this center.
   28          1
                                   No pseudopotential on this center.
   29          1
                                   No pseudopotential on this center.
   30          1
                                   No pseudopotential on this center.
   31          1
                                   No pseudopotential on this center.
   32          1
                                   No pseudopotential on this center.
   33          1
                                   No pseudopotential on this center.
 ======================================================================================================
 There are   570 symmetry adapted cartesian basis functions of A   symmetry.
 There are   524 symmetry adapted basis functions of A   symmetry.
   524 basis functions,  1074 primitive gaussians,   570 cartesian basis functions
   104 alpha electrons      104 beta electrons
       nuclear repulsion energy      2832.8721488421 Hartrees.
 NAtoms=   33 NActive=   33 NUniq=   33 SFac= 1.00D+00 NAtFMM=   60 NAOKFM=F Big=F
 Integral buffers will be    131072 words long.
 Raffenetti 2 integral format.
 Two-electron integral symmetry is turned on.
 Nuclear repulsion after empirical dispersion term =     2832.8313399597 Hartrees.
 One-electron integrals computed using PRISM.
 PrsmSu:  requested number of processors reduced to:   4 ShMem   1 Linda.
   1 Symmetry operations used in ECPInt.
 ECPInt:  NShTT=   13203 NPrTT=   78401 LenC2=   11533 LenP2D=   44640.
 LDataN:  DoStor=T MaxTD1= 8 Len=  415
 Number of processors reduced to  13 by ecpmxn.
 NBasis=   524 RedAO= T EigKep=  3.07D-05  NBF=   524
 NBsUse=   524 1.00D-06 EigRej= -1.00D+00 NBFU=   524
 Defaulting to unpruned grid for atomic number  40.
 ExpMin= 1.01D-02 ExpMax= 1.61D+04 ExpMxC= 2.43D+03 IAcc=3 IRadAn=         5 AccDes= 0.00D+00
 Harris functional with IExCor=  402 and IRadAn=       5 diagonalized for initial guess.
 HarFok:  IExCor=  402 AccDes= 0.00D+00 IRadAn=         5 IDoV= 1 UseB2=F ITyADJ=14
 ICtDFT=  3500011 ScaDFX=  1.000000  1.000000  1.000000  1.000000
 Defaulting to unpruned grid for atomic number  40.
 FoFCou: FMM=F IPFlag=           0 FMFlag=      100000 FMFlg1=           0
         NFxFlg=           0 DoJE=T BraDBF=F KetDBF=T FulRan=T
         wScrn=  0.000000 ICntrl=       500 IOpCl=  0 I1Cent=   200000004 NGrid=           0
         NMat0=    1 NMatS0=      1 NMatT0=    0 NMatD0=    1 NMtDS0=    0 NMtDT0=    0
 Petite list used in FoFCou.
 Requested convergence on RMS density matrix=1.00D-08 within 128 cycles.
 Requested convergence on MAX density matrix=1.00D-06.
 Requested convergence on             energy=1.00D-06.
 No special actions if energy rises.
 Defaulting to unpruned grid for atomic number  40.
 Defaulting to unpruned grid for atomic number  40.
 Defaulting to unpruned grid for atomic number  40.
 Defaulting to unpruned grid for atomic number  40.
 Defaulting to unpruned grid for atomic number  40.
 Defaulting to unpruned grid for atomic number  40.
 Defaulting to unpruned grid for atomic number  40.
 Defaulting to unpruned grid for atomic number  40.
 Defaulting to unpruned grid for atomic number  40.
 Defaulting to unpruned grid for atomic number  40.
 Defaulting to unpruned grid for atomic number  40.
 Defaulting to unpruned grid for atomic number  40.
 Defaulting to unpruned grid for atomic number  40.
 Defaulting to unpruned grid for atomic number  40.
 Defaulting to unpruned grid for atomic number  40.
 Defaulting to unpruned grid for atomic number  40.
 SCF Done:  E(RB3LYP) =  -2416.94677578     A.U. after   14 cycles
            NFock= 14  Conv=0.26D-08     -V/T= 2.0185

 **********************************************************************

            Population analysis using the SCF Density.

 **********************************************************************

 Orbital symmetries:
       Occupied  (A) (A) (A) (A) (A) (A) (A) (A) (A) (A) (A) (A)
                 (A) (A) (A) (A) (A) (A) (A) (A) (A) (A) (A) (A)
                 (A) (A) (A) (A) (A) (A) (A) (A) (A) (A) (A) (A)
                 (A) (A) (A) (A) (A) (A) (A) (A) (A) (A) (A) (A)
                 (A) (A) (A) (A) (A) (A) (A) (A) (A) (A) (A) (A)
                 (A) (A) (A) (A) (A) (A) (A) (A) (A) (A) (A) (A)
                 (A) (A) (A) (A) (A) (A) (A) (A) (A) (A) (A) (A)
                 (A) (A) (A) (A) (A) (A) (A) (A) (A) (A) (A) (A)
                 (A) (A) (A) (A) (A) (A) (A) (A)
       Virtual   (A) (A) (A) (A) (A) (A) (A) (A) (A) (A) (A) (A)
                 (A) (A) (A) (A) (A) (A) (A) (A) (A) (A) (A) (A)
                 (A) (A) (A) (A) (A) (A) (A) (A) (A) (A) (A) (A)
                 (A) (A) (A) (A) (A) (A) (A) (A) (A) (A) (A) (A)
                 (A) (A) (A) (A) (A) (A) (A) (A) (A) (A) (A) (A)
                 (A) (A) (A) (A) (A) (A) (A) (A) (A) (A) (A) (A)
                 (A) (A) (A) (A) (A) (A) (A) (A) (A) (A) (A) (A)
                 (A) (A) (A) (A) (A) (A) (A) (A) (A) (A) (A) (A)
                 (A) (A) (A) (A) (A) (A) (A) (A) (A) (A) (A) (A)
                 (A) (A) (A) (A) (A) (A) (A) (A) (A) (A) (A) (A)
                 (A) (A) (A) (A) (A) (A) (A) (A) (A) (A) (A) (A)
                 (A) (A) (A) (A) (A) (A) (A) (A) (A) (A) (A) (A)
                 (A) (A) (A) (A) (A) (A) (A) (A) (A) (A) (A) (A)
                 (A) (A) (A) (A) (A) (A) (A) (A) (A) (A) (A) (A)
                 (A) (A) (A) (A) (A) (A) (A) (A) (A) (A) (A) (A)
                 (A) (A) (A) (A) (A) (A) (A) (A) (A) (A) (A) (A)
                 (A) (A) (A) (A) (A) (A) (A) (A) (A) (A) (A) (A)
                 (A) (A) (A) (A) (A) (A) (A) (A) (A) (A) (A) (A)
                 (A) (A) (A) (A) (A) (A) (A) (A) (A) (A) (A) (A)
                 (A) (A) (A) (A) (A) (A) (A) (A) (A) (A) (A) (A)
                 (A) (A) (A) (A) (A) (A) (A) (A) (A) (A) (A) (A)
                 (A) (A) (A) (A) (A) (A) (A) (A) (A) (A) (A) (A)
                 (A) (A) (A) (A) (A) (A) (A) (A) (A) (A) (A) (A)
                 (A) (A) (A) (A) (A) (A) (A) (A) (A) (A) (A) (A)
                 (A) (A) (A) (A) (A) (A) (A) (A) (A) (A) (A) (A)
                 (A) (A) (A) (A) (A) (A) (A) (A) (A) (A) (A) (A)
                 (A) (A) (A) (A) (A) (A) (A) (A) (A) (A) (A) (A)
                 (A) (A) (A) (A) (A) (A) (A) (A) (A) (A) (A) (A)
                 (A) (A) (A) (A) (A) (A) (A) (A) (A) (A) (A) (A)
                 (A) (A) (A) (A) (A) (A) (A) (A) (A) (A) (A) (A)
                 (A) (A) (A) (A) (A) (A) (A) (A) (A) (A) (A) (A)
                 (A) (A) (A) (A) (A) (A) (A) (A) (A) (A) (A) (A)
                 (A) (A) (A) (A) (A) (A) (A) (A) (A) (A) (A) (A)
                 (A) (A) (A) (A) (A) (A) (A) (A) (A) (A) (A) (A)
                 (A) (A) (A) (A) (A) (A) (A) (A) (A) (A) (A) (A)
 The electronic state is 1-A.
 Alpha  occ. eigenvalues --  -66.22780 -66.21758 -66.21495 -66.21045 -19.18565
 Alpha  occ. eigenvalues --  -19.18347 -19.17753 -19.17010 -19.16734 -19.16526
 Alpha  occ. eigenvalues --  -19.16453 -19.16237 -19.16191 -19.16023 -19.15991
 Alpha  occ. eigenvalues --  -19.15501 -19.15337 -19.15257 -19.14912 -19.14700
 Alpha  occ. eigenvalues --   -5.36840  -5.35839  -5.35572  -5.35105  -3.72824
 Alpha  occ. eigenvalues --   -3.72797  -3.72751  -3.71830  -3.71783  -3.71748
 Alpha  occ. eigenvalues --   -3.71540  -3.71532  -3.71492  -3.71070  -3.71061
 Alpha  occ. eigenvalues --   -3.71035  -2.13360  -1.29602  -1.29518  -1.29365
 Alpha  occ. eigenvalues --   -1.05658  -1.04772  -1.04157  -1.03506  -1.02536
 Alpha  occ. eigenvalues --   -1.02161  -1.01465  -1.00924  -1.00769  -1.00678
 Alpha  occ. eigenvalues --   -0.99841  -0.99306  -0.97361  -0.96271  -0.95728
 Alpha  occ. eigenvalues --   -0.95403  -0.60967  -0.59161  -0.58980  -0.58500
 Alpha  occ. eigenvalues --   -0.55513  -0.54528  -0.53865  -0.53050  -0.53001
 Alpha  occ. eigenvalues --   -0.52493  -0.52159  -0.51695  -0.48755  -0.47607
 Alpha  occ. eigenvalues --   -0.47201  -0.46721  -0.43364  -0.42649  -0.41847
 Alpha  occ. eigenvalues --   -0.41390  -0.41095  -0.40514  -0.39803  -0.39373
 Alpha  occ. eigenvalues --   -0.38796  -0.38688  -0.38625  -0.38146  -0.38019
 Alpha  occ. eigenvalues --   -0.37634  -0.37456  -0.37243  -0.36561  -0.36389
 Alpha  occ. eigenvalues --   -0.36021  -0.35598  -0.35526  -0.35096  -0.34868
 Alpha  occ. eigenvalues --   -0.34599  -0.34034  -0.33661  -0.33520  -0.33213
 Alpha  occ. eigenvalues --   -0.32850  -0.32185  -0.32052  -0.31296
 Alpha virt. eigenvalues --   -0.04313  -0.03178  -0.03035  -0.02752  -0.02086
 Alpha virt. eigenvalues --   -0.01165  -0.00543  -0.00084   0.00041   0.00321
 Alpha virt. eigenvalues --    0.00767   0.00901   0.01055   0.01936   0.02334
 Alpha virt. eigenvalues --    0.03307   0.03395   0.03833   0.03994   0.04014
 Alpha virt. eigenvalues --    0.04251   0.04594   0.05388   0.05907   0.06257
 Alpha virt. eigenvalues --    0.06546   0.07070   0.07488   0.07712   0.08648
 Alpha virt. eigenvalues --    0.08774   0.09118   0.09238   0.09672   0.09927
 Alpha virt. eigenvalues --    0.10245   0.10720   0.10911   0.11351   0.11755
 Alpha virt. eigenvalues --    0.11802   0.12635   0.13041   0.13327   0.13400
 Alpha virt. eigenvalues --    0.14028   0.14585   0.14781   0.15005   0.15256
 Alpha virt. eigenvalues --    0.15359   0.15676   0.16255   0.16645   0.16900
 Alpha virt. eigenvalues --    0.17349   0.17590   0.17776   0.18185   0.18310
 Alpha virt. eigenvalues --    0.18694   0.19127   0.19353   0.19658   0.19839
 Alpha virt. eigenvalues --    0.20012   0.20288   0.20486   0.20818   0.21308
 Alpha virt. eigenvalues --    0.21723   0.22184   0.22249   0.22444   0.22643
 Alpha virt. eigenvalues --    0.23149   0.23703   0.24038   0.24128   0.24524
 Alpha virt. eigenvalues --    0.24731   0.25073   0.25600   0.25985   0.26279
 Alpha virt. eigenvalues --    0.26489   0.26862   0.26936   0.27129   0.27551
 Alpha virt. eigenvalues --    0.27851   0.28258   0.28535   0.28879   0.29114
 Alpha virt. eigenvalues --    0.29480   0.29669   0.29948   0.30292   0.30561
 Alpha virt. eigenvalues --    0.31000   0.31336   0.31549   0.31790   0.31924
 Alpha virt. eigenvalues --    0.32435   0.32667   0.33094   0.33400   0.33977
 Alpha virt. eigenvalues --    0.34579   0.35023   0.35312   0.35403   0.36440
 Alpha virt. eigenvalues --    0.36695   0.37608   0.38202   0.38503   0.38874
 Alpha virt. eigenvalues --    0.39670   0.39705   0.40378   0.40951   0.41495
 Alpha virt. eigenvalues --    0.42763   0.43136   0.43556   0.44177   0.44492
 Alpha virt. eigenvalues --    0.45438   0.45534   0.46184   0.46685   0.47308
 Alpha virt. eigenvalues --    0.48063   0.48467   0.48940   0.49383   0.49503
 Alpha virt. eigenvalues --    0.50021   0.50729   0.51286   0.51514   0.52889
 Alpha virt. eigenvalues --    0.54202   0.54288   0.55108   0.56324   0.57266
 Alpha virt. eigenvalues --    0.57948   0.58464   0.59015   0.59178   0.60398
 Alpha virt. eigenvalues --    0.61241   0.61866   0.62260   0.64374   0.65914
 Alpha virt. eigenvalues --    0.67339   0.68033   0.68376   0.68634   0.69468
 Alpha virt. eigenvalues --    0.69962   0.71284   0.73073   0.74747   0.74985
 Alpha virt. eigenvalues --    0.75441   0.77429   0.78630   0.78790   0.80107
 Alpha virt. eigenvalues --    0.80767   0.81271   0.82701   0.84293   0.85206
 Alpha virt. eigenvalues --    0.86286   0.87834   0.89051   0.90636   0.91342
 Alpha virt. eigenvalues --    0.94750   0.95643   0.96261   0.96811   0.97634
 Alpha virt. eigenvalues --    0.97941   0.98619   0.99138   0.99739   1.00501
 Alpha virt. eigenvalues --    1.00888   1.01654   1.02516   1.03311   1.04021
 Alpha virt. eigenvalues --    1.04371   1.05252   1.06611   1.06711   1.07945
 Alpha virt. eigenvalues --    1.09649   1.12388   1.15241   1.16235   1.16593
 Alpha virt. eigenvalues --    1.18760   1.19153   1.19790   1.20547   1.20826
 Alpha virt. eigenvalues --    1.21503   1.21608   1.22342   1.22877   1.23021
 Alpha virt. eigenvalues --    1.23425   1.23775   1.24470   1.25022   1.25709
 Alpha virt. eigenvalues --    1.26260   1.27141   1.27260   1.28080   1.28269
 Alpha virt. eigenvalues --    1.29019   1.29754   1.30151   1.30675   1.31553
 Alpha virt. eigenvalues --    1.32442   1.32823   1.32908   1.34192   1.34587
 Alpha virt. eigenvalues --    1.35325   1.35898   1.36893   1.37137   1.37658
 Alpha virt. eigenvalues --    1.39162   1.39751   1.40074   1.41084   1.41531
 Alpha virt. eigenvalues --    1.42818   1.43923   1.44457   1.44857   1.46235
 Alpha virt. eigenvalues --    1.47294   1.48629   1.50264   1.51300   1.52930
 Alpha virt. eigenvalues --    1.56609   1.57152   1.57669   1.59274   1.59899
 Alpha virt. eigenvalues --    1.60081   1.61203   1.61812   1.62296   1.63145
 Alpha virt. eigenvalues --    1.63196   1.63949   1.65066   1.65440   1.66601
 Alpha virt. eigenvalues --    1.66729   1.67878   1.69439   1.69966   1.70134
 Alpha virt. eigenvalues --    1.71135   1.71193   1.71710   1.72330   1.73639
 Alpha virt. eigenvalues --    1.74332   1.74949   1.75290   1.76184   1.77070
 Alpha virt. eigenvalues --    1.77236   1.77712   1.78158   1.78724   1.79392
 Alpha virt. eigenvalues --    1.80777   1.81517   1.82162   1.82464   1.82866
 Alpha virt. eigenvalues --    1.83635   1.85039   1.85179   1.85904   1.86883
 Alpha virt. eigenvalues --    1.87018   1.88116   1.88450   1.89861   1.90439
 Alpha virt. eigenvalues --    1.90936   1.91282   1.92339   1.92902   1.93836
 Alpha virt. eigenvalues --    1.94411   1.95123   1.95776   1.97386   1.98412
 Alpha virt. eigenvalues --    1.99203   2.00503   2.01191   2.02938   2.03649
 Alpha virt. eigenvalues --    2.06222   2.06622   2.07589   2.09564   2.10480
 Alpha virt. eigenvalues --    2.11023   2.13082   2.14069   2.15940   2.16611
 Alpha virt. eigenvalues --    2.17600   2.18727   2.19354   2.20680   2.26083
 Alpha virt. eigenvalues --    2.32859   2.33643   2.35131   2.39528   2.40386
 Alpha virt. eigenvalues --    2.41188   2.41535   2.41733   2.42783   2.43681
 Alpha virt. eigenvalues --    2.43947   2.45895   2.46750   2.47511   2.48892
 Alpha virt. eigenvalues --    2.50201   2.50325   2.51692   2.52842   2.53433
 Alpha virt. eigenvalues --    2.55542   2.57538   2.59424   2.60117   2.60641
 Alpha virt. eigenvalues --    2.61091   2.61749   2.61981   2.62319   2.62792
 Alpha virt. eigenvalues --    2.63067   2.64088   2.64529   2.64977   2.65981
 Alpha virt. eigenvalues --    2.66273   2.66563   2.67415   2.67494   2.69384
 Alpha virt. eigenvalues --    2.69836   2.70302   2.71208   2.71634   2.72326
 Alpha virt. eigenvalues --    2.72838   2.74231   2.75554   2.76753   2.77457
 Alpha virt. eigenvalues --    2.78957   2.80440   2.81546   2.82508   2.83180
 Alpha virt. eigenvalues --    2.83854   2.84741   2.86772   2.87792   2.88136
 Alpha virt. eigenvalues --    3.13788   3.19659   3.36128   3.40988   3.46756
 Alpha virt. eigenvalues --    3.47964   3.48443   3.48633   3.51057   3.51183
 Alpha virt. eigenvalues --    3.53031   3.54569   3.60295   3.61086   3.62064
 Alpha virt. eigenvalues --    3.66221   4.24555   4.58629   7.84947  31.29096
          Condensed to atoms (all electrons):
               1          2          3          4          5          6
     1  Zr  15.126347  -0.190544  -0.002980  -0.161428  -0.212681  -0.505064
     2  O   -0.190544   9.092465   0.020232  -0.041441  -0.057549   0.099452
     3  O   -0.002980   0.020232   8.834986   0.011706  -0.039025  -0.007983
     4  O   -0.161428  -0.041441   0.011706   8.834098  -0.055138  -0.690365
     5  O   -0.212681  -0.057549  -0.039025  -0.055138   9.446058  -0.003366
     6  Si  -0.505064   0.099452  -0.007983  -0.690365  -0.003366  13.923371
     7  Si  -0.613869  -0.025108  -0.877982  -0.004768  -0.032171   0.082654
     8  Si  -0.511845  -1.000703  -0.022651   0.078825  -0.013325  -0.047311
     9  Si  -0.320871  -0.043223  -0.029174  -0.038645  -1.298565   0.033680
    10  O   -0.009475   0.000903  -0.001810   0.001611   0.133902  -0.002122
    11  O   -0.049937   0.004447   0.002649   0.001178   0.316050  -0.001151
    12  O    0.023427   0.000526   0.004782   0.002303   0.178635  -0.001854
    13  O   -0.071384   0.194793   0.001803  -0.015276  -0.000589   0.043970
    14  O   -0.044436   0.272242  -0.016314  -0.008864   0.002418   0.035127
    15  O   -0.066585   0.288217  -0.000801   0.001165   0.000441  -0.003252
    16  O   -0.134815   0.004587  -0.000409   0.345658   0.003079  -0.414520
    17  O   -0.072615  -0.041643   0.006117   0.227849   0.001025  -0.470096
    18  O   -0.037939  -0.012922   0.003656   0.203236  -0.000554  -0.451885
    19  O   -0.014249   0.009721   0.260384   0.009814   0.002018  -0.002487
    20  O   -0.148231  -0.000517   0.163877  -0.000900   0.001377   0.008903
    21  O    0.030225   0.011978   0.148740   0.003272   0.000372  -0.009979
    22  H   -0.008988  -0.000019  -0.000045  -0.000014   0.006075   0.000076
    23  H   -0.007239  -0.000013  -0.000010  -0.000049  -0.024880   0.000034
    24  H   -0.005068  -0.000238  -0.000001  -0.000004  -0.005994  -0.000001
    25  H    0.020998  -0.020655  -0.000116  -0.000205   0.000018   0.001287
    26  H    0.007005   0.000483   0.000017  -0.000013  -0.000003  -0.000062
    27  H    0.009144  -0.019923   0.000823  -0.001863   0.000002   0.007679
    28  H    0.005354  -0.000011  -0.018764  -0.000014  -0.000016  -0.000275
    29  H    0.005972  -0.007305  -0.020479  -0.000154  -0.000073   0.000059
    30  H    0.001284  -0.000014   0.000258  -0.000450  -0.000008  -0.000977
    31  H    0.000507   0.000153  -0.000018  -0.018477  -0.000005   0.063351
    32  H    0.001566  -0.000020   0.000037   0.010255   0.000001   0.023800
    33  H   -0.016140   0.001002  -0.009893  -0.009418  -0.000102   0.053260
               7          8          9         10         11         12
     1  Zr  -0.613869  -0.511845  -0.320871  -0.009475  -0.049937   0.023427
     2  O   -0.025108  -1.000703  -0.043223   0.000903   0.004447   0.000526
     3  O   -0.877982  -0.022651  -0.029174  -0.001810   0.002649   0.004782
     4  O   -0.004768   0.078825  -0.038645   0.001611   0.001178   0.002303
     5  O   -0.032171  -0.013325  -1.298565   0.133902   0.316050   0.178635
     6  Si   0.082654  -0.047311   0.033680  -0.002122  -0.001151  -0.001854
     7  Si  13.787984   0.178568   0.021227  -0.000130  -0.000382   0.004543
     8  Si   0.178568  13.746458   0.025909  -0.000500   0.000595   0.000310
     9  Si   0.021227   0.025909  14.421926  -0.086038  -0.204322  -0.235976
    10  O   -0.000130  -0.000500  -0.086038   8.524588   0.020109   0.034695
    11  O   -0.000382   0.000595  -0.204322   0.020109   8.517028  -0.048337
    12  O    0.004543   0.000310  -0.235976   0.034695  -0.048337   8.596038
    13  O    0.008243  -0.088403   0.000858  -0.000001   0.000012   0.000011
    14  O    0.011606  -0.368295  -0.001290  -0.000001  -0.000002   0.000014
    15  O   -0.003526  -0.307978  -0.001103   0.000001  -0.000021  -0.000020
    16  O    0.003879  -0.008881  -0.000716  -0.000002  -0.000000  -0.000002
    17  O   -0.000923   0.097630   0.002208  -0.000005  -0.000002  -0.000005
    18  O   -0.000025   0.074516   0.004365  -0.000008  -0.000003  -0.000000
    19  O   -0.396319  -0.013256   0.001156   0.000008  -0.000002   0.000007
    20  O   -0.105856   0.010382   0.003382  -0.000004  -0.000002   0.000037
    21  O    0.021279  -0.039784  -0.002095   0.000003   0.000000   0.000044
    22  H   -0.000283   0.000073   0.045825  -0.006807  -0.005398   0.221824
    23  H    0.000057   0.000068   0.079981   0.228848  -0.006366   0.005966
    24  H    0.000094  -0.000107   0.038061   0.007344   0.242585  -0.007648
    25  H   -0.000541   0.056624  -0.000238  -0.000000   0.000000  -0.000000
    26  H   -0.000336   0.045922  -0.000035   0.000000   0.000000  -0.000000
    27  H    0.000855   0.067069  -0.000034   0.000000  -0.000000  -0.000000
    28  H    0.056993  -0.000118  -0.000116  -0.000000  -0.000000  -0.000004
    29  H    0.047733   0.021198  -0.000044   0.000000  -0.000000  -0.000001
    30  H    0.039703   0.000004   0.000031   0.000000  -0.000000  -0.000000
    31  H    0.000146  -0.002049  -0.000047   0.000000   0.000000  -0.000000
    32  H   -0.000652   0.000069  -0.000014  -0.000000   0.000000   0.000000
    33  H    0.020403   0.000156   0.000084  -0.000000   0.000000   0.000000
              13         14         15         16         17         18
     1  Zr  -0.071384  -0.044436  -0.066585  -0.134815  -0.072615  -0.037939
     2  O    0.194793   0.272242   0.288217   0.004587  -0.041643  -0.012922
     3  O    0.001803  -0.016314  -0.000801  -0.000409   0.006117   0.003656
     4  O   -0.015276  -0.008864   0.001165   0.345658   0.227849   0.203236
     5  O   -0.000589   0.002418   0.000441   0.003079   0.001025  -0.000554
     6  Si   0.043970   0.035127  -0.003252  -0.414520  -0.470096  -0.451885
     7  Si   0.008243   0.011606  -0.003526   0.003879  -0.000923  -0.000025
     8  Si  -0.088403  -0.368295  -0.307978  -0.008881   0.097630   0.074516
     9  Si   0.000858  -0.001290  -0.001103  -0.000716   0.002208   0.004365
    10  O   -0.000001  -0.000001   0.000001  -0.000002  -0.000005  -0.000008
    11  O    0.000012  -0.000002  -0.000021  -0.000000  -0.000002  -0.000003
    12  O    0.000011   0.000014  -0.000020  -0.000002  -0.000005  -0.000000
    13  O    8.634382   0.088049  -0.092037   0.003681  -0.030682  -0.044067
    14  O    0.088049   8.681332   0.055075   0.003724  -0.036235  -0.026768
    15  O   -0.092037   0.055075   8.773561  -0.000173   0.003486   0.001588
    16  O    0.003681   0.003724  -0.000173   8.901342  -0.090279  -0.116026
    17  O   -0.030682  -0.036235   0.003486  -0.090279   8.938799   0.228556
    18  O   -0.044067  -0.026768   0.001588  -0.116026   0.228556   9.018880
    19  O    0.000243  -0.000256   0.000119  -0.001746  -0.030770   0.000241
    20  O    0.000010  -0.000150   0.000036   0.000064  -0.001050   0.000014
    21  O   -0.000214   0.016565  -0.000565  -0.000216  -0.005436   0.000472
    22  H    0.000000   0.000000  -0.000000   0.000000   0.000000  -0.000000
    23  H    0.000000   0.000000  -0.000000   0.000000   0.000000  -0.000000
    24  H   -0.000000   0.000000   0.000001   0.000000   0.000000  -0.000000
    25  H    0.217357  -0.012037   0.008925  -0.000042   0.000604   0.014599
    26  H   -0.005174  -0.009984   0.217839   0.000000  -0.000003   0.000006
    27  H   -0.010034   0.218849   0.004629   0.000178   0.017772  -0.000317
    28  H   -0.000000  -0.000004  -0.000001  -0.000000   0.000004  -0.000000
    29  H    0.000781   0.017634  -0.002563  -0.000004  -0.000401   0.000007
    30  H    0.000001  -0.000002   0.000000   0.000122  -0.000379  -0.000007
    31  H    0.002316   0.000161  -0.000018   0.003985  -0.000866   0.217807
    32  H   -0.000007  -0.000006   0.000000   0.233103  -0.003675   0.003912
    33  H    0.000224   0.001987  -0.000033  -0.000166   0.231104   0.002121
              19         20         21         22         23         24
     1  Zr  -0.014249  -0.148231   0.030225  -0.008988  -0.007239  -0.005068
     2  O    0.009721  -0.000517   0.011978  -0.000019  -0.000013  -0.000238
     3  O    0.260384   0.163877   0.148740  -0.000045  -0.000010  -0.000001
     4  O    0.009814  -0.000900   0.003272  -0.000014  -0.000049  -0.000004
     5  O    0.002018   0.001377   0.000372   0.006075  -0.024880  -0.005994
     6  Si  -0.002487   0.008903  -0.009979   0.000076   0.000034  -0.000001
     7  Si  -0.396319  -0.105856   0.021279  -0.000283   0.000057   0.000094
     8  Si  -0.013256   0.010382  -0.039784   0.000073   0.000068  -0.000107
     9  Si   0.001156   0.003382  -0.002095   0.045825   0.079981   0.038061
    10  O    0.000008  -0.000004   0.000003  -0.006807   0.228848   0.007344
    11  O   -0.000002  -0.000002   0.000000  -0.005398  -0.006366   0.242585
    12  O    0.000007   0.000037   0.000044   0.221824   0.005966  -0.007648
    13  O    0.000243   0.000010  -0.000214   0.000000   0.000000  -0.000000
    14  O   -0.000256  -0.000150   0.016565   0.000000   0.000000   0.000000
    15  O    0.000119   0.000036  -0.000565  -0.000000  -0.000000   0.000001
    16  O   -0.001746   0.000064  -0.000216   0.000000   0.000000   0.000000
    17  O   -0.030770  -0.001050  -0.005436   0.000000   0.000000   0.000000
    18  O    0.000241   0.000014   0.000472  -0.000000  -0.000000  -0.000000
    19  O    8.871249   0.031250   0.024482   0.000000   0.000000  -0.000000
    20  O    0.031250   8.655334  -0.050136   0.000001   0.000000  -0.000000
    21  O    0.024482  -0.050136   8.487808  -0.000000   0.000000   0.000000
    22  H    0.000000   0.000001  -0.000000   0.361387   0.000054   0.000119
    23  H    0.000000   0.000000   0.000000   0.000054   0.350740   0.000009
    24  H   -0.000000  -0.000000   0.000000   0.000119   0.000009   0.364783
    25  H   -0.000027   0.000000  -0.000020   0.000000   0.000000   0.000000
    26  H    0.000001  -0.000000   0.000037  -0.000000  -0.000000  -0.000000
    27  H   -0.000001   0.000189  -0.004081  -0.000000  -0.000000  -0.000000
    28  H    0.004575   0.229637  -0.002154  -0.000000   0.000000  -0.000000
    29  H   -0.008541   0.007668   0.206345  -0.000000   0.000000   0.000000
    30  H    0.224595  -0.001434  -0.007117   0.000000  -0.000000   0.000000
    31  H    0.000004  -0.000000  -0.000000  -0.000000  -0.000000   0.000000
    32  H    0.000101   0.000000   0.000001  -0.000000  -0.000000  -0.000000
    33  H    0.014805  -0.000077   0.001430  -0.000000  -0.000000  -0.000000
              25         26         27         28         29         30
     1  Zr   0.020998   0.007005   0.009144   0.005354   0.005972   0.001284
     2  O   -0.020655   0.000483  -0.019923  -0.000011  -0.007305  -0.000014
     3  O   -0.000116   0.000017   0.000823  -0.018764  -0.020479   0.000258
     4  O   -0.000205  -0.000013  -0.001863  -0.000014  -0.000154  -0.000450
     5  O    0.000018  -0.000003   0.000002  -0.000016  -0.000073  -0.000008
     6  Si   0.001287  -0.000062   0.007679  -0.000275   0.000059  -0.000977
     7  Si  -0.000541  -0.000336   0.000855   0.056993   0.047733   0.039703
     8  Si   0.056624   0.045922   0.067069  -0.000118   0.021198   0.000004
     9  Si  -0.000238  -0.000035  -0.000034  -0.000116  -0.000044   0.000031
    10  O   -0.000000   0.000000   0.000000  -0.000000   0.000000   0.000000
    11  O    0.000000   0.000000  -0.000000  -0.000000  -0.000000  -0.000000
    12  O   -0.000000  -0.000000  -0.000000  -0.000004  -0.000001  -0.000000
    13  O    0.217357  -0.005174  -0.010034  -0.000000   0.000781   0.000001
    14  O   -0.012037  -0.009984   0.218849  -0.000004   0.017634  -0.000002
    15  O    0.008925   0.217839   0.004629  -0.000001  -0.002563   0.000000
    16  O   -0.000042   0.000000   0.000178  -0.000000  -0.000004   0.000122
    17  O    0.000604  -0.000003   0.017772   0.000004  -0.000401  -0.000379
    18  O    0.014599   0.000006  -0.000317  -0.000000   0.000007  -0.000007
    19  O   -0.000027   0.000001  -0.000001   0.004575  -0.008541   0.224595
    20  O    0.000000  -0.000000   0.000189   0.229637   0.007668  -0.001434
    21  O   -0.000020   0.000037  -0.004081  -0.002154   0.206345  -0.007117
    22  H    0.000000  -0.000000  -0.000000  -0.000000  -0.000000   0.000000
    23  H    0.000000  -0.000000  -0.000000   0.000000   0.000000  -0.000000
    24  H    0.000000  -0.000000  -0.000000  -0.000000   0.000000   0.000000
    25  H    0.298938  -0.000012   0.000118   0.000000   0.000001   0.000000
    26  H   -0.000012   0.365596   0.000037   0.000000   0.000022  -0.000000
    27  H    0.000118   0.000037   0.283299  -0.000000  -0.001488   0.000010
    28  H    0.000000   0.000000  -0.000000   0.349264  -0.000017  -0.000015
    29  H    0.000001   0.000022  -0.001488  -0.000017   0.285972   0.000153
    30  H    0.000000  -0.000000   0.000010  -0.000015   0.000153   0.334147
    31  H   -0.000485   0.000000   0.000013   0.000000   0.000000  -0.000000
    32  H   -0.000001   0.000000  -0.000000   0.000000  -0.000000  -0.000000
    33  H    0.000006  -0.000000  -0.002401  -0.000002   0.000099  -0.001147
              31         32         33
     1  Zr   0.000507   0.001566  -0.016140
     2  O    0.000153  -0.000020   0.001002
     3  O   -0.000018   0.000037  -0.009893
     4  O   -0.018477   0.010255  -0.009418
     5  O   -0.000005   0.000001  -0.000102
     6  Si   0.063351   0.023800   0.053260
     7  Si   0.000146  -0.000652   0.020403
     8  Si  -0.002049   0.000069   0.000156
     9  Si  -0.000047  -0.000014   0.000084
    10  O    0.000000  -0.000000  -0.000000
    11  O    0.000000   0.000000   0.000000
    12  O   -0.000000   0.000000   0.000000
    13  O    0.002316  -0.000007   0.000224
    14  O    0.000161  -0.000006   0.001987
    15  O   -0.000018   0.000000  -0.000033
    16  O    0.003985   0.233103  -0.000166
    17  O   -0.000866  -0.003675   0.231104
    18  O    0.217807   0.003912   0.002121
    19  O    0.000004   0.000101   0.014805
    20  O   -0.000000   0.000000  -0.000077
    21  O   -0.000000   0.000001   0.001430
    22  H   -0.000000  -0.000000  -0.000000
    23  H   -0.000000  -0.000000  -0.000000
    24  H    0.000000  -0.000000  -0.000000
    25  H   -0.000485  -0.000001   0.000006
    26  H    0.000000   0.000000  -0.000000
    27  H    0.000013  -0.000000  -0.002401
    28  H    0.000000   0.000000  -0.000002
    29  H    0.000000  -0.000000   0.000099
    30  H   -0.000000  -0.000000  -0.001147
    31  H    0.331414  -0.000002  -0.000038
    32  H   -0.000002   0.349734   0.000157
    33  H   -0.000038   0.000157   0.269383
 Mulliken charges:
               1
     1  Zr  -0.025443
     2  O   -0.539352
     3  O   -0.411612
     4  O   -0.683482
     5  O   -0.347428
     6  Si   2.236047
     7  Si   1.776906
     8  Si   2.020828
     9  Si   1.583853
    10  O   -0.845108
    11  O   -0.788727
    12  O   -0.779313
    13  O   -0.838864
    14  O   -0.880137
    15  O   -0.876409
    16  O   -0.735404
    17  O   -0.970090
    18  O   -1.083454
    19  O   -0.987119
    20  O   -0.803805
    21  O   -0.831257
    22  H    0.386122
    23  H    0.372801
    24  H    0.366067
    25  H    0.414905
    26  H    0.378658
    27  H    0.429477
    28  H    0.375684
    29  H    0.447426
    30  H    0.411243
    31  H    0.402149
    32  H    0.381641
    33  H    0.443197
 Sum of Mulliken charges =  -0.00000
 Mulliken charges with hydrogens summed into heavy atoms:
               1
     1  Zr  -0.025443
     2  O   -0.539352
     3  O   -0.411612
     4  O   -0.683482
     5  O   -0.347428
     6  Si   2.236047
     7  Si   1.776906
     8  Si   2.020828
     9  Si   1.583853
    10  O   -0.472308
    11  O   -0.422660
    12  O   -0.393191
    13  O   -0.423959
    14  O   -0.450660
    15  O   -0.497750
    16  O   -0.353763
    17  O   -0.526893
    18  O   -0.681305
    19  O   -0.575875
    20  O   -0.428121
    21  O   -0.383831
 Electronic spatial extent (au):  <R**2>=           9871.9008
 Charge=              0.0000 electrons
 Dipole moment (field-independent basis, Debye):
    X=              1.1830    Y=             -0.5653    Z=             -2.0877  Tot=              2.4652
 Quadrupole moment (field-independent basis, Debye-Ang):
   XX=           -160.1667   YY=           -154.4710   ZZ=           -158.1892
   XY=             -4.2902   XZ=              2.6973   YZ=              5.7433
 Traceless Quadrupole moment (field-independent basis, Debye-Ang):
   XX=             -2.5577   YY=              3.1380   ZZ=             -0.5802
   XY=             -4.2902   XZ=              2.6973   YZ=              5.7433
 Octapole moment (field-independent basis, Debye-Ang**2):
  XXX=             73.6020  YYY=              5.0705  ZZZ=             -6.7241  XYY=              3.1650
  XXY=             20.8115  XXZ=             17.9723  XZZ=              1.8717  YZZ=            -12.6131
  YYZ=            -23.8507  XYZ=             27.3211
 Hexadecapole moment (field-independent basis, Debye-Ang**3):
 XXXX=          -6029.5027 YYYY=          -2831.4762 ZZZZ=          -2278.4308 XXXY=             67.4931
 XXXZ=            -69.8792 YYYX=             -9.7763 YYYZ=            231.4446 ZZZX=           -131.9853
 ZZZY=            -65.1798 XXYY=          -1449.0231 XXZZ=          -1395.5858 YYZZ=           -923.1285
 XXYZ=            -22.0115 YYXZ=             91.5042 ZZXY=            -51.4801
 N-N= 2.832831339960D+03 E-N=-1.137826902327D+04  KE= 2.373154820929D+03
 PrsmSu:  requested number of processors reduced to:   2 ShMem   1 Linda.
 PrsmSu:  requested number of processors reduced to:  10 ShMem   1 Linda.
   1 Symmetry operations used in ECPInt.
 ECPInt:  NShTT=   13203 NPrTT=   78401 LenC2=   11533 LenP2D=   44640.
 LDataN:  DoStor=T MaxTD1= 9 Len=  602
 Number of processors reduced to  14 by ecpmxn.
 Calling FoFJK, ICntrl=      2127 FMM=F ISym2X=0 I1Cent= 0 IOpClX= 0 NMat=1 NMatS=1 NMatT=0.
 CoulSu:  requested number of processors reduced to:  10 ShMem   1 Linda.
 Defaulting to unpruned grid for atomic number  40.
 Defaulting to unpruned grid for atomic number  40.
 Defaulting to unpruned grid for atomic number  40.
 Defaulting to unpruned grid for atomic number  40.
 Defaulting to unpruned grid for atomic number  40.
 Defaulting to unpruned grid for atomic number  40.
 Defaulting to unpruned grid for atomic number  40.
 Defaulting to unpruned grid for atomic number  40.
 Defaulting to unpruned grid for atomic number  40.
 Defaulting to unpruned grid for atomic number  40.
 Defaulting to unpruned grid for atomic number  40.
 Defaulting to unpruned grid for atomic number  40.
 Defaulting to unpruned grid for atomic number  40.
 Defaulting to unpruned grid for atomic number  40.
 Defaulting to unpruned grid for atomic number  40.
 Defaulting to unpruned grid for atomic number  40.
 ***** Axes restored to original set *****
 -------------------------------------------------------------------
 Center     Atomic                   Forces (Hartrees/Bohr)
 Number     Number              X              Y              Z
 -------------------------------------------------------------------
      1       40          -0.000247246   -0.000316054   -0.000844281
      2        8           0.000110230    0.000071991    0.000311132
      3        8          -0.000093335   -0.000035163    0.000132370
      4        8          -0.000016091    0.000158005    0.000253694
      5        8           0.000106429    0.000289023    0.000253403
      6       14           0.000026759   -0.000071674   -0.000104354
      7       14           0.000069910   -0.000016707   -0.000196469
      8       14          -0.000024063   -0.000187013   -0.000210659
      9       14          -0.000014810   -0.000285180    0.000097624
     10        8           0.000018002    0.000102985   -0.000031135
     11        8           0.000035846    0.000186744   -0.000003923
     12        8           0.000084878    0.000054969    0.000003397
     13        8          -0.000005455    0.000097322    0.000057413
     14        8           0.000013176    0.000043315    0.000053824
     15        8           0.000038871    0.000066241    0.000090593
     16        8          -0.000021413    0.000022164    0.000059068
     17        8           0.000000802    0.000039740    0.000019521
     18        8          -0.000033175    0.000024948    0.000028724
     19        8           0.000008629    0.000020527    0.000058573
     20        8          -0.000034425    0.000008552    0.000055119
     21        8           0.000000610    0.000013733    0.000104724
     22        1           0.000011354   -0.000023295   -0.000000232
     23        1          -0.000041863   -0.000037616   -0.000003487
     24        1          -0.000028520   -0.000155782   -0.000040440
     25        1           0.000013600   -0.000018200   -0.000024519
     26        1          -0.000006767   -0.000009417   -0.000006691
     27        1          -0.000008667    0.000000052   -0.000027559
     28        1           0.000005054    0.000003031   -0.000025160
     29        1          -0.000028075   -0.000017222   -0.000022545
     30        1           0.000006950   -0.000002139   -0.000010012
     31        1           0.000019423   -0.000003349   -0.000001219
     32        1           0.000034184   -0.000006001   -0.000010957
     33        1          -0.000000803   -0.000018529   -0.000015536
 -------------------------------------------------------------------
 Cartesian Forces:  Max     0.000844281 RMS     0.000129159

 GradGradGradGradGradGradGradGradGradGradGradGradGradGradGradGradGradGrad
 Berny optimization.
 FormGI is forming the generalized inverse of G from B-inverse, IUseBI=4.
 Internal  Forces:  Max     0.000624216 RMS     0.000093365
 Search for a local minimum.
 Step number   1 out of a maximum of  148
 All quantities printed in internal units (Hartrees-Bohrs-Radians)
 Mixed Optimization -- En-DIIS/RFO-DIIS
 Second derivative matrix not updated -- first step.
 ITU=  0
     Eigenvalues ---    0.00230   0.00230   0.00230   0.03240   0.03358
     Eigenvalues ---    0.03498   0.03580   0.03665   0.03666   0.03680
     Eigenvalues ---    0.03686   0.03693   0.03739   0.03789   0.03792
     Eigenvalues ---    0.03816   0.03834   0.03850   0.05521   0.09402
     Eigenvalues ---    0.09687   0.11077   0.11224   0.11833   0.11884
     Eigenvalues ---    0.11890   0.12177   0.12239   0.12299   0.12782
     Eigenvalues ---    0.12895   0.13099   0.13313   0.16000   0.16000
     Eigenvalues ---    0.16000   0.16000   0.16000   0.16000   0.16000
     Eigenvalues ---    0.16000   0.16000   0.16000   0.16000   0.16000
     Eigenvalues ---    0.19173   0.19314   0.19332   0.20013   0.20203
     Eigenvalues ---    0.20204   0.20208   0.20515   0.20653   0.20795
     Eigenvalues ---    0.20989   0.21175   0.21186   0.21227   0.25000
     Eigenvalues ---    0.25000   0.25000   0.38002   0.39187   0.40659
     Eigenvalues ---    0.41546   0.42502   0.42510   0.42670   0.42743
     Eigenvalues ---    0.42824   0.43363   0.43951   0.43980   0.44273
     Eigenvalues ---    0.44485   0.44689   0.44769   0.50655   0.51353
     Eigenvalues ---    0.52036   0.52548   0.54334   0.54624   0.54642
     Eigenvalues ---    0.54649   0.54689   0.54691   0.54713   0.54765
     Eigenvalues --- 1000.000001000.000001000.000001000.000001000.00000
     Eigenvalues --- 1000.000001000.000001000.000001000.000001000.00000
     Eigenvalues --- 1000.000001000.000001000.000001000.000001000.00000
     Eigenvalues --- 1000.000001000.000001000.000001000.000001000.00000
     Eigenvalues --- 1000.000001000.000001000.000001000.000001000.00000
     Eigenvalues --- 1000.000001000.000001000.000001000.000001000.00000
     Eigenvalues --- 1000.000001000.000001000.000001000.000001000.00000
     Eigenvalues --- 1000.000001000.000001000.000001000.000001000.00000
     Eigenvalues --- 1000.000001000.000001000.000001000.000001000.00000
     Eigenvalues --- 1000.000001000.000001000.00000
 RFO step:  Lambda=-1.20435458D-05 EMin= 2.30000000D-03
 Linear search not attempted -- first point.
 Iteration  1 RMS(Cart)=  0.01826147 RMS(Int)=  0.00010089
 Iteration  2 RMS(Cart)=  0.00017131 RMS(Int)=  0.00000104
 Iteration  3 RMS(Cart)=  0.00000001 RMS(Int)=  0.00000104
 Iteration  1 RMS(Cart)=  0.00000013 RMS(Int)=  0.00000002
 Variable       Old X    -DE/DX   Delta X   Delta X   Delta X     New X
                                 (Linear)    (Quad)   (Total)
    R1        3.67647   0.00011   0.00000   0.00052   0.00052   3.67698
    R2        3.69189  -0.00001   0.00000  -0.00004  -0.00004   3.69185
    R3        3.73835  -0.00024   0.00000  -0.00127  -0.00127   3.73709
    R4        3.70232   0.00015   0.00000   0.00072   0.00072   3.70304
    R5        3.11688  -0.00004   0.00000  -0.00010  -0.00010   3.11678
    R6        3.09579  -0.00001   0.00000  -0.00003  -0.00003   3.09576
    R7        3.10213  -0.00002   0.00000  -0.00005  -0.00005   3.10209
    R8        3.09245   0.00005   0.00000   0.00011   0.00011   3.09255
    R9        3.11587  -0.00005   0.00000  -0.00012  -0.00012   3.11575
   R10        3.11989   0.00001   0.00000   0.00003   0.00003   3.11993
   R11        3.14367  -0.00000   0.00000  -0.00000  -0.00000   3.14367
   R12        3.18062  -0.00005   0.00000  -0.00013  -0.00013   3.18049
   R13        3.10924  -0.00000   0.00000  -0.00001  -0.00001   3.10924
   R14        3.09339   0.00008   0.00000   0.00019   0.00019   3.09358
   R15        3.10179  -0.00008   0.00000  -0.00019  -0.00019   3.10160
   R16        3.16373   0.00002   0.00000   0.00005   0.00005   3.16378
   R17        3.09830   0.00009   0.00000   0.00020   0.00020   3.09850
   R18        3.11979   0.00001   0.00000   0.00002   0.00002   3.11981
   R19        3.13205  -0.00004   0.00000  -0.00011  -0.00011   3.13194
   R20        3.11779   0.00005   0.00000   0.00012   0.00012   3.11791
   R21        1.82151   0.00002   0.00000   0.00004   0.00004   1.82155
   R22        1.82107  -0.00000   0.00000  -0.00001  -0.00001   1.82107
   R23        1.82088   0.00000   0.00000   0.00000   0.00000   1.82089
   R24        1.84078   0.00003   0.00000   0.00005   0.00005   1.84083
   R25        1.84565   0.00003   0.00000   0.00006   0.00006   1.84570
   R26        1.82041   0.00000   0.00000   0.00001   0.00001   1.82042
   R27        1.82109   0.00003   0.00000   0.00006   0.00006   1.82115
   R28        1.85910  -0.00002   0.00000  -0.00003  -0.00003   1.85907
   R29        1.82145   0.00001   0.00000   0.00001   0.00001   1.82146
   R30        1.82428  -0.00000   0.00000  -0.00001  -0.00001   1.82428
   R31        1.82168  -0.00002   0.00000  -0.00003  -0.00003   1.82164
   R32        1.85224   0.00002   0.00000   0.00004   0.00004   1.85227
    A1        1.85172  -0.00012   0.00000  -0.00250  -0.00250   1.84922
    A2        1.80155   0.00017   0.00000   0.00113   0.00114   1.80269
    A3        1.96889  -0.00029   0.00000  -0.00276  -0.00276   1.96613
    A4        1.83430  -0.00005   0.00000   0.00144   0.00144   1.83574
    A5        2.01802   0.00010   0.00000   0.00024   0.00023   2.01825
    A6        1.97057   0.00020   0.00000   0.00255   0.00255   1.97312
    A7        2.46524  -0.00011   0.00000  -0.00046  -0.00046   2.46478
    A8        2.58826   0.00002   0.00000   0.00009   0.00009   2.58835
    A9        2.35483   0.00012   0.00000   0.00046   0.00046   2.35529
   A10        2.86714   0.00062   0.00000   0.00000   0.00000   2.86714
   A11        1.91978  -0.00002   0.00000  -0.00009  -0.00009   1.91968
   A12        1.91546  -0.00001   0.00000  -0.00013  -0.00013   1.91533
   A13        1.95201   0.00001   0.00000   0.00007   0.00007   1.95209
   A14        2.00708   0.00000   0.00000  -0.00001  -0.00001   2.00707
   A15        1.88610   0.00003   0.00000   0.00019   0.00019   1.88630
[...]
 Alpha virt. eigenvalues --    3.13877   3.19658   3.36076   3.40961   3.46766
 Alpha virt. eigenvalues --    3.47997   3.48416   3.48623   3.51074   3.51104
 Alpha virt. eigenvalues --    3.53093   3.54607   3.60287   3.61087   3.62038
 Alpha virt. eigenvalues --    3.66203   4.25763   4.57953   7.85133  31.28991
          Condensed to atoms (all electrons):
               1          2          3          4          5          6
     1  Zr  15.132717  -0.178990  -0.003062  -0.168161  -0.209994  -0.506072
     2  O   -0.178990   9.089490   0.019924  -0.041106  -0.057011   0.097528
     3  O   -0.003062   0.019924   8.835633   0.011962  -0.038566  -0.007588
     4  O   -0.168161  -0.041106   0.011962   8.833775  -0.055574  -0.686272
     5  O   -0.209994  -0.057011  -0.038566  -0.055574   9.462221  -0.003432
     6  Si  -0.506072   0.097528  -0.007588  -0.686272  -0.003432  13.919355
     7  Si  -0.618636  -0.026634  -0.879572  -0.003858  -0.032217   0.082086
     8  Si  -0.520010  -1.003176  -0.022973   0.079491  -0.013245  -0.046427
     9  Si  -0.330603  -0.045308  -0.029769  -0.037891  -1.328779   0.034467
    10  O   -0.006052   0.000933  -0.001797   0.001608   0.138171  -0.002304
    11  O   -0.051960   0.004617   0.002737   0.001229   0.332731  -0.001142
    12  O    0.026991   0.000576   0.004821   0.002265   0.182818  -0.001914
    13  O   -0.069585   0.194100   0.001815  -0.015396  -0.000606   0.043697
    14  O   -0.042046   0.271275  -0.016143  -0.008943   0.002393   0.035111
    15  O   -0.067490   0.288818  -0.000844   0.001184   0.000493  -0.003164
    16  O   -0.135477   0.004531  -0.000410   0.347480   0.003031  -0.416000
    17  O   -0.075322  -0.041160   0.006412   0.227534   0.001087  -0.467746
    18  O   -0.036223  -0.013004   0.003689   0.203062  -0.000514  -0.451904
    19  O   -0.012026   0.009754   0.260010   0.009896   0.002040  -0.002991
    20  O   -0.147556  -0.000521   0.163654  -0.000915   0.001351   0.009044
    21  O    0.030412   0.011882   0.150118   0.003244   0.000355  -0.010075
    22  H   -0.009161  -0.000020  -0.000042  -0.000013   0.006079   0.000076
    23  H   -0.007507  -0.000013  -0.000010  -0.000052  -0.025206   0.000038
    24  H   -0.004903  -0.000262  -0.000004  -0.000006  -0.004764  -0.000000
    25  H    0.020673  -0.020617  -0.000116  -0.000205   0.000019   0.001365
    26  H    0.007076   0.000463   0.000017  -0.000013  -0.000003  -0.000072
    27  H    0.008860  -0.019759   0.000827  -0.001852   0.000004   0.007615
    28  H    0.005298  -0.000011  -0.018804  -0.000014  -0.000016  -0.000276
    29  H    0.005967  -0.007238  -0.020525  -0.000148  -0.000074   0.000042
    30  H    0.001154  -0.000015   0.000302  -0.000451  -0.000008  -0.000935
    31  H    0.000267   0.000158  -0.000018  -0.018496  -0.000005   0.063579
    32  H    0.001655  -0.000020   0.000036   0.010367   0.000002   0.023671
    33  H   -0.016345   0.000989  -0.009922  -0.009462  -0.000102   0.053406
               7          8          9         10         11         12
     1  Zr  -0.618636  -0.520010  -0.330603  -0.006052  -0.051960   0.026991
     2  O   -0.026634  -1.003176  -0.045308   0.000933   0.004617   0.000576
     3  O   -0.879572  -0.022973  -0.029769  -0.001797   0.002737   0.004821
     4  O   -0.003858   0.079491  -0.037891   0.001608   0.001229   0.002265
     5  O   -0.032217  -0.013245  -1.328779   0.138171   0.332731   0.182818
     6  Si   0.082086  -0.046427   0.034467  -0.002304  -0.001142  -0.001914
     7  Si  13.795590   0.180832   0.021682  -0.000172  -0.000402   0.004412
     8  Si   0.180832  13.756122   0.025291  -0.000562   0.000749   0.000274
     9  Si   0.021682   0.025291  14.491147  -0.092600  -0.230397  -0.249028
    10  O   -0.000172  -0.000562  -0.092600   8.525341   0.017855   0.036795
    11  O   -0.000402   0.000749  -0.230397   0.017855   8.529001  -0.044584
    12  O    0.004412   0.000274  -0.249028   0.036795  -0.044584   8.597963
    13  O    0.008212  -0.088945   0.000773  -0.000001   0.000014   0.000011
    14  O    0.011231  -0.368929  -0.001318  -0.000001  -0.000002   0.000015
    15  O   -0.003646  -0.307968  -0.001041   0.000001  -0.000024  -0.000020
    16  O    0.003920  -0.008817  -0.000777  -0.000002  -0.000000  -0.000002
    17  O   -0.000866   0.097407   0.002360  -0.000005  -0.000002  -0.000005
    18  O   -0.000085   0.074204   0.004378  -0.000008  -0.000003  -0.000000
    19  O   -0.399388  -0.013712   0.001140   0.000007  -0.000002   0.000005
    20  O   -0.105512   0.010256   0.003361  -0.000004  -0.000002   0.000032
    21  O    0.020075  -0.039744  -0.002107   0.000003   0.000001   0.000041
    22  H   -0.000273   0.000074   0.046235  -0.006780  -0.005294   0.221325
    23  H    0.000058   0.000071   0.080666   0.228736  -0.006484   0.006156
    24  H    0.000091  -0.000122   0.036267   0.007070   0.242169  -0.007303
    25  H   -0.000538   0.056824  -0.000235  -0.000000   0.000000  -0.000000
    26  H   -0.000340   0.045940  -0.000037   0.000000   0.000000  -0.000000
    27  H    0.000847   0.067144  -0.000033   0.000000  -0.000000  -0.000000
    28  H    0.057029  -0.000111  -0.000118  -0.000000  -0.000000  -0.000004
    29  H    0.047786   0.021104  -0.000043   0.000000  -0.000000  -0.000001
    30  H    0.039766   0.000014   0.000030   0.000000  -0.000000  -0.000000
    31  H    0.000151  -0.002022  -0.000048   0.000000   0.000000  -0.000000
    32  H   -0.000649   0.000064  -0.000014  -0.000000   0.000000   0.000000
    33  H    0.020559   0.000172   0.000084  -0.000000   0.000000   0.000000
              13         14         15         16         17         18
     1  Zr  -0.069585  -0.042046  -0.067490  -0.135477  -0.075322  -0.036223
     2  O    0.194100   0.271275   0.288818   0.004531  -0.041160  -0.013004
     3  O    0.001815  -0.016143  -0.000844  -0.000410   0.006412   0.003689
     4  O   -0.015396  -0.008943   0.001184   0.347480   0.227534   0.203062
     5  O   -0.000606   0.002393   0.000493   0.003031   0.001087  -0.000514
     6  Si   0.043697   0.035111  -0.003164  -0.416000  -0.467746  -0.451904
     7  Si   0.008212   0.011231  -0.003646   0.003920  -0.000866  -0.000085
     8  Si  -0.088945  -0.368929  -0.307968  -0.008817   0.097407   0.074204
     9  Si   0.000773  -0.001318  -0.001041  -0.000777   0.002360   0.004378
    10  O   -0.000001  -0.000001   0.000001  -0.000002  -0.000005  -0.000008
    11  O    0.000014  -0.000002  -0.000024  -0.000000  -0.000002  -0.000003
    12  O    0.000011   0.000015  -0.000020  -0.000002  -0.000005  -0.000000
    13  O    8.634751   0.088207  -0.091858   0.003684  -0.030689  -0.044294
    14  O    0.088207   8.681634   0.055219   0.003703  -0.036172  -0.026809
    15  O   -0.091858   0.055219   8.773343  -0.000173   0.003508   0.001599
    16  O    0.003684   0.003703  -0.000173   8.902877  -0.090638  -0.117049
    17  O   -0.030689  -0.036172   0.003508  -0.090638   8.937562   0.229020
    18  O   -0.044294  -0.026809   0.001599  -0.117049   0.229020   9.017350
    19  O    0.000239   0.000018   0.000124  -0.001773  -0.030621   0.000252
    20  O    0.000009  -0.000170   0.000038   0.000062  -0.001039   0.000014
    21  O   -0.000232   0.016510  -0.000547  -0.000215  -0.005397   0.000465
    22  H    0.000000   0.000000  -0.000000   0.000000   0.000000  -0.000000
    23  H    0.000000   0.000000  -0.000000   0.000000   0.000000  -0.000000
    24  H   -0.000000   0.000000   0.000001   0.000000   0.000000  -0.000000
    25  H    0.217427  -0.012044   0.008926  -0.000032   0.000588   0.014537
    26  H   -0.005177  -0.010008   0.217741   0.000000  -0.000003   0.000006
    27  H   -0.010018   0.218870   0.004625   0.000181   0.017829  -0.000298
    28  H   -0.000000  -0.000003  -0.000001  -0.000000   0.000004  -0.000000
    29  H    0.000778   0.017631  -0.002545  -0.000004  -0.000401   0.000007
    30  H    0.000001  -0.000007   0.000000   0.000122  -0.000374  -0.000007
    31  H    0.002323   0.000160  -0.000018   0.003920  -0.000823   0.217898
    32  H   -0.000007  -0.000006   0.000000   0.232973  -0.003606   0.003841
    33  H    0.000226   0.001983  -0.000034  -0.000203   0.231109   0.002096
              19         20         21         22         23         24
     1  Zr  -0.012026  -0.147556   0.030412  -0.009161  -0.007507  -0.004903
     2  O    0.009754  -0.000521   0.011882  -0.000020  -0.000013  -0.000262
     3  O    0.260010   0.163654   0.150118  -0.000042  -0.000010  -0.000004
     4  O    0.009896  -0.000915   0.003244  -0.000013  -0.000052  -0.000006
     5  O    0.002040   0.001351   0.000355   0.006079  -0.025206  -0.004764
     6  Si  -0.002991   0.009044  -0.010075   0.000076   0.000038  -0.000000
     7  Si  -0.399388  -0.105512   0.020075  -0.000273   0.000058   0.000091
     8  Si  -0.013712   0.010256  -0.039744   0.000074   0.000071  -0.000122
     9  Si   0.001140   0.003361  -0.002107   0.046235   0.080666   0.036267
    10  O    0.000007  -0.000004   0.000003  -0.006780   0.228736   0.007070
    11  O   -0.000002  -0.000002   0.000001  -0.005294  -0.006484   0.242169
    12  O    0.000005   0.000032   0.000041   0.221325   0.006156  -0.007303
    13  O    0.000239   0.000009  -0.000232   0.000000   0.000000  -0.000000
    14  O    0.000018  -0.000170   0.016510   0.000000   0.000000   0.000000
    15  O    0.000124   0.000038  -0.000547  -0.000000  -0.000000   0.000001
    16  O   -0.001773   0.000062  -0.000215   0.000000   0.000000   0.000000
    17  O   -0.030621  -0.001039  -0.005397   0.000000   0.000000   0.000000
    18  O    0.000252   0.000014   0.000465  -0.000000  -0.000000  -0.000000
    19  O    8.871764   0.032294   0.024829   0.000000   0.000000  -0.000000
    20  O    0.032294   8.654747  -0.050875   0.000001   0.000000  -0.000000
    21  O    0.024829  -0.050875   8.488192  -0.000000   0.000000   0.000000
    22  H    0.000000   0.000001  -0.000000   0.361554   0.000051   0.000104
    23  H    0.000000   0.000000   0.000000   0.000051   0.351276   0.000015
    24  H   -0.000000  -0.000000   0.000000   0.000104   0.000015   0.364664
    25  H   -0.000027   0.000000  -0.000020   0.000000   0.000000   0.000000
    26  H    0.000001  -0.000000   0.000038  -0.000000  -0.000000  -0.000000
    27  H    0.000003   0.000190  -0.004077  -0.000000  -0.000000  -0.000000
    28  H    0.004584   0.229711  -0.002165  -0.000000   0.000000  -0.000000
    29  H   -0.008592   0.007683   0.206391  -0.000000   0.000000   0.000000
    30  H    0.224498  -0.001433  -0.007088   0.000000  -0.000000   0.000000
    31  H    0.000004  -0.000000  -0.000000  -0.000000  -0.000000   0.000000
    32  H    0.000101   0.000000   0.000001  -0.000000  -0.000000  -0.000000
    33  H    0.014817  -0.000081   0.001419  -0.000000  -0.000000  -0.000000
              25         26         27         28         29         30
     1  Zr   0.020673   0.007076   0.008860   0.005298   0.005967   0.001154
     2  O   -0.020617   0.000463  -0.019759  -0.000011  -0.007238  -0.000015
     3  O   -0.000116   0.000017   0.000827  -0.018804  -0.020525   0.000302
     4  O   -0.000205  -0.000013  -0.001852  -0.000014  -0.000148  -0.000451
     5  O    0.000019  -0.000003   0.000004  -0.000016  -0.000074  -0.000008
     6  Si   0.001365  -0.000072   0.007615  -0.000276   0.000042  -0.000935
     7  Si  -0.000538  -0.000340   0.000847   0.057029   0.047786   0.039766
     8  Si   0.056824   0.045940   0.067144  -0.000111   0.021104   0.000014
     9  Si  -0.000235  -0.000037  -0.000033  -0.000118  -0.000043   0.000030
    10  O   -0.000000   0.000000   0.000000  -0.000000   0.000000   0.000000
    11  O    0.000000   0.000000  -0.000000  -0.000000  -0.000000  -0.000000
    12  O   -0.000000  -0.000000  -0.000000  -0.000004  -0.000001  -0.000000
    13  O    0.217427  -0.005177  -0.010018  -0.000000   0.000778   0.000001
    14  O   -0.012044  -0.010008   0.218870  -0.000003   0.017631  -0.000007
    15  O    0.008926   0.217741   0.004625  -0.000001  -0.002545   0.000000
    16  O   -0.000032   0.000000   0.000181  -0.000000  -0.000004   0.000122
    17  O    0.000588  -0.000003   0.017829   0.000004  -0.000401  -0.000374
    18  O    0.014537   0.000006  -0.000298  -0.000000   0.000007  -0.000007
    19  O   -0.000027   0.000001   0.000003   0.004584  -0.008592   0.224498
    20  O    0.000000  -0.000000   0.000190   0.229711   0.007683  -0.001433
    21  O   -0.000020   0.000038  -0.004077  -0.002165   0.206391  -0.007088
    22  H    0.000000  -0.000000  -0.000000  -0.000000  -0.000000   0.000000
    23  H    0.000000  -0.000000  -0.000000   0.000000   0.000000  -0.000000
    24  H    0.000000  -0.000000  -0.000000  -0.000000   0.000000   0.000000
    25  H    0.299035  -0.000012   0.000119   0.000000   0.000001   0.000000
    26  H   -0.000012   0.365694   0.000037   0.000000   0.000021  -0.000000
    27  H    0.000119   0.000037   0.283400  -0.000000  -0.001471   0.000010
    28  H    0.000000   0.000000  -0.000000   0.349150  -0.000017  -0.000015
    29  H    0.000001   0.000021  -0.001471  -0.000017   0.286055   0.000152
    30  H    0.000000  -0.000000   0.000010  -0.000015   0.000152   0.333921
    31  H   -0.000505   0.000000   0.000013   0.000000   0.000000  -0.000000
    32  H   -0.000001   0.000000  -0.000000   0.000000  -0.000000  -0.000000
    33  H    0.000006  -0.000000  -0.002419  -0.000002   0.000100  -0.001131
              31         32         33
     1  Zr   0.000267   0.001655  -0.016345
     2  O    0.000158  -0.000020   0.000989
     3  O   -0.000018   0.000036  -0.009922
     4  O   -0.018496   0.010367  -0.009462
     5  O   -0.000005   0.000002  -0.000102
     6  Si   0.063579   0.023671   0.053406
     7  Si   0.000151  -0.000649   0.020559
     8  Si  -0.002022   0.000064   0.000172
     9  Si  -0.000048  -0.000014   0.000084
    10  O    0.000000  -0.000000  -0.000000
    11  O    0.000000   0.000000   0.000000
    12  O   -0.000000   0.000000   0.000000
    13  O    0.002323  -0.000007   0.000226
    14  O    0.000160  -0.000006   0.001983
    15  O   -0.000018   0.000000  -0.000034
    16  O    0.003920   0.232973  -0.000203
    17  O   -0.000823  -0.003606   0.231109
    18  O    0.217898   0.003841   0.002096
    19  O    0.000004   0.000101   0.014817
    20  O   -0.000000   0.000000  -0.000081
    21  O   -0.000000   0.000001   0.001419
    22  H   -0.000000  -0.000000  -0.000000
    23  H   -0.000000  -0.000000  -0.000000
    24  H    0.000000  -0.000000  -0.000000
    25  H   -0.000505  -0.000001   0.000006
    26  H    0.000000   0.000000  -0.000000
    27  H    0.000013  -0.000000  -0.002419
    28  H    0.000000   0.000000  -0.000002
    29  H    0.000000  -0.000000   0.000100
    30  H   -0.000000  -0.000000  -0.001131
    31  H    0.331665  -0.000000  -0.000038
    32  H   -0.000000   0.349676   0.000155
    33  H   -0.000038   0.000155   0.269377
 Mulliken charges:
               1
     1  Zr  -0.023884
     2  O   -0.540174
     3  O   -0.411794
     4  O   -0.684269
     5  O   -0.362677
     6  Si   2.237235
     7  Si   1.778463
     8  Si   2.020731
     9  Si   1.602266
    10  O   -0.846230
    11  O   -0.790806
    12  O   -0.781641
    13  O   -0.839458
    14  O   -0.881359
    15  O   -0.876248
    16  O   -0.734914
    17  O   -0.969550
    18  O   -1.082216
    19  O   -0.987247
    20  O   -0.804341
    21  O   -0.831432
    22  H    0.386086
    23  H    0.372206
    24  H    0.366981
    25  H    0.414833
    26  H    0.378632
    27  H    0.429355
    28  H    0.375782
    29  H    0.447340
    30  H    0.411493
    31  H    0.401836
    32  H    0.381760
    33  H    0.443240
 Sum of Mulliken charges =  -0.00000
 Mulliken charges with hydrogens summed into heavy atoms:
               1
     1  Zr  -0.023884
     2  O   -0.540174
     3  O   -0.411794
     4  O   -0.684269
     5  O   -0.362677
     6  Si   2.237235
     7  Si   1.778463
     8  Si   2.020731
     9  Si   1.602266
    10  O   -0.474024
    11  O   -0.423825
    12  O   -0.395555
    13  O   -0.424625
    14  O   -0.452004
    15  O   -0.497616
    16  O   -0.353153
    17  O   -0.526310
    18  O   -0.680380
    19  O   -0.575754
    20  O   -0.428559
    21  O   -0.384092
 Electronic spatial extent (au):  <R**2>=           9871.8388
 Charge=             -0.0000 electrons
 Dipole moment (field-independent basis, Debye):
    X=              1.0978    Y=             -0.6432    Z=             -2.1719  Tot=              2.5172
 Quadrupole moment (field-independent basis, Debye-Ang):
   XX=           -160.8361   YY=           -154.2207   ZZ=           -158.2898
   XY=             -4.4286   XZ=              2.4167   YZ=              5.7018
 Traceless Quadrupole moment (field-independent basis, Debye-Ang):
   XX=             -3.0539   YY=              3.5615   ZZ=             -0.5076
   XY=             -4.4286   XZ=              2.4167   YZ=              5.7018
 Octapole moment (field-independent basis, Debye-Ang**2):
  XXX=             69.7061  YYY=              4.7038  ZZZ=             -7.7336  XYY=              3.6988
  XXY=             20.7863  XXZ=             16.6195  XZZ=              0.9592  YZZ=            -13.2802
  YYZ=            -23.5494  XYZ=             27.3898
 Hexadecapole moment (field-independent basis, Debye-Ang**3):
 XXXX=          -6055.4389 YYYY=          -2828.8947 ZZZZ=          -2276.0402 XXXY=             67.9170
 XXXZ=            -73.9636 YYYX=             -9.0125 YYYZ=            229.9249 ZZZX=           -136.1411
 ZZZY=            -64.2748 XXYY=          -1447.4727 XXZZ=          -1401.6578 YYZZ=           -923.5175
 XXYZ=            -21.4176 YYXZ=             92.8328 ZZXY=            -52.4343
 N-N= 2.832830738007D+03 E-N=-1.137825017370D+04  KE= 2.373154766696D+03
 1\1\GINC-GRA632\FOpt\RB3LYP\Gen\H12O16Si4Zr1\SARASHS\14-Aug-2020\0\\#n
  B3LYP/Gen Pseudo=cards EmpiricalDispersion=GD3 Opt=modredundant\\Titl
 e\\0,1\Zr,0.6583380087,-0.1235009568,-0.0812493047\O,-0.2146536214,-0.
 9025764102,1.4732187478\O,0.1006994877,1.748126714,-0.1245700783\O,-0.
 2727926788,-0.9780567133,-1.6024992938\O,2.5932928638,-0.4339275611,-0
 .0845029872\Si,-1.8362509263,-1.3338314232,-1.954913407\Si,-1.11761128
 26,2.8425695172,-0.0857694927\Si,-1.7142400591,-1.14997113,2.113934881
 8\Si,4.2188698968,-0.2463037443,-0.1138660902\O,4.8949219703,-0.516171
 8045,-1.5960173505\O,4.9374784142,-1.3421202712,0.9006054022\O,4.47914
 92509,1.3314122932,0.2916586924\O,-2.3098521032,-2.6217552653,1.698210
 1967\O,-2.7170538896,0.0666992762,1.5508794952\O,-1.5839972539,-1.0144
 124763,3.7428374043\O,-2.0096735531,-1.5627967844,-3.5784126163\O,-2.8
 294830222,-0.188388369,-1.3015110266\O,-2.3461488283,-2.7150466579,-1.
 1804968876\O,-2.044253556,2.4376707456,-1.431145069\O,-0.63881686,4.40
 10102909,-0.3071050608\O,-1.9654221308,2.7642839935,1.3124897334\H,5.3
 63234983,1.6806758783,0.1339657641\H,5.2190931747,-1.410313247,-1.7528
 235653\H,4.5135542629,-1.5029681443,1.7509152705\H,-2.3999524438,-2.80
 82282525,0.7463618474\H,-2.3663756693,-1.2203924333,4.2657808521\H,-3.
 0568832297,-0.0828159792,0.6475323162\H,-0.5274252072,4.9295003615,0.4
 913385198\H,-2.2671449411,1.8725426212,1.585346564\H,-2.6515200101,3.1
 24883221,-1.732645252\H,-2.3030885178,-3.5315636756,-1.6909181691\H,-1
 .2787968842,-1.270147094,-4.1342063129\H,-2.6149956443,0.7529534807,-1
 .4904437241\\Version=ES64L-G16RevB.01\State=1-A\HF=-2416.9467912\RMSD=
 2.933e-09\RMSF=4.877e-05\Dipole=0.40817,-0.2481445,-0.8675183\Quadrupo
 le=-2.1508424,2.5929982,-0.4421558,-3.1915413,1.8221937,4.3491875\PG=C
 01 [X(H12O16Si4Zr1)]\\@


 FRICTION IS A DRAG,
 AND ENTROPY AIN'T WHAT IT USED TO BE.
 Job cpu time:       0 days 15 hours 21 minutes 27.6 seconds.
 Elapsed time:       0 days  1 hours  9 minutes 32.2 seconds.
 File lengths (MBytes):  RWF=    167 Int=      0 D2E=      0 Chk=     21 Scr=      1
 Normal termination of Gaussian 16 at Fri Aug 14 04:03:23 2020.
