 Entering Gaussian System, Link 0=g16
 Initial command:
 /opt/software/gaussian/g16.b01/l1.exe "/localscratch/sarashs.37242616.0/Gau-10115.inp" -scrdir="/localscratch/sarashs.37242616.0/"
 Entering Link 1 = /opt/software/gaussian/g16.b01/l1.exe PID=     10116.
  
 Copyright (c) 1988-2017, Gaussian, Inc.  All Rights Reserved.
  
 This is part of the Gaussian(R) 16 program.  It is based on
 the Gaussian(R) 09 system (copyright 2009, Gaussian, Inc.),
 the Gaussian(R) 03 system (copyright 2003, Gaussian, Inc.),
 the Gaussian(R) 98 system (copyright 1998, Gaussian, Inc.),
 the Gaussian(R) 94 system (copyright 1995, Gaussian, Inc.),
 the Gaussian 92(TM) system (copyright 1992, Gaussian, Inc.),
 the Gaussian 90(TM) system (copyright 1990, Gaussian, Inc.),
 the Gaussian 88(TM) system (copyright 1988, Gaussian, Inc.),
 the Gaussian 86(TM) system (copyright 1986, Carnegie Mellon
 University), and the Gaussian 82(TM) system (copyright 1983,
 Carnegie Mellon University). Gaussian is a federally registered
 trademark of Gaussian, Inc.
  
 This software contains proprietary and confidential information,
 including trade secrets, belonging to Gaussian, Inc.
  
 This software is provided under written license and may be
 used, copied, transmitted, or stored only in accord with that
 written license.
  
 The following legend is applicable only to US Government
 contracts under FAR:
  
                    RESTRICTED RIGHTS LEGEND
  
 Use, reproduction and disclosure by the US Government is
 subject to restrictions as set forth in subparagraphs (a)
 and (c) of the Commercial Computer Software - Restricted
 Rights clause in FAR 52.227-19.
  
 Gaussian, Inc.
 340 Quinnipiac St., Bldg. 40, Wallingford CT 06492
  
  
 ---------------------------------------------------------------
 Warning -- This program may not be used in any manner that
 competes with the business of Gaussian, Inc. or will provide
 assistance to any competitor of Gaussian, Inc.  The licensee
 of this program is prohibited from giving any competitor of
 Gaussian, Inc. access to this program.  By using this program,
 the user acknowledges that Gaussian, Inc. is engaged in the
 business of creating and licensing software in the field of
 computational chemistry and represents and warrants to the
 licensee that it is not a competitor of Gaussian, Inc. and that
 it will not use this program in any manner prohibited above.
 ---------------------------------------------------------------
  

 Cite this work as:
 Gaussian 16, Revision B.01,
 M. J. Frisch, G. W. Trucks, H. B. Schlegel, G. E. Scuseria, 
 M. A. Robb, J. R. Cheeseman, G. Scalmani, V. Barone, 
 G. A. Petersson, H. Nakatsuji, X. Li, M. Caricato, A. V. Marenich, 
 J. Bloino, B. G. Janesko, R. Gomperts, B. Mennucci, H. P. Hratchian, 
 J. V. Ortiz, A. F. Izmaylov, J. L. Sonnenberg, D. Williams-Young, 
 F. Ding, F. Lipparini, F. Egidi, J. Goings, B. Peng, A. Petrone, 
 T. Henderson, D. Ranasinghe, V. G. Zakrzewski, J. Gao, N. Rega, 
 G. Zheng, W. Liang, M. Hada, M. Ehara, K. Toyota, R. Fukuda, 
 J. Hasegawa, M. Ishida, T. Nakajima, Y. Honda, O. Kitao, H. Nakai, 
 T. Vreven, K. Throssell, J. A. Montgomery, Jr., J. E. Peralta, 
 F. Ogliaro, M. J. Bearpark, J. J. Heyd, E. N. Brothers, K. N. Kudin, 
 V. N. Staroverov, T. A. Keith, R. Kobayashi, J. Normand, 
 K. Raghavachari, A. P. Rendell, J. C. Burant, S. S. Iyengar, 
 J. Tomasi, M. Cossi, J. M. Millam, M. Klene, C. Adamo, R. Cammi, 
 J. W. Ochterski, R. L. Martin, K. Morokuma, O. Farkas, 
 J. B. Foresman, and D. J. Fox, Gaussian, Inc., Wallingford CT, 2016.
 
 ******************************************
 Gaussian 16:  ES64L-G16RevB.01 20-Dec-2017
                14-Aug-2020 
 ******************************************
 %NProcShared=16
 Will use up to   16 processors via shared memory.
 ------------------------------------------------------------------
 #n B3LYP/Gen Pseudo=cards EmpiricalDispersion=GD3 Opt=modredundant
 ------------------------------------------------------------------
 1/18=120,19=15,26=3,38=1/1,3;
 2/9=110,12=2,17=6,18=5,40=1/2;
 3/5=7,11=2,16=1,17=8,25=1,30=1,71=1,74=-5,124=31/1,2,3;
 4//1;
 5/5=2,38=5/2;
 6/7=2,8=2,9=2,10=2,28=1/1;
 7//1,2,3,16;
 1/18=20,19=15,26=3/3(2);
 2/9=110/2;
 99//99;
 2/9=110/2;
 3/5=7,6=1,11=2,16=1,17=8,25=1,30=1,71=1,74=-5,82=7,124=31/1,2,3;
 4/5=5,16=3,69=1/1;
 5/5=2,38=5/2;
 7//1,2,3,16;
 1/18=20,19=15,26=3/3(-5);
 2/9=110/2;
 6/7=2,8=2,9=2,10=2,19=2,28=1/1;
 99/9=1/99;
 -----
 Title
 -----
 Symbolic Z-matrix:
 Charge =  0 Multiplicity = 1
 Zr                    0.65779  -0.12506  -0.07164 
 O                    -0.22285  -0.90624   1.4773 
 O                     0.10302   1.74748  -0.12299 
 O                    -0.2683   -0.97885  -1.59705 
 O                     2.59206  -0.4363   -0.08284 
 Si                   -1.83119  -1.33244  -1.9536 
 Si                   -1.1155    2.84172  -0.08279 
 Si                   -1.72376  -1.15291   2.11517 
 Si                    4.21207  -0.29041   0.0968 
 O                     4.9976    0.15483  -1.28533 
 O                     4.87503  -1.74831   0.52342 
 O                     4.4132    0.90195   1.21923 
 O                    -2.31924  -2.624     1.69627 
 O                    -2.72422   0.06508   1.55086 
 O                    -1.59734  -1.01957   3.74439 
 O                    -2.00144  -1.55965  -3.57782 
 O                    -2.82509  -0.18676  -1.30145 
 O                    -2.34448  -2.71439  -1.18277 
 O                    -2.04046   2.43957  -1.43023 
 O                    -0.63565   4.40049  -0.29987 
 O                    -1.96551   2.76086   1.31383 
 H                     5.29957   1.26862   1.31075 
 H                     5.35996  -0.56558  -1.81337 
 H                     4.41618  -2.26348   1.19626 
 H                    -2.40577  -2.80951   0.74392 
 H                    -2.38137  -1.22423   4.26535 
 H                    -3.06034  -0.08306   0.64589 
 H                    -0.52731   4.92728   0.50015 
 H                    -2.26909   1.86932   1.58533 
 H                    -2.64854   3.12676  -1.73014 
 H                    -2.30452  -3.52952  -1.69562 
 H                    -1.27114  -1.26305  -4.13223 
 H                    -2.61026   0.75461  -1.48993 
 
 The following ModRedundant input section has been read:
 A       1       5       9 F                                                   
 D       1       5       9      12 F                                           
 D       3       1       5       9 F                                           
 

 GradGradGradGradGradGradGradGradGradGradGradGradGradGradGradGradGradGrad
 Berny optimization.
 Initialization pass.
                           ----------------------------
                           !    Initial Parameters    !
                           ! (Angstroms and Degrees)  !
 --------------------------                            --------------------------
 ! Name  Definition              Value          Derivative Info.                !
 --------------------------------------------------------------------------------
 ! R1    R(1,2)                  1.9455         estimate D2E/DX2                !
 ! R2    R(1,3)                  1.9537         estimate D2E/DX2                !
 ! R3    R(1,4)                  1.9783         estimate D2E/DX2                !
 ! R4    R(1,5)                  1.9592         estimate D2E/DX2                !
 ! R5    R(2,8)                  1.6494         estimate D2E/DX2                !
 ! R6    R(3,7)                  1.6382         estimate D2E/DX2                !
 ! R7    R(4,6)                  1.6416         estimate D2E/DX2                !
 ! R8    R(5,9)                  1.6365         estimate D2E/DX2                !
 ! R9    R(6,16)                 1.6488         estimate D2E/DX2                !
 ! R10   R(6,17)                 1.651          estimate D2E/DX2                !
 ! R11   R(6,18)                 1.6636         estimate D2E/DX2                !
 ! R12   R(7,19)                 1.6831         estimate D2E/DX2                !
 ! R13   R(7,20)                 1.6453         estimate D2E/DX2                !
 ! R14   R(7,21)                 1.6369         estimate D2E/DX2                !
 ! R15   R(8,13)                 1.6414         estimate D2E/DX2                !
 ! R16   R(8,14)                 1.6742         estimate D2E/DX2                !
 ! R17   R(8,15)                 1.6395         estimate D2E/DX2                !
 ! R18   R(9,10)                 1.6509         estimate D2E/DX2                !
 ! R19   R(9,11)                 1.6574         estimate D2E/DX2                !
 ! R20   R(9,12)                 1.6499         estimate D2E/DX2                !
 ! R21   R(10,23)                0.9639         estimate D2E/DX2                !
 ! R22   R(11,24)                0.9637         estimate D2E/DX2                !
 ! R23   R(12,22)                0.9636         estimate D2E/DX2                !
 ! R24   R(13,25)                0.9741         estimate D2E/DX2                !
 ! R25   R(14,27)                0.9767         estimate D2E/DX2                !
 ! R26   R(15,26)                0.9633         estimate D2E/DX2                !
 ! R27   R(16,32)                0.9637         estimate D2E/DX2                !
 ! R28   R(17,33)                0.9838         estimate D2E/DX2                !
 ! R29   R(18,31)                0.9639         estimate D2E/DX2                !
 ! R30   R(19,30)                0.9654         estimate D2E/DX2                !
 ! R31   R(20,28)                0.964          estimate D2E/DX2                !
 ! R32   R(21,29)                0.9802         estimate D2E/DX2                !
 ! A1    A(2,1,3)              106.0959         estimate D2E/DX2                !
 ! A2    A(2,1,4)              103.2214         estimate D2E/DX2                !
 ! A3    A(2,1,5)              112.8091         estimate D2E/DX2                !
 ! A4    A(3,1,4)              105.0977         estimate D2E/DX2                !
 ! A5    A(3,1,5)              115.6243         estimate D2E/DX2                !
 ! A6    A(4,1,5)              112.9055         estimate D2E/DX2                !
 ! A7    A(1,2,8)              141.2479         estimate D2E/DX2                !
 ! A8    A(1,3,7)              148.2962         estimate D2E/DX2                !
 ! A9    A(1,4,6)              134.9216         estimate D2E/DX2                !
 ! A10   A(1,5,9)              164.2747         Frozen                          !
 ! A11   A(4,6,16)             109.9952         estimate D2E/DX2                !
 ! A12   A(4,6,17)             109.7479         estimate D2E/DX2                !
 ! A13   A(4,6,18)             111.8422         estimate D2E/DX2                !
 ! A14   A(16,6,17)            114.9972         estimate D2E/DX2                !
 ! A15   A(16,6,18)            108.0658         estimate D2E/DX2                !
 ! A16   A(17,6,18)            101.9869         estimate D2E/DX2                !
 ! A17   A(3,7,19)             103.269          estimate D2E/DX2                !
 ! A18   A(3,7,20)             114.3706         estimate D2E/DX2                !
 ! A19   A(3,7,21)             111.9733         estimate D2E/DX2                !
 ! A20   A(19,7,20)            106.3205         estimate D2E/DX2                !
 ! A21   A(19,7,21)            112.6973         estimate D2E/DX2                !
 ! A22   A(20,7,21)            108.1076         estimate D2E/DX2                !
 ! A23   A(2,8,13)             111.4365         estimate D2E/DX2                !
 ! A24   A(2,8,14)             107.7362         estimate D2E/DX2                !
 ! A25   A(2,8,15)             107.5759         estimate D2E/DX2                !
 ! A26   A(13,8,14)            110.4391         estimate D2E/DX2                !
 ! A27   A(13,8,15)            110.7606         estimate D2E/DX2                !
 ! A28   A(14,8,15)            108.7751         estimate D2E/DX2                !
 ! A29   A(5,9,10)             113.7765         estimate D2E/DX2                !
 ! A30   A(5,9,11)             110.2316         estimate D2E/DX2                !
 ! A31   A(5,9,12)             105.0578         estimate D2E/DX2                !
 ! A32   A(10,9,11)            105.2123         estimate D2E/DX2                !
 ! A33   A(10,9,12)            108.4598         estimate D2E/DX2                !
 ! A34   A(11,9,12)            114.32           estimate D2E/DX2                !
 ! A35   A(9,10,23)            115.8442         estimate D2E/DX2                !
 ! A36   A(9,11,24)            117.3551         estimate D2E/DX2                !
 ! A37   A(9,12,22)            116.8572         estimate D2E/DX2                !
 ! A38   A(8,13,25)            116.8991         estimate D2E/DX2                !
 ! A39   A(8,14,27)            114.056          estimate D2E/DX2                !
 ! A40   A(8,15,26)            117.2166         estimate D2E/DX2                !
 ! A41   A(6,16,32)            116.4907         estimate D2E/DX2                !
 ! A42   A(6,17,33)            117.1859         estimate D2E/DX2                !
 ! A43   A(6,18,31)            116.3076         estimate D2E/DX2                !
 ! A44   A(7,19,30)            115.1373         estimate D2E/DX2                !
 ! A45   A(7,20,28)            116.1676         estimate D2E/DX2                !
 ! A46   A(7,21,29)            116.2372         estimate D2E/DX2                !
 ! D1    D(3,1,2,8)             57.7292         estimate D2E/DX2                !
 ! D2    D(4,1,2,8)            -52.5301         estimate D2E/DX2                !
 ! D3    D(5,1,2,8)           -174.7067         estimate D2E/DX2                !
 ! D4    D(2,1,3,7)            -50.098          estimate D2E/DX2                !
 ! D5    D(4,1,3,7)             58.8315         estimate D2E/DX2                !
 ! D6    D(5,1,3,7)           -175.9641         estimate D2E/DX2                !
 ! D7    D(2,1,4,6)             42.7683         estimate D2E/DX2                !
 ! D8    D(3,1,4,6)            -68.2312         estimate D2E/DX2                !
 ! D9    D(5,1,4,6)            164.8802         estimate D2E/DX2                !
 ! D10   D(2,1,5,9)            -95.3632         estimate D2E/DX2                !
 ! D11   D(3,1,5,9)             27.0            Frozen                          !
 ! D12   D(4,1,5,9)            148.0823         estimate D2E/DX2                !
 ! D13   D(1,2,8,13)            93.5308         estimate D2E/DX2                !
 ! D14   D(1,2,8,14)           -27.7655         estimate D2E/DX2                !
 ! D15   D(1,2,8,15)          -144.8802         estimate D2E/DX2                !
 ! D16   D(1,3,7,19)           -61.1012         estimate D2E/DX2                !
 ! D17   D(1,3,7,20)          -176.1751         estimate D2E/DX2                !
 ! D18   D(1,3,7,21)            60.409          estimate D2E/DX2                !
 ! D19   D(1,4,6,16)           160.167          estimate D2E/DX2                !
 ! D20   D(1,4,6,17)            32.6925         estimate D2E/DX2                !
 ! D21   D(1,4,6,18)           -79.742          estimate D2E/DX2                !
 ! D22   D(1,5,9,10)          -100.1297         estimate D2E/DX2                !
 ! D23   D(1,5,9,11)           141.9685         estimate D2E/DX2                !
 ! D24   D(1,5,9,12)            18.3492         Frozen                          !
 ! D25   D(4,6,16,32)          -14.1998         estimate D2E/DX2                !
 ! D26   D(17,6,16,32)         110.2979         estimate D2E/DX2                !
 ! D27   D(18,6,16,32)        -136.5531         estimate D2E/DX2                !
 ! D28   D(4,6,17,33)           51.0095         estimate D2E/DX2                !
 ! D29   D(16,6,17,33)         -73.6179         estimate D2E/DX2                !
 ! D30   D(18,6,17,33)         169.7166         estimate D2E/DX2                !
 ! D31   D(4,6,18,31)          -96.4424         estimate D2E/DX2                !
 ! D32   D(16,6,18,31)          24.7715         estimate D2E/DX2                !
 ! D33   D(17,6,18,31)         146.349          estimate D2E/DX2                !
 ! D34   D(3,7,19,30)         -162.1837         estimate D2E/DX2                !
 ! D35   D(20,7,19,30)         -41.4662         estimate D2E/DX2                !
 ! D36   D(21,7,19,30)          76.796          estimate D2E/DX2                !
 ! D37   D(3,7,20,28)          -98.427          estimate D2E/DX2                !
 ! D38   D(19,7,20,28)         148.2947         estimate D2E/DX2                !
 ! D39   D(21,7,20,28)          27.0455         estimate D2E/DX2                !
 ! D40   D(3,7,21,29)          -49.8995         estimate D2E/DX2                !
 ! D41   D(19,7,21,29)          66.0156         estimate D2E/DX2                !
 ! D42   D(20,7,21,29)        -176.7753         estimate D2E/DX2                !
 ! D43   D(2,8,13,25)          -58.468          estimate D2E/DX2                !
 ! D44   D(14,8,13,25)          61.2404         estimate D2E/DX2                !
 ! D45   D(15,8,13,25)        -178.1888         estimate D2E/DX2                !
 ! D46   D(2,8,14,27)           80.2918         estimate D2E/DX2                !
 ! D47   D(13,8,14,27)         -41.6247         estimate D2E/DX2                !
 ! D48   D(15,8,14,27)        -163.3756         estimate D2E/DX2                !
 ! D49   D(2,8,15,26)         -174.1994         estimate D2E/DX2                !
 ! D50   D(13,8,15,26)         -52.1897         estimate D2E/DX2                !
 ! D51   D(14,8,15,26)          69.3652         estimate D2E/DX2                !
 ! D52   D(5,9,10,23)          -94.85           estimate D2E/DX2                !
 ! D53   D(11,9,10,23)          25.9079         estimate D2E/DX2                !
 ! D54   D(12,9,10,23)         148.64           estimate D2E/DX2                !
 ! D55   D(5,9,11,24)          -43.8215         estimate D2E/DX2                !
 ! D56   D(10,9,11,24)        -166.8805         estimate D2E/DX2                !
 ! D57   D(12,9,11,24)          74.2389         estimate D2E/DX2                !
 ! D58   D(5,9,12,22)         -166.4766         estimate D2E/DX2                !
 ! D59   D(10,9,12,22)         -44.4739         estimate D2E/DX2                !
 ! D60   D(11,9,12,22)          72.5546         estimate D2E/DX2                !
 --------------------------------------------------------------------------------
 Trust Radius=3.00D-01 FncErr=1.00D-07 GrdErr=1.00D-06 EigMax=2.50D+02 EigMin=1.00D-04
 Number of steps in this run=    148 maximum allowed number of steps=    198.
 GradGradGradGradGradGradGradGradGradGradGradGradGradGradGradGradGradGrad

                          Input orientation:                          
 ---------------------------------------------------------------------
 Center     Atomic      Atomic             Coordinates (Angstroms)
 Number     Number       Type             X           Y           Z
 ---------------------------------------------------------------------
      1         40           0        0.657790   -0.125060   -0.071640
      2          8           0       -0.222850   -0.906240    1.477300
      3          8           0        0.103020    1.747480   -0.122990
      4          8           0       -0.268300   -0.978850   -1.597050
      5          8           0        2.592060   -0.436300   -0.082840
      6         14           0       -1.831190   -1.332440   -1.953600
      7         14           0       -1.115500    2.841720   -0.082790
      8         14           0       -1.723760   -1.152910    2.115170
      9         14           0        4.212070   -0.290410    0.096800
     10          8           0        4.997600    0.154830   -1.285330
     11          8           0        4.875030   -1.748310    0.523420
     12          8           0        4.413200    0.901950    1.219230
     13          8           0       -2.319240   -2.624000    1.696270
     14          8           0       -2.724220    0.065080    1.550860
     15          8           0       -1.597340   -1.019570    3.744390
     16          8           0       -2.001440   -1.559650   -3.577820
     17          8           0       -2.825090   -0.186760   -1.301450
     18          8           0       -2.344480   -2.714390   -1.182770
     19          8           0       -2.040460    2.439570   -1.430230
     20          8           0       -0.635650    4.400490   -0.299870
     21          8           0       -1.965510    2.760860    1.313830
     22          1           0        5.299570    1.268620    1.310750
     23          1           0        5.359960   -0.565580   -1.813370
     24          1           0        4.416180   -2.263480    1.196260
     25          1           0       -2.405770   -2.809510    0.743920
     26          1           0       -2.381370   -1.224230    4.265350
     27          1           0       -3.060340   -0.083060    0.645890
     28          1           0       -0.527310    4.927280    0.500150
     29          1           0       -2.269090    1.869320    1.585330
     30          1           0       -2.648540    3.126760   -1.730140
     31          1           0       -2.304520   -3.529520   -1.695620
     32          1           0       -1.271140   -1.263050   -4.132230
     33          1           0       -2.610260    0.754610   -1.489930
 ---------------------------------------------------------------------
                    Distance matrix (angstroms):
                    1          2          3          4          5
     1  Zr   0.000000
     2  O    1.945504   0.000000
     3  O    1.953666   3.115983   0.000000
     4  O    1.978251   3.075543   3.121475   0.000000
     5  O    1.959183   3.252476   3.311469   3.281593   0.000000
     6  Si   3.345827   3.813067   4.071635   1.641578   4.885484
     7  Si   3.456366   4.156670   1.638221   4.196128   4.948880
     8  Si   3.392697   1.649380   4.093745   3.991145   4.896027
     9  Si   3.562109   4.685461   4.591905   4.839090   1.636456
    10  O    4.515012   6.000924   5.276787   5.395563   2.753550
    11  O    4.557867   5.254270   5.950670   5.616254   2.702013
    12  O    4.101731   4.982882   4.592834   5.778000   2.608227
    13  O    4.270002   2.719099   5.318542   4.214123   5.663226
    14  O    3.755882   2.684348   3.691278   4.126823   5.584191
    15  O    4.521929   2.653632   5.050190   5.504452   5.704294
    16  O    4.628483   5.398571   5.225104   2.695283   5.880225
    17  O    3.694143   3.874372   3.701875   2.692947   5.558129
    18  O    4.117386   3.853141   5.198238   2.737563   5.546978
    19  O    3.962783   4.790812   2.604299   3.854086   5.616612
    20  O    4.712290   5.611606   2.759598   5.545712   5.818913
    21  O    4.138812   4.063399   2.714813   5.033803   5.739683
    22  H    5.039788   5.937582   5.411936   6.671402   3.489908
    23  H    5.033695   6.489401   5.986906   5.647557   3.266913
    24  H    4.506207   4.841661   6.035857   5.603321   2.881336
    25  H    4.154132   2.987545   5.273682   3.660633   5.594101
    26  H    5.408711   3.540275   5.853271   6.236426   6.653014
    27  H    3.786965   3.069237   3.734823   3.691708   5.710118
    28  H    5.220876   5.922624   3.301022   6.272775   6.232041
    29  H    3.910208   3.450000   2.925766   4.716225   5.632890
    30  H    4.925117   5.695325   3.472237   4.747556   6.547739
    31  H    4.796138   4.613282   6.009671   3.265245   6.012118
    32  H    4.637260   5.717784   5.198616   2.741094   5.657331
    33  H    3.669539   4.154829   3.196280   2.915671   5.519266
                    6          7          8          9         10
     6  Si   0.000000
     7  Si   4.629876   0.000000
     8  Si   4.074145   4.599791   0.000000
     9  Si   6.466139   6.182677   6.328649   0.000000
    10  O    7.020750   6.784945   7.645277   1.650933   0.000000
    11  O    7.161143   7.571150   6.814118   1.657406   2.628411
    12  O    7.351990   6.002040   6.533562   1.649856   2.678158
    13  O    3.902290   5.872660   1.641396   7.117721   8.375439
    14  O    3.877087   3.600906   1.674176   7.095969   8.226696
    15  O    5.711363   5.457933   1.639549   6.898248   8.376785
    16  O    1.648848   5.689656   5.714252   7.329496   7.561846
    17  O    1.650975   3.685040   3.717481   7.175477   7.830161
    18  O    1.663560   5.795749   3.701340   7.106429   7.883469
    19  O    3.813892   1.683113   5.057279   6.991333   7.401035
    20  O    6.085279   1.645340   6.152776   6.757387   7.122518
    21  O    5.239203   1.636949   4.002272   6.996707   7.876035
    22  H    8.262520   6.750535   7.472487   2.255417   2.841011
    23  H    7.233283   7.519055   8.121421   2.245466   0.963910
    24  H    7.058193   7.635347   6.306871   2.267924   3.513483
    25  H    3.128657   5.855309   2.256056   7.110586   8.228916
    26  H    6.244177   6.086107   2.249625   7.856353   9.336008
    27  H    3.135141   3.587160   2.256060   7.296057   8.289548
    28  H    6.848729   2.243958   6.403787   7.060361   7.515906
    29  H    4.792395   2.249212   3.116406   6.991823   7.999059
    30  H    4.538993   2.268308   5.827281   7.879259   8.215454
    31  H    2.262246   6.678899   4.528540   7.494701   8.189245
    32  H    2.250533   5.768130   6.264743   6.992590   7.029390
    33  H    2.275460   2.927521   4.173878   7.081946   7.634208
                   11         12         13         14         15
    11  O    0.000000
    12  O    2.778726   0.000000
    13  O    7.341657   7.614830   0.000000
    14  O    7.879887   7.193962   2.723289   0.000000
    15  O    7.266174   6.796710   2.700024   2.694049   0.000000
    16  O    8.008845   8.379664   5.389792   5.428215   7.353213
    17  O    8.066005   7.741573   3.896453   2.865182   5.259415
    18  O    7.481024   8.032046   2.880569   3.916936   5.263795
    19  O    8.317397   7.143783   5.957555   3.872032   6.240088
    20  O    8.297779   6.327585   7.494165   5.155881   6.830662
    21  O    8.231060   6.644730   5.410000   2.810526   4.509415
    22  H    3.146743   0.963574   8.564309   8.117103   7.663275
    23  H    2.663568   3.499523   8.690499   8.778937   8.916211
    24  H    0.963669   3.165515   6.763569   7.518859   6.648511
    25  H    7.361034   7.778124   0.974101   3.002637   3.586121
    26  H    8.181200   7.743750   2.926327   3.024619   0.963321
    27  H    8.109140   7.559945   2.847614   0.976674   3.552200
    28  H    8.587742   6.413189   7.852614   5.437959   6.858213
    29  H    8.077955   6.761866   4.494969   1.861079   3.668579
    30  H    9.243860   7.969739   6.702236   4.488271   6.947485
    31  H    7.722874   8.559325   3.510712   4.861783   6.032716
    32  H    7.725669   8.101671   6.076357   6.014390   7.887131
    33  H    8.145413   7.529293   4.653125   3.120071   5.618881
                   16         17         18         19         20
    16  O    0.000000
    17  O    2.783000   0.000000
    18  O    2.680926   2.575652   0.000000
    19  O    4.539540   2.744055   5.168846   0.000000
    20  O    6.937839   5.180702   7.370287   2.663909   0.000000
    21  O    6.526587   4.033241   6.029510   2.763822   2.657243
    22  H    9.230492   8.657472   8.972932   7.922129   6.901416
    23  H    7.634898   8.209787   8.023306   7.996495   7.930944
    24  H    8.029512   7.936455   7.181200   8.408646   8.495168
    25  H    4.516976   3.352340   1.930010   5.693261   7.497128
    26  H    7.859527   5.680008   5.648358   6.780802   7.451594
    27  H    4.597968   1.964238   3.283344   3.422586   5.184188
    28  H    7.802766   5.888884   8.033022   3.493521   0.963990
    29  H    6.203837   3.587492   5.355227   3.077509   3.553720
    30  H    5.078888   3.345797   5.874615   0.965369   2.778450
    31  H    2.741336   3.405937   0.963872   5.980819   8.223035
    32  H    0.963680   3.403891   3.458000   4.647801   6.867788
    33  H    3.175806   0.983796   3.492699   1.779698   4.313672
                   21         22         23         24         25
    21  O    0.000000
    22  H    7.416750   0.000000
    23  H    8.631749   3.623267   0.000000
    24  H    8.123040   3.642694   3.582102   0.000000
    25  H    5.616729   8.736401   8.478297   6.858700   0.000000
    26  H    4.976480   8.598884   9.864727   7.530341   3.861888
    27  H    3.119724   8.494538   8.785342   7.807400   2.805637
    28  H    2.724678   6.927871   8.377579   8.753839   7.965297
    29  H    0.980162   7.597424   8.699558   7.869196   4.755849
    30  H    3.141045   8.710462   8.819091   9.355681   6.435776
    31  H    6.981447   9.480643   8.218458   7.425203   2.545589
    32  H    6.806877   8.899978   7.059395   7.857434   5.239825
    33  H    3.507394   8.406749   8.085290   8.105266   4.211277
                   26         27         28         29         30
    26  H    0.000000
    27  H    3.855355   0.000000
    28  H    7.446835   5.616136   0.000000
    29  H    4.094529   2.306602   3.682734   0.000000
    30  H    7.412718   4.014728   3.565906   3.566157   0.000000
    31  H    6.391669   4.234622   8.916129   6.317702   6.665254
    32  H    8.470742   5.236797   7.767394   6.595312   5.190154
    33  H    6.090275   2.337946   5.070530   3.288799   2.384588
                   31         32         33
    31  H    0.000000
    32  H    3.484513   0.000000
    33  H    4.299948   3.584124   0.000000
 Stoichiometry    H12O16Si4Zr
 Framework group  C1[X(H12O16Si4Zr)]
 Deg. of freedom    93
 Full point group                 C1      NOp   1
 Largest Abelian subgroup         C1      NOp   1
 Largest concise Abelian subgroup C1      NOp   1
                         Standard orientation:                         
 ---------------------------------------------------------------------
 Center     Atomic      Atomic             Coordinates (Angstroms)
 Number     Number       Type             X           Y           Z
 ---------------------------------------------------------------------
      1         40           0        0.657733   -0.113124   -0.102634
      2          8           0       -0.185494   -0.905558    1.461336
      3          8           0        0.087016    1.754996   -0.137584
      4          8           0       -0.291740   -0.970286   -1.611690
      5          8           0        2.593833   -0.408669   -0.153299
      6         14           0       -1.858546   -1.335555   -1.937999
      7         14           0       -1.139214    2.839227   -0.069975
      8         14           0       -1.671336   -1.166076    2.128313
      9         14           0        4.215882   -0.250156   -0.005594
     10          8           0        4.970052    0.205132   -1.401846
     11          8           0        4.898926   -1.703783    0.403570
     12          8           0        4.429795    0.940777    1.115987
     13          8           0       -2.263219   -2.640808    1.717192
     14          8           0       -2.692622    0.045287    1.587536
     15          8           0       -1.513483   -1.036089    3.755059
     16          8           0       -2.059364   -1.559777   -3.559140
     17          8           0       -2.848402   -0.199709   -1.262899
     18          8           0       -2.345217   -2.723676   -1.161017
     19          8           0       -2.087634    2.433221   -1.399835
     20          8           0       -0.676339    4.402406   -0.292150
     21          8           0       -1.960489    2.747745    1.343086
     22          1           0        5.314840    1.314361    1.190851
     23          1           0        5.327574   -0.510903   -1.939055
     24          1           0        4.457759   -2.224452    1.083961
     25          1           0       -2.367255   -2.824457    0.766234
     26          1           0       -2.285284   -1.248484    4.290970
     27          1           0       -3.045545   -0.103141    0.689033
     28          1           0       -0.556283    4.927907    0.507045
     29          1           0       -2.251411    1.853052    1.618051
     30          1           0       -2.707086    3.116269   -1.685601
     31          1           0       -2.308956   -3.537077   -1.676878
     32          1           0       -1.342688   -1.255791   -4.127161
     33          1           0       -2.644952    0.743871   -1.452949
 ---------------------------------------------------------------------
 Rotational constants (GHZ):           0.2122857           0.1339149           0.1241177
 General basis read from cards:  (5D, 7F)
 ======================================================================================================
                                       Pseudopotential Parameters
 ======================================================================================================
  Center     Atomic      Valence      Angular      Power
  Number     Number     Electrons     Momentum     of R      Exponent        Coefficient   SO-Coeffient
 ======================================================================================================
    1         40           12
                                      G and up 
                                                     2        1.0000000        0.00000000    0.00000000
                                      S - G
                                                     2        8.6365280      150.24299400    0.00000000
                                                     2        3.7176390       18.78003600    0.00000000
                                      P - G
                                                     2        7.6267280       33.19279100    0.00000000
                                                     2        7.4532070       66.38903900    0.00000000
                                                     2        3.3583890        4.62072600    0.00000000
                                                     2        3.2297380        9.26027000    0.00000000
                                      D - G
                                                     2        5.9380860       13.99338300    0.00000000
                                                     2        5.8255440       20.99588200    0.00000000
                                                     2        2.2050190        2.28516600    0.00000000
                                                     2        2.2062920        3.44126000    0.00000000
                                      F - G
                                                     2        4.8002150       -5.23932000    0.00000000
                                                     2        4.7989920       -6.98742400    0.00000000
    2          8
                                   No pseudopotential on this center.
    3          8
                                   No pseudopotential on this center.
    4          8
                                   No pseudopotential on this center.
    5          8
                                   No pseudopotential on this center.
    6         14
                                   No pseudopotential on this center.
    7         14
                                   No pseudopotential on this center.
    8         14
                                   No pseudopotential on this center.
    9         14
                                   No pseudopotential on this center.
   10          8
                                   No pseudopotential on this center.
   11          8
                                   No pseudopotential on this center.
   12          8
                                   No pseudopotential on this center.
   13          8
                                   No pseudopotential on this center.
   14          8
                                   No pseudopotential on this center.
   15          8
                                   No pseudopotential on this center.
   16          8
                                   No pseudopotential on this center.
   17          8
                                   No pseudopotential on this center.
   18          8
                                   No pseudopotential on this center.
   19          8
                                   No pseudopotential on this center.
   20          8
                                   No pseudopotential on this center.
   21          8
                                   No pseudopotential on this center.
   22          1
                                   No pseudopotential on this center.
   23          1
                                   No pseudopotential on this center.
   24          1
                                   No pseudopotential on this center.
   25          1
                                   No pseudopotential on this center.
   26          1
                                   No pseudopotential on this center.
   27          1
                                   No pseudopotential on this center.
   28          1
                                   No pseudopotential on this center.
   29          1
                                   No pseudopotential on this center.
   30          1
                                   No pseudopotential on this center.
   31          1
                                   No pseudopotential on this center.
   32          1
                                   No pseudopotential on this center.
   33          1
                                   No pseudopotential on this center.
 ======================================================================================================
 There are   570 symmetry adapted cartesian basis functions of A   symmetry.
 There are   524 symmetry adapted basis functions of A   symmetry.
   524 basis functions,  1074 primitive gaussians,   570 cartesian basis functions
   104 alpha electrons      104 beta electrons
       nuclear repulsion energy      2832.9324821880 Hartrees.
 NAtoms=   33 NActive=   33 NUniq=   33 SFac= 1.00D+00 NAtFMM=   60 NAOKFM=F Big=F
 Integral buffers will be    131072 words long.
 Raffenetti 2 integral format.
 Two-electron integral symmetry is turned on.
 Nuclear repulsion after empirical dispersion term =     2832.8916826507 Hartrees.
 One-electron integrals computed using PRISM.
 PrsmSu:  requested number of processors reduced to:   4 ShMem   1 Linda.
   1 Symmetry operations used in ECPInt.
 ECPInt:  NShTT=   13203 NPrTT=   78401 LenC2=   11525 LenP2D=   44633.
 LDataN:  DoStor=T MaxTD1= 8 Len=  415
 Number of processors reduced to  13 by ecpmxn.
 NBasis=   524 RedAO= T EigKep=  3.20D-05  NBF=   524
 NBsUse=   524 1.00D-06 EigRej= -1.00D+00 NBFU=   524
 Defaulting to unpruned grid for atomic number  40.
 ExpMin= 1.01D-02 ExpMax= 1.61D+04 ExpMxC= 2.43D+03 IAcc=3 IRadAn=         5 AccDes= 0.00D+00
 Harris functional with IExCor=  402 and IRadAn=       5 diagonalized for initial guess.
 HarFok:  IExCor=  402 AccDes= 0.00D+00 IRadAn=         5 IDoV= 1 UseB2=F ITyADJ=14
 ICtDFT=  3500011 ScaDFX=  1.000000  1.000000  1.000000  1.000000
 Defaulting to unpruned grid for atomic number  40.
 FoFCou: FMM=F IPFlag=           0 FMFlag=      100000 FMFlg1=           0
         NFxFlg=           0 DoJE=T BraDBF=F KetDBF=T FulRan=T
         wScrn=  0.000000 ICntrl=       500 IOpCl=  0 I1Cent=   200000004 NGrid=           0
         NMat0=    1 NMatS0=      1 NMatT0=    0 NMatD0=    1 NMtDS0=    0 NMtDT0=    0
 Petite list used in FoFCou.
 Requested convergence on RMS density matrix=1.00D-08 within 128 cycles.
 Requested convergence on MAX density matrix=1.00D-06.
 Requested convergence on             energy=1.00D-06.
 No special actions if energy rises.
 Defaulting to unpruned grid for atomic number  40.
 Defaulting to unpruned grid for atomic number  40.
 Defaulting to unpruned grid for atomic number  40.
 Defaulting to unpruned grid for atomic number  40.
 Defaulting to unpruned grid for atomic number  40.
 Defaulting to unpruned grid for atomic number  40.
 Defaulting to unpruned grid for atomic number  40.
 Defaulting to unpruned grid for atomic number  40.
 Defaulting to unpruned grid for atomic number  40.
 Defaulting to unpruned grid for atomic number  40.
 Defaulting to unpruned grid for atomic number  40.
 Defaulting to unpruned grid for atomic number  40.
 Defaulting to unpruned grid for atomic number  40.
 Defaulting to unpruned grid for atomic number  40.
 Defaulting to unpruned grid for atomic number  40.
 Defaulting to unpruned grid for atomic number  40.
 SCF Done:  E(RB3LYP) =  -2416.94681093     A.U. after   14 cycles
            NFock= 14  Conv=0.26D-08     -V/T= 2.0185

 **********************************************************************

            Population analysis using the SCF Density.

 **********************************************************************

 Orbital symmetries:
       Occupied  (A) (A) (A) (A) (A) (A) (A) (A) (A) (A) (A) (A)
                 (A) (A) (A) (A) (A) (A) (A) (A) (A) (A) (A) (A)
                 (A) (A) (A) (A) (A) (A) (A) (A) (A) (A) (A) (A)
                 (A) (A) (A) (A) (A) (A) (A) (A) (A) (A) (A) (A)
                 (A) (A) (A) (A) (A) (A) (A) (A) (A) (A) (A) (A)
                 (A) (A) (A) (A) (A) (A) (A) (A) (A) (A) (A) (A)
                 (A) (A) (A) (A) (A) (A) (A) (A) (A) (A) (A) (A)
                 (A) (A) (A) (A) (A) (A) (A) (A) (A) (A) (A) (A)
                 (A) (A) (A) (A) (A) (A) (A) (A)
       Virtual   (A) (A) (A) (A) (A) (A) (A) (A) (A) (A) (A) (A)
                 (A) (A) (A) (A) (A) (A) (A) (A) (A) (A) (A) (A)
                 (A) (A) (A) (A) (A) (A) (A) (A) (A) (A) (A) (A)
                 (A) (A) (A) (A) (A) (A) (A) (A) (A) (A) (A) (A)
                 (A) (A) (A) (A) (A) (A) (A) (A) (A) (A) (A) (A)
                 (A) (A) (A) (A) (A) (A) (A) (A) (A) (A) (A) (A)
                 (A) (A) (A) (A) (A) (A) (A) (A) (A) (A) (A) (A)
                 (A) (A) (A) (A) (A) (A) (A) (A) (A) (A) (A) (A)
                 (A) (A) (A) (A) (A) (A) (A) (A) (A) (A) (A) (A)
                 (A) (A) (A) (A) (A) (A) (A) (A) (A) (A) (A) (A)
                 (A) (A) (A) (A) (A) (A) (A) (A) (A) (A) (A) (A)
                 (A) (A) (A) (A) (A) (A) (A) (A) (A) (A) (A) (A)
                 (A) (A) (A) (A) (A) (A) (A) (A) (A) (A) (A) (A)
                 (A) (A) (A) (A) (A) (A) (A) (A) (A) (A) (A) (A)
                 (A) (A) (A) (A) (A) (A) (A) (A) (A) (A) (A) (A)
                 (A) (A) (A) (A) (A) (A) (A) (A) (A) (A) (A) (A)
                 (A) (A) (A) (A) (A) (A) (A) (A) (A) (A) (A) (A)
                 (A) (A) (A) (A) (A) (A) (A) (A) (A) (A) (A) (A)
                 (A) (A) (A) (A) (A) (A) (A) (A) (A) (A) (A) (A)
                 (A) (A) (A) (A) (A) (A) (A) (A) (A) (A) (A) (A)
                 (A) (A) (A) (A) (A) (A) (A) (A) (A) (A) (A) (A)
                 (A) (A) (A) (A) (A) (A) (A) (A) (A) (A) (A) (A)
                 (A) (A) (A) (A) (A) (A) (A) (A) (A) (A) (A) (A)
                 (A) (A) (A) (A) (A) (A) (A) (A) (A) (A) (A) (A)
                 (A) (A) (A) (A) (A) (A) (A) (A) (A) (A) (A) (A)
                 (A) (A) (A) (A) (A) (A) (A) (A) (A) (A) (A) (A)
                 (A) (A) (A) (A) (A) (A) (A) (A) (A) (A) (A) (A)
                 (A) (A) (A) (A) (A) (A) (A) (A) (A) (A) (A) (A)
                 (A) (A) (A) (A) (A) (A) (A) (A) (A) (A) (A) (A)
                 (A) (A) (A) (A) (A) (A) (A) (A) (A) (A) (A) (A)
                 (A) (A) (A) (A) (A) (A) (A) (A) (A) (A) (A) (A)
                 (A) (A) (A) (A) (A) (A) (A) (A) (A) (A) (A) (A)
                 (A) (A) (A) (A) (A) (A) (A) (A) (A) (A) (A) (A)
                 (A) (A) (A) (A) (A) (A) (A) (A) (A) (A) (A) (A)
                 (A) (A) (A) (A) (A) (A) (A) (A) (A) (A) (A) (A)
 The electronic state is 1-A.
 Alpha  occ. eigenvalues --  -66.22820 -66.21759 -66.21486 -66.21023 -19.18605
 Alpha  occ. eigenvalues --  -19.18358 -19.17809 -19.17036 -19.16740 -19.16550
 Alpha  occ. eigenvalues --  -19.16427 -19.16208 -19.16175 -19.16026 -19.15967
 Alpha  occ. eigenvalues --  -19.15507 -19.15331 -19.15241 -19.14890 -19.14704
 Alpha  occ. eigenvalues --   -5.36880  -5.35839  -5.35562  -5.35083  -3.72864
 Alpha  occ. eigenvalues --   -3.72838  -3.72791  -3.71831  -3.71784  -3.71749
 Alpha  occ. eigenvalues --   -3.71531  -3.71522  -3.71483  -3.71048  -3.71039
 Alpha  occ. eigenvalues --   -3.71014  -2.13365  -1.29609  -1.29524  -1.29366
 Alpha  occ. eigenvalues --   -1.05695  -1.04782  -1.04148  -1.03483  -1.02583
 Alpha  occ. eigenvalues --   -1.02179  -1.01478  -1.00921  -1.00754  -1.00651
 Alpha  occ. eigenvalues --   -0.99825  -0.99301  -0.97378  -0.96291  -0.95723
 Alpha  occ. eigenvalues --   -0.95395  -0.61006  -0.59164  -0.58971  -0.58473
 Alpha  occ. eigenvalues --   -0.55558  -0.54538  -0.53870  -0.53039  -0.52977
 Alpha  occ. eigenvalues --   -0.52488  -0.52133  -0.51716  -0.48794  -0.47598
 Alpha  occ. eigenvalues --   -0.47208  -0.46712  -0.43384  -0.42647  -0.41874
 Alpha  occ. eigenvalues --   -0.41412  -0.41107  -0.40528  -0.39850  -0.39307
 Alpha  occ. eigenvalues --   -0.38823  -0.38698  -0.38638  -0.38133  -0.38010
 Alpha  occ. eigenvalues --   -0.37624  -0.37509  -0.37143  -0.36505  -0.36429
 Alpha  occ. eigenvalues --   -0.36127  -0.35652  -0.35432  -0.35079  -0.34918
 Alpha  occ. eigenvalues --   -0.34609  -0.33985  -0.33714  -0.33448  -0.33280
 Alpha  occ. eigenvalues --   -0.32794  -0.32182  -0.32048  -0.31301
 Alpha virt. eigenvalues --   -0.04341  -0.03150  -0.03035  -0.02759  -0.02100
 Alpha virt. eigenvalues --   -0.01170  -0.00568  -0.00185   0.00126   0.00316
 Alpha virt. eigenvalues --    0.00773   0.00942   0.01015   0.01946   0.02337
 Alpha virt. eigenvalues --    0.03177   0.03336   0.03827   0.03941   0.04085
 Alpha virt. eigenvalues --    0.04174   0.04825   0.05625   0.05837   0.06089
 Alpha virt. eigenvalues --    0.06478   0.07099   0.07436   0.07720   0.08658
 Alpha virt. eigenvalues --    0.08771   0.08990   0.09184   0.09668   0.09985
 Alpha virt. eigenvalues --    0.10438   0.10625   0.10818   0.11151   0.11715
 Alpha virt. eigenvalues --    0.11821   0.12520   0.13232   0.13334   0.13888
 Alpha virt. eigenvalues --    0.14050   0.14260   0.14871   0.15210   0.15417
 Alpha virt. eigenvalues --    0.15441   0.15763   0.16162   0.16756   0.16898
 Alpha virt. eigenvalues --    0.17394   0.17498   0.17627   0.17951   0.18276
 Alpha virt. eigenvalues --    0.18534   0.18828   0.19190   0.19563   0.19724
 Alpha virt. eigenvalues --    0.20082   0.20494   0.20677   0.21060   0.21257
 Alpha virt. eigenvalues --    0.21697   0.21745   0.22239   0.22569   0.22833
 Alpha virt. eigenvalues --    0.23381   0.23840   0.24018   0.24143   0.24512
 Alpha virt. eigenvalues --    0.25078   0.25171   0.25512   0.25789   0.26178
 Alpha virt. eigenvalues --    0.26386   0.26738   0.26911   0.27286   0.27386
 Alpha virt. eigenvalues --    0.27937   0.28091   0.28473   0.28853   0.29036
 Alpha virt. eigenvalues --    0.29471   0.29612   0.29824   0.30347   0.30626
 Alpha virt. eigenvalues --    0.30959   0.31248   0.31352   0.31549   0.32207
 Alpha virt. eigenvalues --    0.32493   0.32894   0.33275   0.33480   0.34069
 Alpha virt. eigenvalues --    0.34173   0.34829   0.35337   0.35843   0.36293
 Alpha virt. eigenvalues --    0.36887   0.37598   0.37951   0.38365   0.38956
 Alpha virt. eigenvalues --    0.39200   0.39795   0.40172   0.41185   0.41601
 Alpha virt. eigenvalues --    0.42321   0.43341   0.43812   0.44291   0.44693
 Alpha virt. eigenvalues --    0.45173   0.45917   0.46144   0.46787   0.47385
 Alpha virt. eigenvalues --    0.47879   0.48360   0.48892   0.49469   0.49730
 Alpha virt. eigenvalues --    0.49873   0.50605   0.51267   0.51323   0.53232
 Alpha virt. eigenvalues --    0.53942   0.54483   0.55332   0.57006   0.57210
 Alpha virt. eigenvalues --    0.58193   0.58756   0.59107   0.59613   0.60283
 Alpha virt. eigenvalues --    0.61150   0.61712   0.62083   0.64163   0.65911
 Alpha virt. eigenvalues --    0.66646   0.67661   0.68280   0.69217   0.69466
 Alpha virt. eigenvalues --    0.70287   0.70513   0.72816   0.74304   0.75214
 Alpha virt. eigenvalues --    0.75524   0.77408   0.78575   0.79024   0.80567
 Alpha virt. eigenvalues --    0.81087   0.81528   0.82677   0.84068   0.85516
 Alpha virt. eigenvalues --    0.86907   0.87616   0.90140   0.90595   0.91118
 Alpha virt. eigenvalues --    0.94005   0.95708   0.96368   0.96877   0.97419
 Alpha virt. eigenvalues --    0.98261   0.98846   0.99352   0.99868   1.00140
 Alpha virt. eigenvalues --    1.00611   1.01340   1.01950   1.03237   1.04067
 Alpha virt. eigenvalues --    1.04261   1.05595   1.06344   1.06714   1.07856
 Alpha virt. eigenvalues --    1.09853   1.12360   1.15245   1.16161   1.16419
 Alpha virt. eigenvalues --    1.18771   1.18975   1.19961   1.20655   1.20911
 Alpha virt. eigenvalues --    1.21404   1.21764   1.22263   1.22596   1.22973
 Alpha virt. eigenvalues --    1.23534   1.24119   1.24129   1.25258   1.25651
 Alpha virt. eigenvalues --    1.25855   1.27096   1.27569   1.28029   1.28499
 Alpha virt. eigenvalues --    1.28955   1.29750   1.30140   1.31089   1.31394
 Alpha virt. eigenvalues --    1.32353   1.32529   1.32983   1.33439   1.34494
 Alpha virt. eigenvalues --    1.35088   1.36152   1.36507   1.36884   1.37946
 Alpha virt. eigenvalues --    1.39096   1.39775   1.40228   1.41309   1.41542
 Alpha virt. eigenvalues --    1.42633   1.43394   1.44221   1.45007   1.46367
 Alpha virt. eigenvalues --    1.46963   1.49069   1.51271   1.51598   1.52709
 Alpha virt. eigenvalues --    1.56802   1.57484   1.58048   1.59324   1.59580
 Alpha virt. eigenvalues --    1.60076   1.61131   1.61937   1.62608   1.62983
 Alpha virt. eigenvalues --    1.63267   1.63733   1.65159   1.65428   1.66373
 Alpha virt. eigenvalues --    1.67485   1.68155   1.69266   1.69341   1.70005
 Alpha virt. eigenvalues --    1.71223   1.71614   1.71989   1.72762   1.72970
 Alpha virt. eigenvalues --    1.74091   1.75113   1.75619   1.76178   1.76304
 Alpha virt. eigenvalues --    1.77088   1.77300   1.78505   1.79021   1.79838
 Alpha virt. eigenvalues --    1.80372   1.81392   1.82028   1.82731   1.83013
 Alpha virt. eigenvalues --    1.83311   1.84805   1.85011   1.85818   1.86457
 Alpha virt. eigenvalues --    1.87225   1.88187   1.88808   1.89660   1.90502
 Alpha virt. eigenvalues --    1.91205   1.91539   1.92592   1.92706   1.93997
 Alpha virt. eigenvalues --    1.94614   1.95241   1.95934   1.97137   1.98351
 Alpha virt. eigenvalues --    1.98568   2.00251   2.01064   2.02926   2.03806
 Alpha virt. eigenvalues --    2.05848   2.06523   2.07768   2.09871   2.10381
 Alpha virt. eigenvalues --    2.11497   2.12940   2.14407   2.16054   2.16356
 Alpha virt. eigenvalues --    2.17674   2.18907   2.19042   2.20863   2.26851
 Alpha virt. eigenvalues --    2.32229   2.33365   2.35671   2.39476   2.40468
 Alpha virt. eigenvalues --    2.41178   2.41418   2.41638   2.42789   2.43734
 Alpha virt. eigenvalues --    2.44024   2.45500   2.46661   2.47661   2.49073
 Alpha virt. eigenvalues --    2.50215   2.50320   2.51687   2.52615   2.53233
 Alpha virt. eigenvalues --    2.55388   2.58650   2.59039   2.60042   2.60649
 Alpha virt. eigenvalues --    2.61146   2.61806   2.62139   2.62589   2.62790
 Alpha virt. eigenvalues --    2.63215   2.64025   2.64707   2.65013   2.65930
 Alpha virt. eigenvalues --    2.66337   2.66623   2.67290   2.67587   2.69366
 Alpha virt. eigenvalues --    2.69750   2.70280   2.71216   2.71698   2.72356
 Alpha virt. eigenvalues --    2.72903   2.74420   2.75547   2.76757   2.77481
 Alpha virt. eigenvalues --    2.78952   2.80601   2.81399   2.82432   2.83489
 Alpha virt. eigenvalues --    2.83799   2.84691   2.86695   2.87785   2.88140
 Alpha virt. eigenvalues --    3.15123   3.20855   3.35997   3.41168   3.46854
 Alpha virt. eigenvalues --    3.47810   3.48601   3.48646   3.51055   3.51144
 Alpha virt. eigenvalues --    3.52849   3.53734   3.60298   3.61074   3.62065
 Alpha virt. eigenvalues --    3.66167   4.37198   4.61019   7.93644  31.29463
          Condensed to atoms (all electrons):
               1          2          3          4          5          6
     1  Zr  15.048629  -0.080600  -0.002162  -0.122350  -0.182672  -0.647345
     2  O   -0.080600   9.042090   0.019007  -0.042073  -0.056082   0.077558
     3  O   -0.002162   0.019007   8.826896   0.017968  -0.046887  -0.001021
     4  O   -0.122350  -0.042073   0.017968   8.811932  -0.062398  -0.683512
     5  O   -0.182672  -0.056082  -0.046887  -0.062398   9.406421  -0.009511
     6  Si  -0.647345   0.077558  -0.001021  -0.683512  -0.009511  14.053344
     7  Si  -0.601013  -0.031022  -0.870356  -0.009962  -0.035006   0.081282
     8  Si  -0.658552  -0.995459  -0.018471   0.067657  -0.015798   0.007548
     9  Si  -0.300125  -0.039379  -0.026934  -0.029976  -1.175797   0.039515
    10  O   -0.022998   0.001054  -0.001525   0.000526   0.126827  -0.001827
    11  O   -0.072489   0.002816   0.003104   0.001562   0.313283  -0.000555
    12  O    0.050254   0.000414   0.004306   0.001832   0.130454  -0.003212
    13  O   -0.016822   0.180977   0.001545  -0.015133  -0.000677   0.030143
    14  O   -0.001028   0.257410  -0.018267  -0.008592   0.001602   0.024884
    15  O   -0.087078   0.292575  -0.000600   0.001188   0.000633   0.001369
    16  O   -0.121789   0.004709  -0.000581   0.347768   0.003253  -0.430017
    17  O   -0.080064  -0.039113   0.009511   0.213625   0.001482  -0.449882
    18  O   -0.023643  -0.015051   0.003779   0.196747  -0.000649  -0.453379
    19  O    0.007848   0.008527   0.268006   0.010974   0.002216  -0.009015
    20  O   -0.145754  -0.000586   0.163497  -0.000789   0.001566   0.009414
    21  O    0.037196   0.009443   0.145292   0.003607   0.000140  -0.012364
    22  H   -0.009288  -0.000012  -0.000000  -0.000006   0.006311   0.000090
    23  H   -0.007867  -0.000012  -0.000005  -0.000049  -0.025265   0.000114
    24  H   -0.005341  -0.000145  -0.000013   0.000007  -0.004539   0.000122
    25  H    0.015146  -0.019584  -0.000107  -0.000447   0.000016   0.003470
    26  H    0.007029   0.000879   0.000013  -0.000011  -0.000004  -0.000172
    27  H   -0.000174  -0.018543   0.000827  -0.001763   0.000015   0.010341
    28  H    0.004926  -0.000011  -0.018383  -0.000014  -0.000014  -0.000272
    29  H    0.003126  -0.006889  -0.020192  -0.000138  -0.000074   0.000236
    30  H    0.000579  -0.000012  -0.000009  -0.000469  -0.000009  -0.000589
    31  H   -0.000063   0.000183  -0.000020  -0.018487  -0.000012   0.064006
    32  H    0.002262  -0.000025   0.000042   0.010521   0.000003   0.022358
    33  H   -0.015133   0.001005  -0.010161  -0.009626  -0.000100   0.052660
               7          8          9         10         11         12
     1  Zr  -0.601013  -0.658552  -0.300125  -0.022998  -0.072489   0.050254
     2  O   -0.031022  -0.995459  -0.039379   0.001054   0.002816   0.000414
     3  O   -0.870356  -0.018471  -0.026934  -0.001525   0.003104   0.004306
     4  O   -0.009962   0.067657  -0.029976   0.000526   0.001562   0.001832
     5  O   -0.035006  -0.015798  -1.175797   0.126827   0.313283   0.130454
     6  Si   0.081282   0.007548   0.039515  -0.001827  -0.000555  -0.003212
     7  Si  13.787995   0.184013   0.017814   0.000094  -0.001069   0.003189
     8  Si   0.184013  13.846019   0.028335  -0.001207   0.001340  -0.001555
     9  Si   0.017814   0.028335  14.112033  -0.052463  -0.170232  -0.177962
    10  O    0.000094  -0.001207  -0.052463   8.520401   0.014039   0.028577
    11  O   -0.001069   0.001340  -0.170232   0.014039   8.515260  -0.051080
    12  O    0.003189  -0.001555  -0.177962   0.028577  -0.051080   8.591643
    13  O    0.006666  -0.098662  -0.000002   0.000000   0.000018   0.000001
    14  O    0.007849  -0.364434  -0.001627  -0.000002   0.000003   0.000011
    15  O   -0.002139  -0.304848  -0.000456  -0.000000  -0.000020  -0.000003
    16  O    0.003767  -0.011163  -0.001089   0.000005  -0.000006  -0.000001
    17  O   -0.001636   0.096110   0.002519   0.000001   0.000004  -0.000005
    18  O   -0.001018   0.077266   0.003899   0.000000   0.000004  -0.000000
    19  O   -0.418223  -0.016538   0.000970   0.000006  -0.000001  -0.000035
    20  O   -0.109785   0.009582   0.002944   0.000010  -0.000003  -0.000036
    21  O    0.025844  -0.039277  -0.001521  -0.000000   0.000001   0.000012
    22  H   -0.000110   0.000102   0.046653  -0.006133  -0.004995   0.219434
    23  H    0.000051   0.000060   0.081042   0.228940  -0.005933   0.005810
    24  H    0.000040  -0.000001   0.035226   0.007333   0.243300  -0.007216
    25  H   -0.000420   0.057317  -0.000200   0.000000  -0.000000  -0.000000
    26  H   -0.000388   0.046337  -0.000045  -0.000000   0.000000  -0.000000
    27  H    0.001858   0.068985   0.000014   0.000000  -0.000000  -0.000000
    28  H    0.056702  -0.000025  -0.000144  -0.000000  -0.000000  -0.000002
    29  H    0.048286   0.022200  -0.000059   0.000000   0.000000  -0.000001
    30  H    0.040645   0.000110   0.000016  -0.000000   0.000000   0.000000
    31  H    0.000154  -0.002123  -0.000051   0.000000  -0.000000   0.000000
    32  H   -0.000667   0.000068   0.000025  -0.000000   0.000000  -0.000000
    33  H    0.020635  -0.000046   0.000077  -0.000000   0.000000   0.000000
              13         14         15         16         17         18
     1  Zr  -0.016822  -0.001028  -0.087078  -0.121789  -0.080064  -0.023643
     2  O    0.180977   0.257410   0.292575   0.004709  -0.039113  -0.015051
     3  O    0.001545  -0.018267  -0.000600  -0.000581   0.009511   0.003779
     4  O   -0.015133  -0.008592   0.001188   0.347768   0.213625   0.196747
     5  O   -0.000677   0.001602   0.000633   0.003253   0.001482  -0.000649
     6  Si   0.030143   0.024884   0.001369  -0.430017  -0.449882  -0.453379
     7  Si   0.006666   0.007849  -0.002139   0.003767  -0.001636  -0.001018
     8  Si  -0.098662  -0.364434  -0.304848  -0.011163   0.096110   0.077266
     9  Si  -0.000002  -0.001627  -0.000456  -0.001089   0.002519   0.003899
    10  O    0.000000  -0.000002  -0.000000   0.000005   0.000001   0.000000
    11  O    0.000018   0.000003  -0.000020  -0.000006   0.000004   0.000004
    12  O    0.000001   0.000011  -0.000003  -0.000001  -0.000005  -0.000000
    13  O    8.625322   0.086555  -0.090720   0.003783  -0.030900  -0.045991
    14  O    0.086555   8.668081   0.055916   0.003634  -0.035739  -0.026910
    15  O   -0.090720   0.055916   8.779927  -0.000176   0.003631   0.001696
    16  O    0.003783   0.003634  -0.000176   8.902648  -0.092180  -0.114108
    17  O   -0.030900  -0.035739   0.003631  -0.092180   8.934476   0.227645
    18  O   -0.045991  -0.026910   0.001696  -0.114108   0.227645   9.011566
    19  O    0.000150  -0.000684   0.000148  -0.001422  -0.029628   0.000129
    20  O    0.000008  -0.000289   0.000037   0.000067  -0.000948   0.000014
    21  O   -0.000253   0.015475  -0.000657  -0.000212  -0.005590   0.000481
    22  H   -0.000000  -0.000000   0.000000   0.000000   0.000000  -0.000000
    23  H    0.000000   0.000000   0.000000  -0.000000   0.000000   0.000000
    24  H   -0.000000   0.000000   0.000002   0.000000  -0.000000  -0.000000
    25  H    0.219010  -0.011851   0.008907  -0.000064   0.000622   0.015089
    26  H   -0.005014  -0.010142   0.216609   0.000000  -0.000002   0.000006
    27  H   -0.009538   0.220148   0.004649   0.000179   0.018048  -0.000204
    28  H    0.000000  -0.000006  -0.000001  -0.000000   0.000004  -0.000000
    29  H    0.000808   0.017634  -0.002576  -0.000004  -0.000402   0.000006
    30  H    0.000001   0.000002   0.000000   0.000112  -0.000420  -0.000007
    31  H    0.002366   0.000171  -0.000019   0.003650  -0.000737   0.218092
    32  H   -0.000008  -0.000006   0.000000   0.233611  -0.003623   0.003874
    33  H    0.000226   0.002110  -0.000035  -0.000051   0.231033   0.002087
              19         20         21         22         23         24
     1  Zr   0.007848  -0.145754   0.037196  -0.009288  -0.007867  -0.005341
     2  O    0.008527  -0.000586   0.009443  -0.000012  -0.000012  -0.000145
     3  O    0.268006   0.163497   0.145292  -0.000000  -0.000005  -0.000013
     4  O    0.010974  -0.000789   0.003607  -0.000006  -0.000049   0.000007
     5  O    0.002216   0.001566   0.000140   0.006311  -0.025265  -0.004539
     6  Si  -0.009015   0.009414  -0.012364   0.000090   0.000114   0.000122
     7  Si  -0.418223  -0.109785   0.025844  -0.000110   0.000051   0.000040
     8  Si  -0.016538   0.009582  -0.039277   0.000102   0.000060  -0.000001
     9  Si   0.000970   0.002944  -0.001521   0.046653   0.081042   0.035226
    10  O    0.000006   0.000010  -0.000000  -0.006133   0.228940   0.007333
    11  O   -0.000001  -0.000003   0.000001  -0.004995  -0.005933   0.243300
    12  O   -0.000035  -0.000036   0.000012   0.219434   0.005810  -0.007216
    13  O    0.000150   0.000008  -0.000253  -0.000000   0.000000  -0.000000
    14  O   -0.000684  -0.000289   0.015475  -0.000000   0.000000   0.000000
    15  O    0.000148   0.000037  -0.000657   0.000000   0.000000   0.000002
    16  O   -0.001422   0.000067  -0.000212   0.000000  -0.000000   0.000000
    17  O   -0.029628  -0.000948  -0.005590   0.000000   0.000000  -0.000000
    18  O    0.000129   0.000014   0.000481  -0.000000   0.000000  -0.000000
    19  O    8.875046   0.032486   0.022914  -0.000000   0.000000  -0.000000
    20  O    0.032486   8.658630  -0.050568   0.000000   0.000000  -0.000000
    21  O    0.022914  -0.050568   8.485045  -0.000000   0.000000   0.000000
    22  H   -0.000000   0.000000  -0.000000   0.362196   0.000058   0.000123
    23  H    0.000000   0.000000   0.000000   0.000058   0.350943   0.000016
    24  H   -0.000000  -0.000000   0.000000   0.000123   0.000016   0.365536
    25  H   -0.000023   0.000000  -0.000018   0.000000   0.000000   0.000000
    26  H    0.000001  -0.000000   0.000041  -0.000000  -0.000000  -0.000000
    27  H    0.000054   0.000193  -0.003967  -0.000000  -0.000000   0.000000
    28  H    0.004628   0.229581  -0.002032  -0.000000   0.000000   0.000000
    29  H   -0.008586   0.007678   0.206508   0.000000  -0.000000  -0.000000
    30  H    0.223988  -0.001488  -0.007156   0.000000  -0.000000  -0.000000
    31  H    0.000004  -0.000000  -0.000000  -0.000000   0.000000   0.000000
    32  H    0.000097  -0.000000   0.000001  -0.000000  -0.000000  -0.000000
    33  H    0.014695  -0.000083   0.001490  -0.000000  -0.000000  -0.000000
              25         26         27         28         29         30
     1  Zr   0.015146   0.007029  -0.000174   0.004926   0.003126   0.000579
     2  O   -0.019584   0.000879  -0.018543  -0.000011  -0.006889  -0.000012
     3  O   -0.000107   0.000013   0.000827  -0.018383  -0.020192  -0.000009
     4  O   -0.000447  -0.000011  -0.001763  -0.000014  -0.000138  -0.000469
     5  O    0.000016  -0.000004   0.000015  -0.000014  -0.000074  -0.000009
     6  Si   0.003470  -0.000172   0.010341  -0.000272   0.000236  -0.000589
     7  Si  -0.000420  -0.000388   0.001858   0.056702   0.048286   0.040645
     8  Si   0.057317   0.046337   0.068985  -0.000025   0.022200   0.000110
     9  Si  -0.000200  -0.000045   0.000014  -0.000144  -0.000059   0.000016
    10  O    0.000000  -0.000000   0.000000  -0.000000   0.000000  -0.000000
    11  O   -0.000000   0.000000  -0.000000  -0.000000   0.000000   0.000000
    12  O   -0.000000  -0.000000  -0.000000  -0.000002  -0.000001   0.000000
    13  O    0.219010  -0.005014  -0.009538   0.000000   0.000808   0.000001
    14  O   -0.011851  -0.010142   0.220148  -0.000006   0.017634   0.000002
    15  O    0.008907   0.216609   0.004649  -0.000001  -0.002576   0.000000
    16  O   -0.000064   0.000000   0.000179  -0.000000  -0.000004   0.000112
    17  O    0.000622  -0.000002   0.018048   0.000004  -0.000402  -0.000420
    18  O    0.015089   0.000006  -0.000204  -0.000000   0.000006  -0.000007
    19  O   -0.000023   0.000001   0.000054   0.004628  -0.008586   0.223988
    20  O    0.000000  -0.000000   0.000193   0.229581   0.007678  -0.001488
    21  O   -0.000018   0.000041  -0.003967  -0.002032   0.206508  -0.007156
    22  H    0.000000  -0.000000  -0.000000  -0.000000   0.000000   0.000000
    23  H    0.000000  -0.000000  -0.000000   0.000000  -0.000000  -0.000000
    24  H    0.000000  -0.000000   0.000000   0.000000  -0.000000  -0.000000
    25  H    0.298802  -0.000011   0.000105   0.000000   0.000001   0.000000
    26  H   -0.000011   0.366208   0.000034   0.000000   0.000021  -0.000000
    27  H    0.000105   0.000034   0.283299  -0.000000  -0.001501   0.000009
    28  H    0.000000   0.000000  -0.000000   0.349035  -0.000016  -0.000016
    29  H    0.000001   0.000021  -0.001501  -0.000016   0.285903   0.000157
    30  H    0.000000  -0.000000   0.000009  -0.000016   0.000157   0.334311
    31  H   -0.000501   0.000000   0.000012  -0.000000   0.000000  -0.000000
    32  H   -0.000001   0.000000  -0.000000   0.000000  -0.000000  -0.000000
    33  H    0.000006  -0.000000  -0.002416  -0.000002   0.000098  -0.001164
              31         32         33
     1  Zr  -0.000063   0.002262  -0.015133
     2  O    0.000183  -0.000025   0.001005
     3  O   -0.000020   0.000042  -0.010161
     4  O   -0.018487   0.010521  -0.009626
     5  O   -0.000012   0.000003  -0.000100
     6  Si   0.064006   0.022358   0.052660
     7  Si   0.000154  -0.000667   0.020635
     8  Si  -0.002123   0.000068  -0.000046
     9  Si  -0.000051   0.000025   0.000077
    10  O    0.000000  -0.000000  -0.000000
    11  O   -0.000000   0.000000   0.000000
    12  O    0.000000  -0.000000   0.000000
    13  O    0.002366  -0.000008   0.000226
    14  O    0.000171  -0.000006   0.002110
    15  O   -0.000019   0.000000  -0.000035
    16  O    0.003650   0.233611  -0.000051
    17  O   -0.000737  -0.003623   0.231033
    18  O    0.218092   0.003874   0.002087
    19  O    0.000004   0.000097   0.014695
    20  O   -0.000000  -0.000000  -0.000083
    21  O   -0.000000   0.000001   0.001490
    22  H   -0.000000  -0.000000  -0.000000
    23  H    0.000000  -0.000000  -0.000000
    24  H    0.000000  -0.000000  -0.000000
    25  H   -0.000501  -0.000001   0.000006
    26  H    0.000000   0.000000  -0.000000
    27  H    0.000012  -0.000000  -0.002416
    28  H   -0.000000   0.000000  -0.000002
    29  H    0.000000  -0.000000   0.000098
    30  H   -0.000000  -0.000000  -0.001164
    31  H    0.331519   0.000003  -0.000038
    32  H    0.000003   0.350088   0.000156
    33  H   -0.000038   0.000156   0.269320
 Mulliken charges:
               1
     1  Zr   0.027355
     2  O   -0.554048
     3  O   -0.428099
     4  O   -0.680118
     5  O   -0.378730
     6  Si   2.224223
     7  Si   1.795929
     8  Si   2.015109
     9  Si   1.606983
    10  O   -0.841656
    11  O   -0.788350
    12  O   -0.794827
    13  O   -0.843860
    14  O   -0.881907
    15  O   -0.877960
    16  O   -0.734320
    17  O   -0.967841
    18  O   -1.081421
    19  O   -0.988732
    20  O   -0.805377
    21  O   -0.829872
    22  H    0.385578
    23  H    0.372097
    24  H    0.365552
    25  H    0.414737
    26  H    0.378611
    27  H    0.429334
    28  H    0.376064
    29  H    0.447775
    30  H    0.411407
    31  H    0.401889
    32  H    0.381219
    33  H    0.443255
 Sum of Mulliken charges =  -0.00000
 Mulliken charges with hydrogens summed into heavy atoms:
               1
     1  Zr   0.027355
     2  O   -0.554048
     3  O   -0.428099
     4  O   -0.680118
     5  O   -0.378730
     6  Si   2.224223
     7  Si   1.795929
     8  Si   2.015109
     9  Si   1.606983
    10  O   -0.469559
    11  O   -0.422798
    12  O   -0.409249
    13  O   -0.429124
    14  O   -0.452573
    15  O   -0.499348
    16  O   -0.353101
    17  O   -0.524586
    18  O   -0.679532
    19  O   -0.577325
    20  O   -0.429313
    21  O   -0.382097
 Electronic spatial extent (au):  <R**2>=           9866.6138
 Charge=             -0.0000 electrons
 Dipole moment (field-independent basis, Debye):
    X=              1.0151    Y=             -0.8602    Z=             -2.6515  Tot=              2.9666
 Quadrupole moment (field-independent basis, Debye-Ang):
   XX=           -160.1819   YY=           -154.7654   ZZ=           -157.5900
   XY=             -5.2815   XZ=              1.7775   YZ=              5.6567
 Traceless Quadrupole moment (field-independent basis, Debye-Ang):
   XX=             -2.6694   YY=              2.7470   ZZ=             -0.0776
   XY=             -5.2815   XZ=              1.7775   YZ=              5.6567
 Octapole moment (field-independent basis, Debye-Ang**2):
  XXX=             74.3373  YYY=              3.6484  ZZZ=            -26.0803  XYY=             -5.5419
  XXY=             19.8262  XXZ=             19.0997  XZZ=              7.9342  YZZ=            -15.4916
  YYZ=            -10.4222  XYZ=             27.1404
 Hexadecapole moment (field-independent basis, Debye-Ang**3):
 XXXX=          -6030.1048 YYYY=          -2828.3260 ZZZZ=          -2245.1859 XXXY=             43.2096
 XXXZ=              3.8143 YYYX=             -8.1172 YYYZ=            213.7559 ZZZX=           -213.9353
 ZZZY=            -51.0478 XXYY=          -1507.5624 XXZZ=          -1337.4360 YYZZ=           -933.9375
 XXYZ=            -14.3230 YYXZ=            151.0541 ZZXY=            -42.8906
 N-N= 2.832891682651D+03 E-N=-1.137838477807D+04  KE= 2.373155296799D+03
 PrsmSu:  requested number of processors reduced to:   2 ShMem   1 Linda.
 PrsmSu:  requested number of processors reduced to:  10 ShMem   1 Linda.
   1 Symmetry operations used in ECPInt.
 ECPInt:  NShTT=   13203 NPrTT=   78401 LenC2=   11525 LenP2D=   44633.
 LDataN:  DoStor=T MaxTD1= 9 Len=  602
 Number of processors reduced to  14 by ecpmxn.
 Calling FoFJK, ICntrl=      2127 FMM=F ISym2X=0 I1Cent= 0 IOpClX= 0 NMat=1 NMatS=1 NMatT=0.
 CoulSu:  requested number of processors reduced to:  10 ShMem   1 Linda.
 Defaulting to unpruned grid for atomic number  40.
 Defaulting to unpruned grid for atomic number  40.
 Defaulting to unpruned grid for atomic number  40.
 Defaulting to unpruned grid for atomic number  40.
 Defaulting to unpruned grid for atomic number  40.
 Defaulting to unpruned grid for atomic number  40.
 Defaulting to unpruned grid for atomic number  40.
 Defaulting to unpruned grid for atomic number  40.
 Defaulting to unpruned grid for atomic number  40.
 Defaulting to unpruned grid for atomic number  40.
 Defaulting to unpruned grid for atomic number  40.
 Defaulting to unpruned grid for atomic number  40.
 Defaulting to unpruned grid for atomic number  40.
 Defaulting to unpruned grid for atomic number  40.
 Defaulting to unpruned grid for atomic number  40.
 Defaulting to unpruned grid for atomic number  40.
 ***** Axes restored to original set *****
 -------------------------------------------------------------------
 Center     Atomic                   Forces (Hartrees/Bohr)
 Number     Number              X              Y              Z
 -------------------------------------------------------------------
      1       40           0.000068962    0.000000772    0.000661126
      2        8          -0.000078229    0.000003509   -0.000326922
      3        8           0.000071764    0.000128234   -0.000057245
      4        8           0.000033535   -0.000106122   -0.000122341
      5        8          -0.000041911   -0.000155931   -0.000218713
      6       14          -0.000051327    0.000057913    0.000057626
      7       14          -0.000050342   -0.000021653    0.000105651
      8       14           0.000077717    0.000085773    0.000205972
      9       14          -0.000000579    0.000267661   -0.000007987
     10        8           0.000014737   -0.000082910    0.000032268
     11        8          -0.000015527   -0.000174050   -0.000032567
     12        8          -0.000071972   -0.000019799   -0.000073220
     13        8          -0.000015411   -0.000059722   -0.000056987
     14        8          -0.000010747   -0.000009765   -0.000052295
     15        8          -0.000051825   -0.000030874   -0.000092948
     16        8           0.000017544   -0.000008935   -0.000038663
     17        8           0.000027284   -0.000017133   -0.000039148
     18        8           0.000012727   -0.000013277   -0.000013813
     19        8           0.000004709   -0.000001725   -0.000031620
     20        8           0.000035590    0.000003349   -0.000015137
     21        8           0.000003351    0.000015006   -0.000066474
     22        1          -0.000001970    0.000004605    0.000010421
     23        1           0.000011776    0.000016838   -0.000006513
     24        1           0.000048079    0.000094211    0.000058605
     25        1          -0.000005304    0.000012132    0.000024553
     26        1           0.000007177    0.000007842    0.000008686
     27        1          -0.000010623    0.000004219    0.000025773
     28        1          -0.000010644    0.000004530    0.000007936
     29        1           0.000016360   -0.000004366    0.000024391
     30        1          -0.000002350    0.000000682    0.000008429
     31        1          -0.000009016   -0.000001961   -0.000005674
     32        1          -0.000024804   -0.000002678    0.000009614
     33        1           0.000001267    0.000003627    0.000017220
 -------------------------------------------------------------------
 Cartesian Forces:  Max     0.000661126 RMS     0.000097254

 GradGradGradGradGradGradGradGradGradGradGradGradGradGradGradGradGradGrad
 Berny optimization.
 FormGI is forming the generalized inverse of G from B-inverse, IUseBI=4.
 Internal  Forces:  Max     0.000446994 RMS     0.000074160
 Search for a local minimum.
 Step number   1 out of a maximum of  148
 All quantities printed in internal units (Hartrees-Bohrs-Radians)
 Mixed Optimization -- En-DIIS/RFO-DIIS
 Second derivative matrix not updated -- first step.
 ITU=  0
     Eigenvalues ---    0.00230   0.00230   0.00230   0.03240   0.03358
     Eigenvalues ---    0.03498   0.03580   0.03665   0.03665   0.03680
     Eigenvalues ---    0.03686   0.03693   0.03739   0.03789   0.03792
     Eigenvalues ---    0.03816   0.03834   0.03850   0.05521   0.09402
     Eigenvalues ---    0.09687   0.11077   0.11224   0.11833   0.11884
     Eigenvalues ---    0.11890   0.12177   0.12239   0.12299   0.12782
     Eigenvalues ---    0.12895   0.13099   0.13313   0.16000   0.16000
     Eigenvalues ---    0.16000   0.16000   0.16000   0.16000   0.16000
     Eigenvalues ---    0.16000   0.16000   0.16000   0.16000   0.16000
     Eigenvalues ---    0.19173   0.19314   0.19332   0.20013   0.20203
     Eigenvalues ---    0.20204   0.20208   0.20515   0.20653   0.20795
     Eigenvalues ---    0.20989   0.21175   0.21186   0.21227   0.25000
     Eigenvalues ---    0.25000   0.25000   0.38002   0.39187   0.40659
     Eigenvalues ---    0.41547   0.42502   0.42508   0.42671   0.42743
     Eigenvalues ---    0.42824   0.43363   0.43951   0.43980   0.44273
     Eigenvalues ---    0.44485   0.44689   0.44769   0.50655   0.51353
     Eigenvalues ---    0.52036   0.52548   0.54334   0.54624   0.54641
     Eigenvalues ---    0.54649   0.54689   0.54692   0.54712   0.54765
     Eigenvalues --- 1000.000001000.000001000.000001000.000001000.00000
     Eigenvalues --- 1000.000001000.000001000.000001000.000001000.00000
     Eigenvalues --- 1000.000001000.000001000.000001000.000001000.00000
     Eigenvalues --- 1000.000001000.000001000.000001000.000001000.00000
     Eigenvalues --- 1000.000001000.000001000.000001000.000001000.00000
     Eigenvalues --- 1000.000001000.000001000.000001000.000001000.00000
     Eigenvalues --- 1000.000001000.000001000.000001000.000001000.00000
     Eigenvalues --- 1000.000001000.000001000.000001000.000001000.00000
     Eigenvalues --- 1000.000001000.000001000.000001000.000001000.00000
     Eigenvalues --- 1000.000001000.000001000.00000
 RFO step:  Lambda=-5.15801710D-06 EMin= 2.30000000D-03
 Linear search not attempted -- first point.
 Iteration  1 RMS(Cart)=  0.00445395 RMS(Int)=  0.00000442
 Iteration  2 RMS(Cart)=  0.00000824 RMS(Int)=  0.00000060
 Iteration  3 RMS(Cart)=  0.00000000 RMS(Int)=  0.00000060
 Iteration  1 RMS(Cart)=  0.00000033 RMS(Int)=  0.00000005
 Variable       Old X    -DE/DX   Delta X   Delta X   Delta X     New X
                                 (Linear)    (Quad)   (Total)
    R1        3.67647  -0.00017   0.00000  -0.00083  -0.00083   3.67564
    R2        3.69189   0.00010   0.00000   0.00048   0.00048   3.69238
    R3        3.73835   0.00014   0.00000   0.00072   0.00072   3.73908
    R4        3.70232  -0.00005   0.00000  -0.00024  -0.00024   3.70208
    R5        3.11688   0.00003   0.00000   0.00006   0.00006   3.11694
    R6        3.09579   0.00000   0.00000   0.00001   0.00001   3.09580
    R7        3.10213   0.00002   0.00000   0.00005   0.00005   3.10219
    R8        3.09245  -0.00001   0.00000  -0.00001  -0.00001   3.09244
    R9        3.11587   0.00003   0.00000   0.00007   0.00007   3.11594
   R10        3.11989  -0.00004   0.00000  -0.00008  -0.00008   3.11981
   R11        3.14367   0.00000   0.00000   0.00001   0.00001   3.14368
   R12        3.18062   0.00002   0.00000   0.00005   0.00005   3.18067
   R13        3.10924   0.00001   0.00000   0.00003   0.00003   3.10928
   R14        3.09339  -0.00005   0.00000  -0.00010  -0.00010   3.09328
   R15        3.10179   0.00006   0.00000   0.00013   0.00013   3.10192
   R16        3.16373   0.00002   0.00000   0.00004   0.00004   3.16377
   R17        3.09830  -0.00009   0.00000  -0.00020  -0.00020   3.09810
   R18        3.11981  -0.00002   0.00000  -0.00006  -0.00006   3.11975
   R19        3.13204   0.00009   0.00000   0.00021   0.00021   3.13225
   R20        3.11778  -0.00006   0.00000  -0.00014  -0.00014   3.11763
   R21        1.82153  -0.00001   0.00000  -0.00001  -0.00001   1.82151
   R22        1.82107  -0.00003   0.00000  -0.00006  -0.00006   1.82101
   R23        1.82089   0.00000   0.00000   0.00000   0.00000   1.82089
   R24        1.84078  -0.00003   0.00000  -0.00005  -0.00005   1.84073
   R25        1.84565  -0.00002   0.00000  -0.00004  -0.00004   1.84561
   R26        1.82041  -0.00000   0.00000  -0.00001  -0.00001   1.82041
   R27        1.82109  -0.00003   0.00000  -0.00005  -0.00005   1.82105
   R28        1.85910  -0.00000   0.00000  -0.00000  -0.00000   1.85910
   R29        1.82145   0.00000   0.00000   0.00001   0.00001   1.82146
   R30        1.82428  -0.00000   0.00000  -0.00000  -0.00000   1.82428
   R31        1.82168   0.00001   0.00000   0.00001   0.00001   1.82169
   R32        1.85224   0.00001   0.00000   0.00001   0.00001   1.85225
    A1        1.85172   0.00004   0.00000   0.00165   0.00165   1.85338
    A2        1.80155  -0.00013   0.00000  -0.00064  -0.00064   1.80091
    A3        1.96889   0.00030   0.00000   0.00256   0.00256   1.97145
    A4        1.83430   0.00011   0.00000  -0.00089  -0.00089   1.83341
    A5        2.01802  -0.00016   0.00000  -0.00077  -0.00078   2.01725
    A6        1.97057  -0.00016   0.00000  -0.00193  -0.00193   1.96864
    A7        2.46524   0.00010   0.00000   0.00042   0.00042   2.46566
    A8        2.58826  -0.00003   0.00000  -0.00013  -0.00013   2.58813
    A9        2.35483  -0.00002   0.00000  -0.00007  -0.00007   2.35476
   A10        2.86714  -0.00045   0.00000   0.00000  -0.00000   2.86714
   A11        1.91978   0.00001   0.00000   0.00003   0.00003   1.91981
   A12        1.91546  -0.00001   0.00000  -0.00003  -0.00003   1.91543
   A13        1.95201   0.00001   0.00000   0.00003   0.00003   1.95205
   A14        2.00708   0.00000   0.00000   0.00000   0.00000   2.00708
   A15        1.88610  -0.00003   0.00000  -0.00015  -0.00015   1.88596
[...]
 Alpha virt. eigenvalues --    3.47785   3.48625   3.48651   3.51087   3.51116
 Alpha virt. eigenvalues --    3.52798   3.53719   3.60291   3.61073   3.62074
 Alpha virt. eigenvalues --    3.66191   4.36688   4.61043   7.93476  31.29458
          Condensed to atoms (all electrons):
               1          2          3          4          5          6
     1  Zr  15.049425  -0.091462  -0.000435  -0.119551  -0.185123  -0.642481
     2  O   -0.091462   9.043920   0.019260  -0.042182  -0.056740   0.079696
     3  O   -0.000435   0.019260   8.825117   0.017886  -0.046923  -0.001608
     4  O   -0.119551  -0.042182   0.017886   8.810744  -0.061893  -0.684100
     5  O   -0.185123  -0.056740  -0.046923  -0.061893   9.398435  -0.009750
     6  Si  -0.642481   0.079696  -0.001608  -0.684100  -0.009750  14.048703
     7  Si  -0.600608  -0.029476  -0.868607  -0.010378  -0.034730   0.082197
     8  Si  -0.648331  -0.991726  -0.018441   0.067514  -0.015760   0.004474
     9  Si  -0.298878  -0.038012  -0.026899  -0.030686  -1.159914   0.039182
    10  O   -0.023448   0.001032  -0.001522   0.000526   0.124547  -0.001822
    11  O   -0.071378   0.002730   0.003056   0.001501   0.303204  -0.000542
    12  O    0.049285   0.000278   0.004340   0.001874   0.129466  -0.003237
    13  O   -0.018447   0.181146   0.001527  -0.015124  -0.000676   0.030639
    14  O   -0.003818   0.257933  -0.018364  -0.008625   0.001630   0.025405
    15  O   -0.087377   0.292441  -0.000558   0.001197   0.000614   0.001335
    16  O   -0.121426   0.004754  -0.000586   0.346889   0.003323  -0.429133
    17  O   -0.079343  -0.039285   0.009310   0.213508   0.001459  -0.450030
    18  O   -0.025445  -0.014900   0.003761   0.197075  -0.000662  -0.452702
    19  O    0.006429   0.008534   0.267651   0.010862   0.002187  -0.008609
    20  O   -0.146109  -0.000585   0.163115  -0.000777   0.001583   0.009315
    21  O    0.037554   0.009487   0.143926   0.003609   0.000139  -0.012314
    22  H   -0.009089  -0.000013  -0.000002  -0.000007   0.006286   0.000090
    23  H   -0.007694  -0.000011  -0.000005  -0.000049  -0.025113   0.000111
    24  H   -0.005413  -0.000132  -0.000011   0.000009  -0.005481   0.000117
    25  H    0.015508  -0.019623  -0.000106  -0.000435   0.000016   0.003338
    26  H    0.007043   0.000856   0.000013  -0.000011  -0.000003  -0.000172
    27  H    0.000345  -0.018661   0.000821  -0.001764   0.000014   0.010254
    28  H    0.004979  -0.000011  -0.018302  -0.000013  -0.000014  -0.000275
    29  H    0.003184  -0.006956  -0.020138  -0.000141  -0.000073   0.000230
    30  H    0.000606  -0.000011  -0.000030  -0.000467  -0.000009  -0.000611
    31  H    0.000081   0.000180  -0.000020  -0.018485  -0.000012   0.063855
    32  H    0.002211  -0.000025   0.000043   0.010448   0.000002   0.022453
    33  H   -0.015120   0.001014  -0.010127  -0.009580  -0.000101   0.052606
               7          8          9         10         11         12
     1  Zr  -0.600608  -0.648331  -0.298878  -0.023448  -0.071378   0.049285
     2  O   -0.029476  -0.991726  -0.038012   0.001032   0.002730   0.000278
     3  O   -0.868607  -0.018441  -0.026899  -0.001522   0.003056   0.004340
     4  O   -0.010378   0.067514  -0.030686   0.000526   0.001501   0.001874
     5  O   -0.034730  -0.015760  -1.159914   0.124547   0.303204   0.129466
     6  Si   0.082197   0.004474   0.039182  -0.001822  -0.000542  -0.003237
     7  Si  13.782632   0.182010   0.017605   0.000095  -0.001061   0.003252
     8  Si   0.182010  13.834498   0.028431  -0.001174   0.001267  -0.001520
     9  Si   0.017605   0.028431  14.081102  -0.050423  -0.154314  -0.173976
    10  O    0.000095  -0.001174  -0.050423   8.519873   0.015183   0.027979
    11  O   -0.001061   0.001267  -0.154314   0.015183   8.508003  -0.053455
    12  O    0.003252  -0.001520  -0.173976   0.027979  -0.053455   8.592238
    13  O    0.006725  -0.097933   0.000072   0.000000   0.000017   0.000002
    14  O    0.008270  -0.363626  -0.001603  -0.000002   0.000003   0.000011
    15  O   -0.002014  -0.304743  -0.000503  -0.000000  -0.000019  -0.000004
    16  O    0.003674  -0.011212  -0.001068   0.000005  -0.000006  -0.000001
    17  O   -0.001535   0.096422   0.002463   0.000001   0.000004  -0.000006
    18  O   -0.000972   0.077411   0.003932   0.000000   0.000004  -0.000000
    19  O   -0.415168  -0.016295   0.001000   0.000006  -0.000001  -0.000035
    20  O   -0.109465   0.009668   0.003002   0.000010  -0.000003  -0.000037
    21  O    0.027025  -0.039443  -0.001530  -0.000000   0.000001   0.000013
    22  H   -0.000114   0.000100   0.046439  -0.006234  -0.005067   0.219687
    23  H    0.000050   0.000059   0.080648   0.229092  -0.005922   0.005740
    24  H    0.000041   0.000003   0.036658   0.007498   0.243483  -0.007454
    25  H   -0.000423   0.057228  -0.000202   0.000000  -0.000000  -0.000000
    26  H   -0.000389   0.046361  -0.000045  -0.000000   0.000000  -0.000000
    27  H    0.001813   0.068861   0.000011   0.000000  -0.000000  -0.000000
    28  H    0.056619  -0.000032  -0.000144  -0.000000  -0.000000  -0.000002
    29  H    0.048214   0.022260  -0.000060   0.000000   0.000000  -0.000001
    30  H    0.040646   0.000111   0.000017  -0.000000   0.000000   0.000000
    31  H    0.000151  -0.002132  -0.000050   0.000000  -0.000000   0.000000
    32  H   -0.000668   0.000069   0.000024  -0.000000   0.000000  -0.000000
    33  H    0.020534  -0.000044   0.000077  -0.000000   0.000000   0.000000
              13         14         15         16         17         18
     1  Zr  -0.018447  -0.003818  -0.087377  -0.121426  -0.079343  -0.025445
     2  O    0.181146   0.257933   0.292441   0.004754  -0.039285  -0.014900
     3  O    0.001527  -0.018364  -0.000558  -0.000586   0.009310   0.003761
     4  O   -0.015124  -0.008625   0.001197   0.346889   0.213508   0.197075
     5  O   -0.000676   0.001630   0.000614   0.003323   0.001459  -0.000662
     6  Si   0.030639   0.025405   0.001335  -0.429133  -0.450030  -0.452702
     7  Si   0.006725   0.008270  -0.002014   0.003674  -0.001535  -0.000972
     8  Si  -0.097933  -0.363626  -0.304743  -0.011212   0.096422   0.077411
     9  Si   0.000072  -0.001603  -0.000503  -0.001068   0.002463   0.003932
    10  O    0.000000  -0.000002  -0.000000   0.000005   0.000001   0.000000
    11  O    0.000017   0.000003  -0.000019  -0.000006   0.000004   0.000004
    12  O    0.000002   0.000011  -0.000004  -0.000001  -0.000006  -0.000000
    13  O    8.625294   0.086339  -0.091078   0.003768  -0.030891  -0.045892
    14  O    0.086339   8.668254   0.055980   0.003650  -0.035824  -0.026922
    15  O   -0.091078   0.055980   8.780580  -0.000176   0.003631   0.001696
    16  O    0.003768   0.003650  -0.000176   8.902173  -0.092159  -0.113740
    17  O   -0.030891  -0.035824   0.003631  -0.092159   8.934539   0.227369
    18  O   -0.045892  -0.026922   0.001696  -0.113740   0.227369   9.012159
    19  O    0.000153  -0.000797   0.000145  -0.001422  -0.029730   0.000131
    20  O    0.000009  -0.000279   0.000036   0.000067  -0.000946   0.000014
    21  O   -0.000252   0.015556  -0.000656  -0.000214  -0.005645   0.000486
    22  H   -0.000000  -0.000000   0.000000   0.000000   0.000000  -0.000000
    23  H    0.000000   0.000000   0.000000  -0.000000   0.000000   0.000000
    24  H   -0.000000   0.000000   0.000002   0.000000  -0.000000  -0.000000
    25  H    0.218898  -0.011853   0.008908  -0.000065   0.000625   0.015102
    26  H   -0.005018  -0.010144   0.216652   0.000000  -0.000003   0.000006
    27  H   -0.009540   0.220121   0.004648   0.000178   0.017999  -0.000221
    28  H    0.000000  -0.000006  -0.000001  -0.000000   0.000004  -0.000000
    29  H    0.000811   0.017595  -0.002590  -0.000004  -0.000401   0.000006
    30  H    0.000001   0.000006   0.000000   0.000111  -0.000424  -0.000007
    31  H    0.002364   0.000172  -0.000019   0.003687  -0.000749   0.218049
    32  H   -0.000008  -0.000006   0.000000   0.233661  -0.003650   0.003905
    33  H    0.000226   0.002121  -0.000035  -0.000050   0.231081   0.002100
              19         20         21         22         23         24
     1  Zr   0.006429  -0.146109   0.037554  -0.009089  -0.007694  -0.005413
     2  O    0.008534  -0.000585   0.009487  -0.000013  -0.000011  -0.000132
     3  O    0.267651   0.163115   0.143926  -0.000002  -0.000005  -0.000011
     4  O    0.010862  -0.000777   0.003609  -0.000007  -0.000049   0.000009
     5  O    0.002187   0.001583   0.000139   0.006286  -0.025113  -0.005481
     6  Si  -0.008609   0.009315  -0.012314   0.000090   0.000111   0.000117
     7  Si  -0.415168  -0.109465   0.027025  -0.000114   0.000050   0.000041
     8  Si  -0.016295   0.009668  -0.039443   0.000100   0.000059   0.000003
     9  Si   0.001000   0.003002  -0.001530   0.046439   0.080648   0.036658
    10  O    0.000006   0.000010  -0.000000  -0.006234   0.229092   0.007498
    11  O   -0.000001  -0.000003   0.000001  -0.005067  -0.005922   0.243483
    12  O   -0.000035  -0.000037   0.000013   0.219687   0.005740  -0.007454
    13  O    0.000153   0.000009  -0.000252  -0.000000   0.000000  -0.000000
    14  O   -0.000797  -0.000279   0.015556  -0.000000   0.000000   0.000000
    15  O    0.000145   0.000036  -0.000656   0.000000   0.000000   0.000002
    16  O   -0.001422   0.000067  -0.000214   0.000000  -0.000000   0.000000
    17  O   -0.029730  -0.000946  -0.005645   0.000000   0.000000  -0.000000
    18  O    0.000131   0.000014   0.000486  -0.000000   0.000000  -0.000000
    19  O    8.874669   0.031446   0.022607  -0.000000   0.000000  -0.000000
    20  O    0.031446   8.659190  -0.049938   0.000000   0.000000  -0.000000
    21  O    0.022607  -0.049938   8.484665  -0.000000   0.000000   0.000000
    22  H   -0.000000   0.000000  -0.000000   0.361982   0.000060   0.000135
    23  H    0.000000   0.000000   0.000000   0.000060   0.350682   0.000011
    24  H   -0.000000  -0.000000   0.000000   0.000135   0.000011   0.365459
    25  H   -0.000023   0.000000  -0.000019   0.000000   0.000000   0.000000
    26  H    0.000001  -0.000000   0.000041  -0.000000  -0.000000  -0.000000
    27  H    0.000044   0.000193  -0.003974  -0.000000  -0.000000   0.000000
    28  H    0.004596   0.229454  -0.001985  -0.000000   0.000000   0.000000
    29  H   -0.008557   0.007675   0.206482   0.000000   0.000000  -0.000000
    30  H    0.224016  -0.001477  -0.007175   0.000000  -0.000000  -0.000000
    31  H    0.000004  -0.000000  -0.000000  -0.000000   0.000000   0.000000
    32  H    0.000097  -0.000000   0.000001  -0.000000  -0.000000  -0.000000
    33  H    0.014712  -0.000079   0.001507  -0.000000  -0.000000  -0.000000
              25         26         27         28         29         30
     1  Zr   0.015508   0.007043   0.000345   0.004979   0.003184   0.000606
     2  O   -0.019623   0.000856  -0.018661  -0.000011  -0.006956  -0.000011
     3  O   -0.000106   0.000013   0.000821  -0.018302  -0.020138  -0.000030
     4  O   -0.000435  -0.000011  -0.001764  -0.000013  -0.000141  -0.000467
     5  O    0.000016  -0.000003   0.000014  -0.000014  -0.000073  -0.000009
     6  Si   0.003338  -0.000172   0.010254  -0.000275   0.000230  -0.000611
     7  Si  -0.000423  -0.000389   0.001813   0.056619   0.048214   0.040646
     8  Si   0.057228   0.046361   0.068861  -0.000032   0.022260   0.000111
     9  Si  -0.000202  -0.000045   0.000011  -0.000144  -0.000060   0.000017
    10  O    0.000000  -0.000000   0.000000  -0.000000   0.000000  -0.000000
    11  O   -0.000000   0.000000  -0.000000  -0.000000   0.000000   0.000000
    12  O   -0.000000  -0.000000  -0.000000  -0.000002  -0.000001   0.000000
    13  O    0.218898  -0.005018  -0.009540   0.000000   0.000811   0.000001
    14  O   -0.011853  -0.010144   0.220121  -0.000006   0.017595   0.000006
    15  O    0.008908   0.216652   0.004648  -0.000001  -0.002590   0.000000
    16  O   -0.000065   0.000000   0.000178  -0.000000  -0.000004   0.000111
    17  O    0.000625  -0.000003   0.017999   0.000004  -0.000401  -0.000424
    18  O    0.015102   0.000006  -0.000221  -0.000000   0.000006  -0.000007
    19  O   -0.000023   0.000001   0.000044   0.004596  -0.008557   0.224016
    20  O    0.000000  -0.000000   0.000193   0.229454   0.007675  -0.001477
    21  O   -0.000019   0.000041  -0.003974  -0.001985   0.206482  -0.007175
    22  H    0.000000  -0.000000  -0.000000  -0.000000   0.000000   0.000000
    23  H    0.000000  -0.000000  -0.000000   0.000000   0.000000  -0.000000
    24  H    0.000000  -0.000000   0.000000   0.000000  -0.000000  -0.000000
    25  H    0.298780  -0.000012   0.000105   0.000000   0.000001   0.000000
    26  H   -0.000012   0.366115   0.000035   0.000000   0.000021  -0.000000
    27  H    0.000105   0.000035   0.283235  -0.000000  -0.001503   0.000009
    28  H    0.000000   0.000000  -0.000000   0.349127  -0.000016  -0.000016
    29  H    0.000001   0.000021  -0.001503  -0.000016   0.285825   0.000157
    30  H    0.000000  -0.000000   0.000009  -0.000016   0.000157   0.334515
    31  H   -0.000494   0.000000   0.000012  -0.000000   0.000000  -0.000000
    32  H   -0.000001   0.000000  -0.000000   0.000000  -0.000000  -0.000000
    33  H    0.000005  -0.000000  -0.002408  -0.000002   0.000097  -0.001176
              31         32         33
     1  Zr   0.000081   0.002211  -0.015120
     2  O    0.000180  -0.000025   0.001014
     3  O   -0.000020   0.000043  -0.010127
     4  O   -0.018485   0.010448  -0.009580
     5  O   -0.000012   0.000002  -0.000101
     6  Si   0.063855   0.022453   0.052606
     7  Si   0.000151  -0.000668   0.020534
     8  Si  -0.002132   0.000069  -0.000044
     9  Si  -0.000050   0.000024   0.000077
    10  O    0.000000  -0.000000  -0.000000
    11  O   -0.000000   0.000000   0.000000
    12  O    0.000000  -0.000000   0.000000
    13  O    0.002364  -0.000008   0.000226
    14  O    0.000172  -0.000006   0.002121
    15  O   -0.000019   0.000000  -0.000035
    16  O    0.003687   0.233661  -0.000050
    17  O   -0.000749  -0.003650   0.231081
    18  O    0.218049   0.003905   0.002100
    19  O    0.000004   0.000097   0.014712
    20  O   -0.000000  -0.000000  -0.000079
    21  O   -0.000000   0.000001   0.001507
    22  H   -0.000000  -0.000000  -0.000000
    23  H    0.000000  -0.000000  -0.000000
    24  H    0.000000  -0.000000  -0.000000
    25  H   -0.000494  -0.000001   0.000005
    26  H    0.000000   0.000000  -0.000000
    27  H    0.000012  -0.000000  -0.002408
    28  H   -0.000000   0.000000  -0.000002
    29  H    0.000000  -0.000000   0.000097
    30  H   -0.000000  -0.000000  -0.001176
    31  H    0.331424   0.000002  -0.000038
    32  H    0.000002   0.350110   0.000157
    33  H   -0.000038   0.000157   0.269293
 Mulliken charges:
               1
     1  Zr   0.024326
     2  O   -0.553451
     3  O   -0.427140
     4  O   -0.679375
     5  O   -0.369930
     6  Si   2.223385
     7  Si   1.794054
     8  Si   2.015665
     9  Si   1.597645
    10  O   -0.841222
    11  O   -0.786689
    12  O   -0.794438
    13  O   -0.843133
    14  O   -0.881177
    15  O   -0.878091
    16  O   -0.734679
    17  O   -0.967792
    18  O   -1.081743
    19  O   -0.988654
    20  O   -0.805085
    21  O   -0.829954
    22  H    0.385747
    23  H    0.372340
    24  H    0.365077
    25  H    0.414740
    26  H    0.378652
    27  H    0.429372
    28  H    0.376040
    29  H    0.447878
    30  H    0.411207
    31  H    0.402019
    32  H    0.381177
    33  H    0.443230
 Sum of Mulliken charges =  -0.00000
 Mulliken charges with hydrogens summed into heavy atoms:
               1
     1  Zr   0.024326
     2  O   -0.553451
     3  O   -0.427140
     4  O   -0.679375
     5  O   -0.369930
     6  Si   2.223385
     7  Si   1.794054
     8  Si   2.015665
     9  Si   1.597645
    10  O   -0.468882
    11  O   -0.421612
    12  O   -0.408692
    13  O   -0.428392
    14  O   -0.451804
    15  O   -0.499439
    16  O   -0.353502
    17  O   -0.524562
    18  O   -0.679725
    19  O   -0.577446
    20  O   -0.429044
    21  O   -0.382076
 Electronic spatial extent (au):  <R**2>=           9867.4426
 Charge=             -0.0000 electrons
 Dipole moment (field-independent basis, Debye):
    X=              1.0673    Y=             -0.8373    Z=             -2.5723  Tot=              2.9081
 Quadrupole moment (field-independent basis, Debye-Ang):
   XX=           -159.8248   YY=           -154.9069   ZZ=           -157.5122
   XY=             -5.3034   XZ=              2.0215   YZ=              5.6131
 Traceless Quadrupole moment (field-independent basis, Debye-Ang):
   XX=             -2.4102   YY=              2.5077   ZZ=             -0.0976
   XY=             -5.3034   XZ=              2.0215   YZ=              5.6131
 Octapole moment (field-independent basis, Debye-Ang**2):
  XXX=             76.4058  YYY=              4.2244  ZZZ=            -25.4676  XYY=             -5.8973
  XXY=             19.2999  XXZ=             20.5080  XZZ=              8.6014  YZZ=            -15.5018
  YYZ=            -10.5033  XYZ=             26.7266
 Hexadecapole moment (field-independent basis, Debye-Ang**3):
 XXXX=          -6018.8318 YYYY=          -2830.0256 ZZZZ=          -2249.5175 XXXY=             42.4497
 XXXZ=              7.2033 YYYX=             -7.7752 YYYZ=            213.3306 ZZZX=           -212.8987
 ZZZY=            -50.9493 XXYY=          -1507.8910 XXZZ=          -1333.6222 YYZZ=           -932.1301
 XXYZ=            -15.4369 YYXZ=            152.1672 ZZXY=            -45.1786
 N-N= 2.832837147576D+03 E-N=-1.137828530758D+04  KE= 2.373155181987D+03
 1\1\GINC-GRA321\FOpt\RB3LYP\Gen\H12O16Si4Zr1\SARASHS\14-Aug-2020\0\\#n
  B3LYP/Gen Pseudo=cards EmpiricalDispersion=GD3 Opt=modredundant\\Titl
 e\\0,1\Zr,0.6570268044,-0.1285185706,-0.0632771439\O,-0.2297494572,-0.
 9108816652,1.4814024908\O,0.1060613278,1.7452896708,-0.120378138\O,-0.
 2658371874,-0.9815827249,-1.5912592493\O,2.5912414661,-0.4381438622,-0
 .0819596444\Si,-1.8283022558,-1.3319913822,-1.952571906\Si,-1.11179635
 39,2.840316755,-0.0798466051\Si,-1.7322982834,-1.1552756015,2.11618166
 54\Si,4.2118327271,-0.2901262401,0.0896320263\O,4.9900634159,0.1468468
 326,-1.2989501126\O,4.8799508761,-1.7441879353,0.5220122158\O,4.414885
 0286,0.907549762,1.2061574424\O,-2.3292399104,-2.6252535492,1.69510140
 42\O,-2.7294884507,0.0644918342,1.5497056237\O,-1.6099268589,-1.022504
 9083,3.7455993097\O,-1.9944100068,-1.5584905834,-3.5773878999\O,-2.821
 9924,-0.184739143,-1.3029358515\O,-2.3463300739,-2.7135592324,-1.18418
 30755\O,-2.0347017633,2.4410051576,-1.4295955834\O,-0.6297055046,4.399
 0042289,-0.29289393\O,-1.9646413623,2.7582472518,1.314881781\H,5.30110
 13623,1.2754895199,1.2940784627\H,5.3542412874,-0.575716793,-1.8227403
 545\H,4.4423160007,-2.2419525971,1.2215414261\H,-2.4127070514,-2.81019
 32153,0.7423739312\H,-2.395760276,-1.2249142725,4.264695574\H,-3.06337
 51656,-0.0826135205,0.6437555391\H,-0.5262226491,4.9248866249,0.508378
 5067\H,-2.2701313781,1.8669309412,1.5851248115\H,-2.6426214554,3.12867
 08197,-1.7287397925\H,-2.3081013592,-3.5280014037,-1.698264778\H,-1.26
 29355053,-1.2612146488,-4.1298479439\H,-2.6053355879,0.7563824509,-1.4
 905402019\\Version=ES64L-G16RevB.01\State=1-A\HF=-2416.9468203\RMSD=2.
 910e-09\RMSF=3.585e-05\Dipole=0.4347614,-0.3344941,-1.0040613\Quadrupo
 le=-1.8963392,1.9358525,-0.0395133,-3.9845558,1.5090548,4.0915452\PG=C
 01 [X(H12O16Si4Zr1)]\\@


 THE MOLECULE ALSO HAS A BODY.  WHEN THIS BODY IS HIT, THE MOLECULE
 FEELS HURT ALL OVER -- A. KITAIGORODSKI
 Job cpu time:       0 days 14 hours 19 minutes 33.4 seconds.
 Elapsed time:       0 days  1 hours  4 minutes 59.3 seconds.
 File lengths (MBytes):  RWF=    167 Int=      0 D2E=      0 Chk=     21 Scr=      1
 Normal termination of Gaussian 16 at Fri Aug 14 03:58:49 2020.
