 Entering Gaussian System, Link 0=g16
 Initial command:
 /opt/software/gaussian/g16.b01/l1.exe "/localscratch/sarashs.37242629.0/Gau-196003.inp" -scrdir="/localscratch/sarashs.37242629.0/"
 Entering Link 1 = /opt/software/gaussian/g16.b01/l1.exe PID=    196007.
  
 Copyright (c) 1988-2017, Gaussian, Inc.  All Rights Reserved.
  
 This is part of the Gaussian(R) 16 program.  It is based on
 the Gaussian(R) 09 system (copyright 2009, Gaussian, Inc.),
 the Gaussian(R) 03 system (copyright 2003, Gaussian, Inc.),
 the Gaussian(R) 98 system (copyright 1998, Gaussian, Inc.),
 the Gaussian(R) 94 system (copyright 1995, Gaussian, Inc.),
 the Gaussian 92(TM) system (copyright 1992, Gaussian, Inc.),
 the Gaussian 90(TM) system (copyright 1990, Gaussian, Inc.),
 the Gaussian 88(TM) system (copyright 1988, Gaussian, Inc.),
 the Gaussian 86(TM) system (copyright 1986, Carnegie Mellon
 University), and the Gaussian 82(TM) system (copyright 1983,
 Carnegie Mellon University). Gaussian is a federally registered
 trademark of Gaussian, Inc.
  
 This software contains proprietary and confidential information,
 including trade secrets, belonging to Gaussian, Inc.
  
 This software is provided under written license and may be
 used, copied, transmitted, or stored only in accord with that
 written license.
  
 The following legend is applicable only to US Government
 contracts under FAR:
  
                    RESTRICTED RIGHTS LEGEND
  
 Use, reproduction and disclosure by the US Government is
 subject to restrictions as set forth in subparagraphs (a)
 and (c) of the Commercial Computer Software - Restricted
 Rights clause in FAR 52.227-19.
  
 Gaussian, Inc.
 340 Quinnipiac St., Bldg. 40, Wallingford CT 06492
  
  
 ---------------------------------------------------------------
 Warning -- This program may not be used in any manner that
 competes with the business of Gaussian, Inc. or will provide
 assistance to any competitor of Gaussian, Inc.  The licensee
 of this program is prohibited from giving any competitor of
 Gaussian, Inc. access to this program.  By using this program,
 the user acknowledges that Gaussian, Inc. is engaged in the
 business of creating and licensing software in the field of
 computational chemistry and represents and warrants to the
 licensee that it is not a competitor of Gaussian, Inc. and that
 it will not use this program in any manner prohibited above.
 ---------------------------------------------------------------
  

 Cite this work as:
 Gaussian 16, Revision B.01,
 M. J. Frisch, G. W. Trucks, H. B. Schlegel, G. E. Scuseria, 
 M. A. Robb, J. R. Cheeseman, G. Scalmani, V. Barone, 
 G. A. Petersson, H. Nakatsuji, X. Li, M. Caricato, A. V. Marenich, 
 J. Bloino, B. G. Janesko, R. Gomperts, B. Mennucci, H. P. Hratchian, 
 J. V. Ortiz, A. F. Izmaylov, J. L. Sonnenberg, D. Williams-Young, 
 F. Ding, F. Lipparini, F. Egidi, J. Goings, B. Peng, A. Petrone, 
 T. Henderson, D. Ranasinghe, V. G. Zakrzewski, J. Gao, N. Rega, 
 G. Zheng, W. Liang, M. Hada, M. Ehara, K. Toyota, R. Fukuda, 
 J. Hasegawa, M. Ishida, T. Nakajima, Y. Honda, O. Kitao, H. Nakai, 
 T. Vreven, K. Throssell, J. A. Montgomery, Jr., J. E. Peralta, 
 F. Ogliaro, M. J. Bearpark, J. J. Heyd, E. N. Brothers, K. N. Kudin, 
 V. N. Staroverov, T. A. Keith, R. Kobayashi, J. Normand, 
 K. Raghavachari, A. P. Rendell, J. C. Burant, S. S. Iyengar, 
 J. Tomasi, M. Cossi, J. M. Millam, M. Klene, C. Adamo, R. Cammi, 
 J. W. Ochterski, R. L. Martin, K. Morokuma, O. Farkas, 
 J. B. Foresman, and D. J. Fox, Gaussian, Inc., Wallingford CT, 2016.
 
 ******************************************
 Gaussian 16:  ES64L-G16RevB.01 20-Dec-2017
                14-Aug-2020 
 ******************************************
 %NProcShared=16
 Will use up to   16 processors via shared memory.
 ------------------------------------------------------------------
 #n B3LYP/Gen Pseudo=cards EmpiricalDispersion=GD3 Opt=modredundant
 ------------------------------------------------------------------
 1/18=120,19=15,26=3,38=1/1,3;
 2/9=110,12=2,17=6,18=5,40=1/2;
 3/5=7,11=2,16=1,17=8,25=1,30=1,71=1,74=-5,124=31/1,2,3;
 4//1;
 5/5=2,38=5/2;
 6/7=2,8=2,9=2,10=2,28=1/1;
 7//1,2,3,16;
 1/18=20,19=15,26=3/3(2);
 2/9=110/2;
 99//99;
 2/9=110/2;
 3/5=7,6=1,11=2,16=1,17=8,25=1,30=1,71=1,74=-5,82=7,124=31/1,2,3;
 4/5=5,16=3,69=1/1;
 5/5=2,38=5/2;
 7//1,2,3,16;
 1/18=20,19=15,26=3/3(-5);
 2/9=110/2;
 6/7=2,8=2,9=2,10=2,19=2,28=1/1;
 99/9=1/99;
 -----
 Title
 -----
 Symbolic Z-matrix:
 Charge =  0 Multiplicity = 1
 Zr                    0.65779  -0.12506  -0.07164 
 O                    -0.22285  -0.90624   1.4773 
 O                     0.10302   1.74748  -0.12299 
 O                    -0.2683   -0.97885  -1.59705 
 O                     2.59206  -0.4363   -0.08284 
 Si                   -1.83119  -1.33244  -1.9536 
 Si                   -1.1155    2.84172  -0.08279 
 Si                   -1.72376  -1.15291   2.11517 
 Si                    4.2172   -0.25432  -0.02115 
 O                     4.93833  -0.2056   -1.50545 
 O                     4.90925  -1.54404   0.75646 
 O                     4.4579    1.19761   0.72451 
 O                    -2.31924  -2.624     1.69627 
 O                    -2.72422   0.06508   1.55086 
 O                    -1.59734  -1.01957   3.74439 
 O                    -2.00144  -1.55965  -3.57782 
 O                    -2.82509  -0.18676  -1.30145 
 O                    -2.34448  -2.71439  -1.18277 
 O                    -2.04046   2.43957  -1.43023 
 O                    -0.63565   4.40049  -0.29987 
 O                    -1.96551   2.76086   1.31383 
 H                     5.34459   1.57134   0.67372 
 H                     5.28284  -1.04415  -1.83296 
 H                     4.4841   -1.85457   1.5636 
 H                    -2.40577  -2.80951   0.74392 
 H                    -2.38137  -1.22423   4.26535 
 H                    -3.06034  -0.08306   0.64589 
 H                    -0.52731   4.92728   0.50015 
 H                    -2.26909   1.86932   1.58533 
 H                    -2.64854   3.12676  -1.73014 
 H                    -2.30452  -3.52952  -1.69562 
 H                    -1.27114  -1.26305  -4.13223 
 H                    -2.61026   0.75461  -1.48993 
 
 The following ModRedundant input section has been read:
 A       1       5       9 F                                                   
 D       1       5       9      12 F                                           
 D       3       1       5       9 F                                           
 

 GradGradGradGradGradGradGradGradGradGradGradGradGradGradGradGradGradGrad
 Berny optimization.
 Initialization pass.
                           ----------------------------
                           !    Initial Parameters    !
                           ! (Angstroms and Degrees)  !
 --------------------------                            --------------------------
 ! Name  Definition              Value          Derivative Info.                !
 --------------------------------------------------------------------------------
 ! R1    R(1,2)                  1.9455         estimate D2E/DX2                !
 ! R2    R(1,3)                  1.9537         estimate D2E/DX2                !
 ! R3    R(1,4)                  1.9783         estimate D2E/DX2                !
 ! R4    R(1,5)                  1.9592         estimate D2E/DX2                !
 ! R5    R(2,8)                  1.6494         estimate D2E/DX2                !
 ! R6    R(3,7)                  1.6382         estimate D2E/DX2                !
 ! R7    R(4,6)                  1.6416         estimate D2E/DX2                !
 ! R8    R(5,9)                  1.6365         estimate D2E/DX2                !
 ! R9    R(6,16)                 1.6488         estimate D2E/DX2                !
 ! R10   R(6,17)                 1.651          estimate D2E/DX2                !
 ! R11   R(6,18)                 1.6636         estimate D2E/DX2                !
 ! R12   R(7,19)                 1.6831         estimate D2E/DX2                !
 ! R13   R(7,20)                 1.6453         estimate D2E/DX2                !
 ! R14   R(7,21)                 1.6369         estimate D2E/DX2                !
 ! R15   R(8,13)                 1.6414         estimate D2E/DX2                !
 ! R16   R(8,14)                 1.6742         estimate D2E/DX2                !
 ! R17   R(8,15)                 1.6395         estimate D2E/DX2                !
 ! R18   R(9,10)                 1.6509         estimate D2E/DX2                !
 ! R19   R(9,11)                 1.6574         estimate D2E/DX2                !
 ! R20   R(9,12)                 1.6499         estimate D2E/DX2                !
 ! R21   R(10,23)                0.9639         estimate D2E/DX2                !
 ! R22   R(11,24)                0.9637         estimate D2E/DX2                !
 ! R23   R(12,22)                0.9636         estimate D2E/DX2                !
 ! R24   R(13,25)                0.9741         estimate D2E/DX2                !
 ! R25   R(14,27)                0.9767         estimate D2E/DX2                !
 ! R26   R(15,26)                0.9633         estimate D2E/DX2                !
 ! R27   R(16,32)                0.9637         estimate D2E/DX2                !
 ! R28   R(17,33)                0.9838         estimate D2E/DX2                !
 ! R29   R(18,31)                0.9639         estimate D2E/DX2                !
 ! R30   R(19,30)                0.9654         estimate D2E/DX2                !
 ! R31   R(20,28)                0.964          estimate D2E/DX2                !
 ! R32   R(21,29)                0.9802         estimate D2E/DX2                !
 ! A1    A(2,1,3)              106.0959         estimate D2E/DX2                !
 ! A2    A(2,1,4)              103.2214         estimate D2E/DX2                !
 ! A3    A(2,1,5)              112.8091         estimate D2E/DX2                !
 ! A4    A(3,1,4)              105.0977         estimate D2E/DX2                !
 ! A5    A(3,1,5)              115.6243         estimate D2E/DX2                !
 ! A6    A(4,1,5)              112.9055         estimate D2E/DX2                !
 ! A7    A(1,2,8)              141.2479         estimate D2E/DX2                !
 ! A8    A(1,3,7)              148.2962         estimate D2E/DX2                !
 ! A9    A(1,4,6)              134.9216         estimate D2E/DX2                !
 ! A10   A(1,5,9)              164.2749         Frozen                          !
 ! A11   A(4,6,16)             109.9952         estimate D2E/DX2                !
 ! A12   A(4,6,17)             109.7479         estimate D2E/DX2                !
 ! A13   A(4,6,18)             111.8422         estimate D2E/DX2                !
 ! A14   A(16,6,17)            114.9972         estimate D2E/DX2                !
 ! A15   A(16,6,18)            108.0658         estimate D2E/DX2                !
 ! A16   A(17,6,18)            101.9869         estimate D2E/DX2                !
 ! A17   A(3,7,19)             103.269          estimate D2E/DX2                !
 ! A18   A(3,7,20)             114.3706         estimate D2E/DX2                !
 ! A19   A(3,7,21)             111.9733         estimate D2E/DX2                !
 ! A20   A(19,7,20)            106.3205         estimate D2E/DX2                !
 ! A21   A(19,7,21)            112.6973         estimate D2E/DX2                !
 ! A22   A(20,7,21)            108.1076         estimate D2E/DX2                !
 ! A23   A(2,8,13)             111.4365         estimate D2E/DX2                !
 ! A24   A(2,8,14)             107.7362         estimate D2E/DX2                !
 ! A25   A(2,8,15)             107.5759         estimate D2E/DX2                !
 ! A26   A(13,8,14)            110.4391         estimate D2E/DX2                !
 ! A27   A(13,8,15)            110.7606         estimate D2E/DX2                !
 ! A28   A(14,8,15)            108.7751         estimate D2E/DX2                !
 ! A29   A(5,9,10)             113.7766         estimate D2E/DX2                !
 ! A30   A(5,9,11)             110.2316         estimate D2E/DX2                !
 ! A31   A(5,9,12)             105.0571         estimate D2E/DX2                !
 ! A32   A(10,9,11)            105.2124         estimate D2E/DX2                !
 ! A33   A(10,9,12)            108.46           estimate D2E/DX2                !
 ! A34   A(11,9,12)            114.3205         estimate D2E/DX2                !
 ! A35   A(9,10,23)            115.8443         estimate D2E/DX2                !
 ! A36   A(9,11,24)            117.355          estimate D2E/DX2                !
 ! A37   A(9,12,22)            116.8564         estimate D2E/DX2                !
 ! A38   A(8,13,25)            116.8991         estimate D2E/DX2                !
 ! A39   A(8,14,27)            114.056          estimate D2E/DX2                !
 ! A40   A(8,15,26)            117.2166         estimate D2E/DX2                !
 ! A41   A(6,16,32)            116.4907         estimate D2E/DX2                !
 ! A42   A(6,17,33)            117.1859         estimate D2E/DX2                !
 ! A43   A(6,18,31)            116.3076         estimate D2E/DX2                !
 ! A44   A(7,19,30)            115.1373         estimate D2E/DX2                !
 ! A45   A(7,20,28)            116.1676         estimate D2E/DX2                !
 ! A46   A(7,21,29)            116.2372         estimate D2E/DX2                !
 ! D1    D(3,1,2,8)             57.7292         estimate D2E/DX2                !
 ! D2    D(4,1,2,8)            -52.5301         estimate D2E/DX2                !
 ! D3    D(5,1,2,8)           -174.7067         estimate D2E/DX2                !
 ! D4    D(2,1,3,7)            -50.098          estimate D2E/DX2                !
 ! D5    D(4,1,3,7)             58.8315         estimate D2E/DX2                !
 ! D6    D(5,1,3,7)           -175.9641         estimate D2E/DX2                !
 ! D7    D(2,1,4,6)             42.7683         estimate D2E/DX2                !
 ! D8    D(3,1,4,6)            -68.2312         estimate D2E/DX2                !
 ! D9    D(5,1,4,6)            164.8802         estimate D2E/DX2                !
 ! D10   D(2,1,5,9)           -111.3635         estimate D2E/DX2                !
 ! D11   D(3,1,5,9)             10.9997         Frozen                          !
 ! D12   D(4,1,5,9)            132.0819         estimate D2E/DX2                !
 ! D13   D(1,2,8,13)            93.5308         estimate D2E/DX2                !
 ! D14   D(1,2,8,14)           -27.7655         estimate D2E/DX2                !
 ! D15   D(1,2,8,15)          -144.8802         estimate D2E/DX2                !
 ! D16   D(1,3,7,19)           -61.1012         estimate D2E/DX2                !
 ! D17   D(1,3,7,20)          -176.1751         estimate D2E/DX2                !
 ! D18   D(1,3,7,21)            60.409          estimate D2E/DX2                !
 ! D19   D(1,4,6,16)           160.167          estimate D2E/DX2                !
 ! D20   D(1,4,6,17)            32.6925         estimate D2E/DX2                !
 ! D21   D(1,4,6,18)           -79.742          estimate D2E/DX2                !
 ! D22   D(1,5,9,10)          -100.1293         estimate D2E/DX2                !
 ! D23   D(1,5,9,11)           141.9688         estimate D2E/DX2                !
 ! D24   D(1,5,9,12)            18.3494         Frozen                          !
 ! D25   D(4,6,16,32)          -14.1998         estimate D2E/DX2                !
 ! D26   D(17,6,16,32)         110.2979         estimate D2E/DX2                !
 ! D27   D(18,6,16,32)        -136.5531         estimate D2E/DX2                !
 ! D28   D(4,6,17,33)           51.0095         estimate D2E/DX2                !
 ! D29   D(16,6,17,33)         -73.6179         estimate D2E/DX2                !
 ! D30   D(18,6,17,33)         169.7166         estimate D2E/DX2                !
 ! D31   D(4,6,18,31)          -96.4424         estimate D2E/DX2                !
 ! D32   D(16,6,18,31)          24.7715         estimate D2E/DX2                !
 ! D33   D(17,6,18,31)         146.349          estimate D2E/DX2                !
 ! D34   D(3,7,19,30)         -162.1837         estimate D2E/DX2                !
 ! D35   D(20,7,19,30)         -41.4662         estimate D2E/DX2                !
 ! D36   D(21,7,19,30)          76.796          estimate D2E/DX2                !
 ! D37   D(3,7,20,28)          -98.427          estimate D2E/DX2                !
 ! D38   D(19,7,20,28)         148.2947         estimate D2E/DX2                !
 ! D39   D(21,7,20,28)          27.0455         estimate D2E/DX2                !
 ! D40   D(3,7,21,29)          -49.8995         estimate D2E/DX2                !
 ! D41   D(19,7,21,29)          66.0156         estimate D2E/DX2                !
 ! D42   D(20,7,21,29)        -176.7753         estimate D2E/DX2                !
 ! D43   D(2,8,13,25)          -58.468          estimate D2E/DX2                !
 ! D44   D(14,8,13,25)          61.2404         estimate D2E/DX2                !
 ! D45   D(15,8,13,25)        -178.1888         estimate D2E/DX2                !
 ! D46   D(2,8,14,27)           80.2918         estimate D2E/DX2                !
 ! D47   D(13,8,14,27)         -41.6247         estimate D2E/DX2                !
 ! D48   D(15,8,14,27)        -163.3756         estimate D2E/DX2                !
 ! D49   D(2,8,15,26)         -174.1994         estimate D2E/DX2                !
 ! D50   D(13,8,15,26)         -52.1897         estimate D2E/DX2                !
 ! D51   D(14,8,15,26)          69.3652         estimate D2E/DX2                !
 ! D52   D(5,9,10,23)          -94.8501         estimate D2E/DX2                !
 ! D53   D(11,9,10,23)          25.9078         estimate D2E/DX2                !
 ! D54   D(12,9,10,23)         148.6405         estimate D2E/DX2                !
 ! D55   D(5,9,11,24)          -43.8208         estimate D2E/DX2                !
 ! D56   D(10,9,11,24)        -166.8799         estimate D2E/DX2                !
 ! D57   D(12,9,11,24)          74.239          estimate D2E/DX2                !
 ! D58   D(5,9,12,22)         -166.478          estimate D2E/DX2                !
 ! D59   D(10,9,12,22)         -44.4755         estimate D2E/DX2                !
 ! D60   D(11,9,12,22)          72.5535         estimate D2E/DX2                !
 --------------------------------------------------------------------------------
 Trust Radius=3.00D-01 FncErr=1.00D-07 GrdErr=1.00D-06 EigMax=2.50D+02 EigMin=1.00D-04
 Number of steps in this run=    148 maximum allowed number of steps=    198.
 GradGradGradGradGradGradGradGradGradGradGradGradGradGradGradGradGradGrad

                          Input orientation:                          
 ---------------------------------------------------------------------
 Center     Atomic      Atomic             Coordinates (Angstroms)
 Number     Number       Type             X           Y           Z
 ---------------------------------------------------------------------
      1         40           0        0.657790   -0.125060   -0.071640
      2          8           0       -0.222850   -0.906240    1.477300
      3          8           0        0.103020    1.747480   -0.122990
      4          8           0       -0.268300   -0.978850   -1.597050
      5          8           0        2.592060   -0.436300   -0.082840
      6         14           0       -1.831190   -1.332440   -1.953600
      7         14           0       -1.115500    2.841720   -0.082790
      8         14           0       -1.723760   -1.152910    2.115170
      9         14           0        4.217200   -0.254320   -0.021150
     10          8           0        4.938330   -0.205600   -1.505450
     11          8           0        4.909250   -1.544040    0.756460
     12          8           0        4.457900    1.197610    0.724510
     13          8           0       -2.319240   -2.624000    1.696270
     14          8           0       -2.724220    0.065080    1.550860
     15          8           0       -1.597340   -1.019570    3.744390
     16          8           0       -2.001440   -1.559650   -3.577820
     17          8           0       -2.825090   -0.186760   -1.301450
     18          8           0       -2.344480   -2.714390   -1.182770
     19          8           0       -2.040460    2.439570   -1.430230
     20          8           0       -0.635650    4.400490   -0.299870
     21          8           0       -1.965510    2.760860    1.313830
     22          1           0        5.344590    1.571340    0.673720
     23          1           0        5.282840   -1.044150   -1.832960
     24          1           0        4.484100   -1.854570    1.563600
     25          1           0       -2.405770   -2.809510    0.743920
     26          1           0       -2.381370   -1.224230    4.265350
     27          1           0       -3.060340   -0.083060    0.645890
     28          1           0       -0.527310    4.927280    0.500150
     29          1           0       -2.269090    1.869320    1.585330
     30          1           0       -2.648540    3.126760   -1.730140
     31          1           0       -2.304520   -3.529520   -1.695620
     32          1           0       -1.271140   -1.263050   -4.132230
     33          1           0       -2.610260    0.754610   -1.489930
 ---------------------------------------------------------------------
                    Distance matrix (angstroms):
                    1          2          3          4          5
     1  Zr   0.000000
     2  O    1.945504   0.000000
     3  O    1.953666   3.115983   0.000000
     4  O    1.978251   3.075543   3.121475   0.000000
     5  O    1.959183   3.252476   3.311469   3.281593   0.000000
     6  Si   3.345827   3.813067   4.071635   1.641578   4.885484
     7  Si   3.456366   4.156670   1.638221   4.196128   4.948880
     8  Si   3.392697   1.649380   4.093745   3.991145   4.896027
     9  Si   3.562114   4.731215   4.576467   4.809170   1.636460
    10  O    4.515011   6.002122   5.394992   5.264532   2.753548
    11  O    4.557869   5.221575   5.891297   5.715372   2.702014
    12  O    4.101725   5.186743   4.470525   5.697682   2.608224
    13  O    4.270002   2.719099   5.318542   4.214123   5.663226
    14  O    3.755882   2.684348   3.691278   4.126823   5.584191
    15  O    4.521929   2.653632   5.050190   5.504452   5.704294
    16  O    4.628483   5.398571   5.225104   2.695283   5.880225
    17  O    3.694143   3.874372   3.701875   2.692947   5.558129
    18  O    4.117386   3.853141   5.198238   2.737563   5.546978
    19  O    3.962783   4.790812   2.604299   3.854086   5.616612
    20  O    4.712290   5.611606   2.759598   5.545712   5.818913
    21  O    4.138812   4.063399   2.714813   5.033803   5.739683
    22  H    5.039785   6.146587   5.304699   6.569962   3.489903
    23  H    5.033693   6.425688   6.127620   5.556534   3.266910
    24  H    4.506203   4.802307   5.917196   5.774245   2.881331
    25  H    4.154132   2.987545   5.273682   3.660633   5.594101
    26  H    5.408711   3.540275   5.853271   6.236426   6.653014
    27  H    3.786965   3.069237   3.734823   3.691708   5.710118
    28  H    5.220876   5.922624   3.301022   6.272775   6.232041
    29  H    3.910208   3.450000   2.925766   4.716225   5.632890
    30  H    4.925117   5.695325   3.472237   4.747556   6.547739
    31  H    4.796138   4.613282   6.009671   3.265245   6.012118
    32  H    4.637260   5.717784   5.198616   2.741094   5.657331
    33  H    3.669539   4.154829   3.196280   2.915671   5.519266
                    6          7          8          9         10
     6  Si   0.000000
     7  Si   4.629876   0.000000
     8  Si   4.074145   4.599791   0.000000
     9  Si   6.440476   6.166600   6.377016   0.000000
    10  O    6.877282   6.925242   7.641317   1.650924   0.000000
    11  O    7.267925   7.499123   6.782028   1.657404   2.628403
    12  O    7.288764   5.866653   6.758091   1.649862   2.678158
    13  O    3.902290   5.872660   1.641396   7.161701   8.292888
    14  O    3.877087   3.600906   1.674176   7.124363   8.254028
    15  O    5.711363   5.457933   1.639549   6.969489   8.422491
    16  O    1.648848   5.689656   5.714252   7.281845   7.368078
    17  O    1.650975   3.685040   3.717481   7.158043   7.766123
    18  O    1.663560   5.795749   3.701340   7.103306   7.709570
    19  O    3.813892   1.683113   5.057279   6.957073   7.463651
    20  O    6.085279   1.645340   6.152776   6.730163   7.330671
    21  O    5.239203   1.636949   4.002272   7.007095   8.025661
    22  H    8.174752   6.627136   7.711089   2.255413   2.841011
    23  H    7.120891   7.687772   8.043134   2.245457   0.963907
    24  H    7.247496   7.491412   6.271689   2.267922   3.513473
    25  H    3.128657   5.855309   2.256056   7.139892   8.110229
    26  H    6.244177   6.086107   2.249625   7.928173   9.376446
    27  H    3.135141   3.587160   2.256060   7.310052   8.283840
    28  H    6.848729   2.243958   6.403787   7.044935   7.761579
    29  H    4.792395   2.249212   3.116406   7.011603   8.112035
    30  H    4.538993   2.268308   5.827281   7.841603   8.289494
    31  H    2.262246   6.678899   4.528540   7.487564   7.971417
    32  H    2.250533   5.768130   6.264743   6.931118   6.824639
    33  H    2.275460   2.927521   4.173878   7.056165   7.609432
                   11         12         13         14         15
    11  O    0.000000
    12  O    2.778738   0.000000
    13  O    7.368896   7.840832   0.000000
    14  O    7.841569   7.317672   2.723289   0.000000
    15  O    7.179033   7.120498   2.700024   2.694049   0.000000
    16  O    8.157442   8.236237   5.389792   5.428215   7.353213
    17  O    8.117710   7.685242   3.896453   2.865182   5.259415
    18  O    7.599140   8.075508   2.880569   3.916936   5.263795
    19  O    8.303567   6.958021   5.957555   3.872032   6.240088
    20  O    8.197511   6.103445   7.494165   5.155881   6.830662
    21  O    8.130507   6.637111   5.410000   2.810526   4.509415
    22  H    3.146738   0.963573   8.796634   8.254931   8.020737
    23  H    2.663561   3.499524   8.528951   8.763198   8.856879
    24  H    0.963668   3.165527   6.847997   7.459564   6.514367
    25  H    7.423684   7.947789   0.974101   3.002637   3.586121
    26  H    8.097390   8.073318   2.926327   3.024619   0.963321
    27  H    8.103151   7.626941   2.847614   0.976674   3.552200
    28  H    8.455759   6.230016   7.852614   5.437959   6.858213
    29  H    7.991659   6.815028   4.494969   1.861079   3.668579
    30  H    9.226036   7.761985   6.702236   4.488271   6.947485
    31  H    7.873583   8.598437   3.510712   4.861783   6.032716
    32  H    7.885142   7.903459   6.076357   6.014390   7.887131
    33  H    8.177597   7.420167   4.653125   3.120071   5.618881
                   16         17         18         19         20
    16  O    0.000000
    17  O    2.783000   0.000000
    18  O    2.680926   2.575652   0.000000
    19  O    4.539540   2.744055   5.168846   0.000000
    20  O    6.937839   5.180702   7.370287   2.663909   0.000000
    21  O    6.526587   4.033241   6.029510   2.763822   2.657243
    22  H    9.046704   8.586960   8.996435   7.727832   6.686945
    23  H    7.508063   8.170444   7.835079   8.119681   8.186757
    24  H    8.281510   8.025856   7.410219   8.364959   8.295188
    25  H    4.516976   3.352340   1.930010   5.693261   7.497128
    26  H    7.859527   5.680008   5.648358   6.780802   7.451594
    27  H    4.597968   1.964238   3.283344   3.422586   5.184188
    28  H    7.802766   5.888884   8.033022   3.493521   0.963990
    29  H    6.203837   3.587492   5.355227   3.077509   3.553720
    30  H    5.078888   3.345797   5.874615   0.965369   2.778450
    31  H    2.741336   3.405937   0.963872   5.980819   8.223035
    32  H    0.963680   3.403891   3.458000   4.647801   6.867788
    33  H    3.175806   0.983796   3.492699   1.779698   4.313672
                   21         22         23         24         25
    21  O    0.000000
    22  H    7.433859   0.000000
    23  H    8.770346   3.623264   0.000000
    24  H    7.934863   3.642690   3.582092   0.000000
    25  H    5.616729   8.903081   8.298887   7.003863   0.000000
    26  H    4.976480   8.966910   9.796016   7.404827   3.861888
    27  H    3.119724   8.566251   8.756543   7.803782   2.805637
    28  H    2.724678   6.765476   8.652122   8.499332   7.965297
    29  H    0.980162   7.673848   8.786618   7.711900   4.755849
    30  H    3.141045   8.490465   8.961800   9.302523   6.435776
    31  H    6.981447   9.494284   7.985234   7.714489   2.545589
    32  H    6.806877   8.654410   6.949044   8.118815   5.239825
    33  H    3.507394   8.284206   8.102730   8.152411   4.211277
                   26         27         28         29         30
    26  H    0.000000
    27  H    3.855355   0.000000
    28  H    7.446835   5.616136   0.000000
    29  H    4.094529   2.306602   3.682734   0.000000
    30  H    7.412718   4.014728   3.565906   3.566157   0.000000
    31  H    6.391669   4.234622   8.916129   6.317702   6.665254
    32  H    8.470742   5.236797   7.767394   6.595312   5.190154
    33  H    6.090275   2.337946   5.070530   3.288799   2.384588
                   31         32         33
    31  H    0.000000
    32  H    3.484513   0.000000
    33  H    4.299948   3.584124   0.000000
 Stoichiometry    H12O16Si4Zr
 Framework group  C1[X(H12O16Si4Zr)]
 Deg. of freedom    93
 Full point group                 C1      NOp   1
 Largest Abelian subgroup         C1      NOp   1
 Largest concise Abelian subgroup C1      NOp   1
                         Standard orientation:                         
 ---------------------------------------------------------------------
 Center     Atomic      Atomic             Coordinates (Angstroms)
 Number     Number       Type             X           Y           Z
 ---------------------------------------------------------------------
      1         40           0        0.657858   -0.127788   -0.059247
      2          8           0       -0.236451   -0.905653    1.483517
      3          8           0        0.106832    1.745667   -0.117111
      4          8           0       -0.257586   -0.981679   -1.591014
      5          8           0        2.591601   -0.442450   -0.054716
      6         14           0       -1.818216   -1.332919   -1.959584
      7         14           0       -1.110028    2.842098   -0.087831
      8         14           0       -1.742820   -1.148951    2.109708
      9         14           0        4.216520   -0.263265    0.019692
     10          8           0        4.949513   -0.217504   -1.458881
     11          8           0        4.900079   -1.553318    0.804229
     12          8           0        4.453856    1.189086    0.765611
     13          8           0       -2.337556   -2.619465    1.687738
     14          8           0       -2.736602    0.070158    1.536092
     15          8           0       -1.629121   -1.013981    3.739731
     16          8           0       -1.975950   -1.561675   -3.584850
     17          8           0       -2.815238   -0.184747   -1.316645
     18          8           0       -2.340066   -2.713084   -1.191308
     19          8           0       -2.024958    2.440047   -1.442131
     20          8           0       -0.625707    4.399772   -0.302839
     21          8           0       -1.971257    2.764325    1.302075
     22          1           0        5.341582    1.561194    0.721454
     23          1           0        5.295129   -1.057032   -1.782699
     24          1           0        4.467976   -1.862179    1.608310
     25          1           0       -2.416840   -2.805905    0.734939
     26          1           0       -2.417629   -1.216666    4.254669
     27          1           0       -3.065779   -0.078418    0.628645
     28          1           0       -0.522797    4.927280    0.497425
     29          1           0       -2.278565    1.873631    1.572154
     30          1           0       -2.629415    3.127967   -1.747639
     31          1           0       -2.297474   -3.528866   -1.702908
     32          1           0       -1.240741   -1.266994   -4.133768
     33          1           0       -2.597249    0.756027   -1.504468
 ---------------------------------------------------------------------
 Rotational constants (GHZ):           0.2124358           0.1338219           0.1240527
 General basis read from cards:  (5D, 7F)
 ======================================================================================================
                                       Pseudopotential Parameters
 ======================================================================================================
  Center     Atomic      Valence      Angular      Power
  Number     Number     Electrons     Momentum     of R      Exponent        Coefficient   SO-Coeffient
 ======================================================================================================
    1         40           12
                                      G and up 
                                                     2        1.0000000        0.00000000    0.00000000
                                      S - G
                                                     2        8.6365280      150.24299400    0.00000000
                                                     2        3.7176390       18.78003600    0.00000000
                                      P - G
                                                     2        7.6267280       33.19279100    0.00000000
                                                     2        7.4532070       66.38903900    0.00000000
                                                     2        3.3583890        4.62072600    0.00000000
                                                     2        3.2297380        9.26027000    0.00000000
                                      D - G
                                                     2        5.9380860       13.99338300    0.00000000
                                                     2        5.8255440       20.99588200    0.00000000
                                                     2        2.2050190        2.28516600    0.00000000
                                                     2        2.2062920        3.44126000    0.00000000
                                      F - G
                                                     2        4.8002150       -5.23932000    0.00000000
                                                     2        4.7989920       -6.98742400    0.00000000
    2          8
                                   No pseudopotential on this center.
    3          8
                                   No pseudopotential on this center.
    4          8
                                   No pseudopotential on this center.
    5          8
                                   No pseudopotential on this center.
    6         14
                                   No pseudopotential on this center.
    7         14
                                   No pseudopotential on this center.
    8         14
                                   No pseudopotential on this center.
    9         14
                                   No pseudopotential on this center.
   10          8
                                   No pseudopotential on this center.
   11          8
                                   No pseudopotential on this center.
   12          8
                                   No pseudopotential on this center.
   13          8
                                   No pseudopotential on this center.
   14          8
                                   No pseudopotential on this center.
   15          8
                                   No pseudopotential on this center.
   16          8
                                   No pseudopotential on this center.
   17          8
                                   No pseudopotential on this center.
   18          8
                                   No pseudopotential on this center.
   19          8
                                   No pseudopotential on this center.
   20          8
                                   No pseudopotential on this center.
   21          8
                                   No pseudopotential on this center.
   22          1
                                   No pseudopotential on this center.
   23          1
                                   No pseudopotential on this center.
   24          1
                                   No pseudopotential on this center.
   25          1
                                   No pseudopotential on this center.
   26          1
                                   No pseudopotential on this center.
   27          1
                                   No pseudopotential on this center.
   28          1
                                   No pseudopotential on this center.
   29          1
                                   No pseudopotential on this center.
   30          1
                                   No pseudopotential on this center.
   31          1
                                   No pseudopotential on this center.
   32          1
                                   No pseudopotential on this center.
   33          1
                                   No pseudopotential on this center.
 ======================================================================================================
 There are   570 symmetry adapted cartesian basis functions of A   symmetry.
 There are   524 symmetry adapted basis functions of A   symmetry.
   524 basis functions,  1074 primitive gaussians,   570 cartesian basis functions
   104 alpha electrons      104 beta electrons
       nuclear repulsion energy      2832.8883798076 Hartrees.
 NAtoms=   33 NActive=   33 NUniq=   33 SFac= 1.00D+00 NAtFMM=   60 NAOKFM=F Big=F
 Integral buffers will be    131072 words long.
 Raffenetti 2 integral format.
 Two-electron integral symmetry is turned on.
 Nuclear repulsion after empirical dispersion term =     2832.8475746248 Hartrees.
 One-electron integrals computed using PRISM.
 PrsmSu:  requested number of processors reduced to:   4 ShMem   1 Linda.
   1 Symmetry operations used in ECPInt.
 ECPInt:  NShTT=   13203 NPrTT=   78401 LenC2=   11527 LenP2D=   44635.
 LDataN:  DoStor=T MaxTD1= 8 Len=  415
 Number of processors reduced to  13 by ecpmxn.
 NBasis=   524 RedAO= T EigKep=  3.14D-05  NBF=   524
 NBsUse=   524 1.00D-06 EigRej= -1.00D+00 NBFU=   524
 Defaulting to unpruned grid for atomic number  40.
 ExpMin= 1.01D-02 ExpMax= 1.61D+04 ExpMxC= 2.43D+03 IAcc=3 IRadAn=         5 AccDes= 0.00D+00
 Harris functional with IExCor=  402 and IRadAn=       5 diagonalized for initial guess.
 HarFok:  IExCor=  402 AccDes= 0.00D+00 IRadAn=         5 IDoV= 1 UseB2=F ITyADJ=14
 ICtDFT=  3500011 ScaDFX=  1.000000  1.000000  1.000000  1.000000
 Defaulting to unpruned grid for atomic number  40.
 FoFCou: FMM=F IPFlag=           0 FMFlag=      100000 FMFlg1=           0
         NFxFlg=           0 DoJE=T BraDBF=F KetDBF=T FulRan=T
         wScrn=  0.000000 ICntrl=       500 IOpCl=  0 I1Cent=   200000004 NGrid=           0
         NMat0=    1 NMatS0=      1 NMatT0=    0 NMatD0=    1 NMtDS0=    0 NMtDT0=    0
 Petite list used in FoFCou.
 Requested convergence on RMS density matrix=1.00D-08 within 128 cycles.
 Requested convergence on MAX density matrix=1.00D-06.
 Requested convergence on             energy=1.00D-06.
 No special actions if energy rises.
 Defaulting to unpruned grid for atomic number  40.
 Defaulting to unpruned grid for atomic number  40.
 Defaulting to unpruned grid for atomic number  40.
 Defaulting to unpruned grid for atomic number  40.
 Defaulting to unpruned grid for atomic number  40.
 Defaulting to unpruned grid for atomic number  40.
 Defaulting to unpruned grid for atomic number  40.
 Defaulting to unpruned grid for atomic number  40.
 Defaulting to unpruned grid for atomic number  40.
 Defaulting to unpruned grid for atomic number  40.
 Defaulting to unpruned grid for atomic number  40.
 Defaulting to unpruned grid for atomic number  40.
 Defaulting to unpruned grid for atomic number  40.
 Defaulting to unpruned grid for atomic number  40.
 Defaulting to unpruned grid for atomic number  40.
 Defaulting to unpruned grid for atomic number  40.
 SCF Done:  E(RB3LYP) =  -2416.94685137     A.U. after   14 cycles
            NFock= 14  Conv=0.25D-08     -V/T= 2.0185

 **********************************************************************

            Population analysis using the SCF Density.

 **********************************************************************

 Orbital symmetries:
       Occupied  (A) (A) (A) (A) (A) (A) (A) (A) (A) (A) (A) (A)
                 (A) (A) (A) (A) (A) (A) (A) (A) (A) (A) (A) (A)
                 (A) (A) (A) (A) (A) (A) (A) (A) (A) (A) (A) (A)
                 (A) (A) (A) (A) (A) (A) (A) (A) (A) (A) (A) (A)
                 (A) (A) (A) (A) (A) (A) (A) (A) (A) (A) (A) (A)
                 (A) (A) (A) (A) (A) (A) (A) (A) (A) (A) (A) (A)
                 (A) (A) (A) (A) (A) (A) (A) (A) (A) (A) (A) (A)
                 (A) (A) (A) (A) (A) (A) (A) (A) (A) (A) (A) (A)
                 (A) (A) (A) (A) (A) (A) (A) (A)
       Virtual   (A) (A) (A) (A) (A) (A) (A) (A) (A) (A) (A) (A)
                 (A) (A) (A) (A) (A) (A) (A) (A) (A) (A) (A) (A)
                 (A) (A) (A) (A) (A) (A) (A) (A) (A) (A) (A) (A)
                 (A) (A) (A) (A) (A) (A) (A) (A) (A) (A) (A) (A)
                 (A) (A) (A) (A) (A) (A) (A) (A) (A) (A) (A) (A)
                 (A) (A) (A) (A) (A) (A) (A) (A) (A) (A) (A) (A)
                 (A) (A) (A) (A) (A) (A) (A) (A) (A) (A) (A) (A)
                 (A) (A) (A) (A) (A) (A) (A) (A) (A) (A) (A) (A)
                 (A) (A) (A) (A) (A) (A) (A) (A) (A) (A) (A) (A)
                 (A) (A) (A) (A) (A) (A) (A) (A) (A) (A) (A) (A)
                 (A) (A) (A) (A) (A) (A) (A) (A) (A) (A) (A) (A)
                 (A) (A) (A) (A) (A) (A) (A) (A) (A) (A) (A) (A)
                 (A) (A) (A) (A) (A) (A) (A) (A) (A) (A) (A) (A)
                 (A) (A) (A) (A) (A) (A) (A) (A) (A) (A) (A) (A)
                 (A) (A) (A) (A) (A) (A) (A) (A) (A) (A) (A) (A)
                 (A) (A) (A) (A) (A) (A) (A) (A) (A) (A) (A) (A)
                 (A) (A) (A) (A) (A) (A) (A) (A) (A) (A) (A) (A)
                 (A) (A) (A) (A) (A) (A) (A) (A) (A) (A) (A) (A)
                 (A) (A) (A) (A) (A) (A) (A) (A) (A) (A) (A) (A)
                 (A) (A) (A) (A) (A) (A) (A) (A) (A) (A) (A) (A)
                 (A) (A) (A) (A) (A) (A) (A) (A) (A) (A) (A) (A)
                 (A) (A) (A) (A) (A) (A) (A) (A) (A) (A) (A) (A)
                 (A) (A) (A) (A) (A) (A) (A) (A) (A) (A) (A) (A)
                 (A) (A) (A) (A) (A) (A) (A) (A) (A) (A) (A) (A)
                 (A) (A) (A) (A) (A) (A) (A) (A) (A) (A) (A) (A)
                 (A) (A) (A) (A) (A) (A) (A) (A) (A) (A) (A) (A)
                 (A) (A) (A) (A) (A) (A) (A) (A) (A) (A) (A) (A)
                 (A) (A) (A) (A) (A) (A) (A) (A) (A) (A) (A) (A)
                 (A) (A) (A) (A) (A) (A) (A) (A) (A) (A) (A) (A)
                 (A) (A) (A) (A) (A) (A) (A) (A) (A) (A) (A) (A)
                 (A) (A) (A) (A) (A) (A) (A) (A) (A) (A) (A) (A)
                 (A) (A) (A) (A) (A) (A) (A) (A) (A) (A) (A) (A)
                 (A) (A) (A) (A) (A) (A) (A) (A) (A) (A) (A) (A)
                 (A) (A) (A) (A) (A) (A) (A) (A) (A) (A) (A) (A)
                 (A) (A) (A) (A) (A) (A) (A) (A) (A) (A) (A) (A)
 The electronic state is 1-A.
 Alpha  occ. eigenvalues --  -66.22799 -66.21755 -66.21492 -66.21041 -19.18584
 Alpha  occ. eigenvalues --  -19.18350 -19.17780 -19.17022 -19.16732 -19.16533
 Alpha  occ. eigenvalues --  -19.16446 -19.16225 -19.16187 -19.16007 -19.16006
 Alpha  occ. eigenvalues --  -19.15501 -19.15335 -19.15257 -19.14899 -19.14707
 Alpha  occ. eigenvalues --   -5.36859  -5.35836  -5.35568  -5.35101  -3.72843
 Alpha  occ. eigenvalues --   -3.72816  -3.72770  -3.71827  -3.71780  -3.71745
 Alpha  occ. eigenvalues --   -3.71537  -3.71528  -3.71489  -3.71066  -3.71057
 Alpha  occ. eigenvalues --   -3.71032  -2.13363  -1.29606  -1.29522  -1.29366
 Alpha  occ. eigenvalues --   -1.05675  -1.04774  -1.04153  -1.03501  -1.02558
 Alpha  occ. eigenvalues --   -1.02167  -1.01470  -1.00921  -1.00765  -1.00669
 Alpha  occ. eigenvalues --   -0.99835  -0.99306  -0.97369  -0.96279  -0.95726
 Alpha  occ. eigenvalues --   -0.95404  -0.60985  -0.59159  -0.58976  -0.58494
 Alpha  occ. eigenvalues --   -0.55534  -0.54530  -0.53865  -0.53043  -0.52993
 Alpha  occ. eigenvalues --   -0.52493  -0.52152  -0.51705  -0.48773  -0.47605
 Alpha  occ. eigenvalues --   -0.47202  -0.46722  -0.43373  -0.42652  -0.41858
 Alpha  occ. eigenvalues --   -0.41391  -0.41110  -0.40525  -0.39824  -0.39342
 Alpha  occ. eigenvalues --   -0.38802  -0.38674  -0.38652  -0.38146  -0.38020
 Alpha  occ. eigenvalues --   -0.37627  -0.37478  -0.37202  -0.36544  -0.36405
 Alpha  occ. eigenvalues --   -0.36068  -0.35622  -0.35484  -0.35093  -0.34892
 Alpha  occ. eigenvalues --   -0.34604  -0.34007  -0.33688  -0.33491  -0.33252
 Alpha  occ. eigenvalues --   -0.32823  -0.32178  -0.32054  -0.31301
 Alpha virt. eigenvalues --   -0.04323  -0.03164  -0.03038  -0.02752  -0.02091
 Alpha virt. eigenvalues --   -0.01172  -0.00552  -0.00115   0.00114   0.00287
 Alpha virt. eigenvalues --    0.00759   0.00923   0.01033   0.01949   0.02344
 Alpha virt. eigenvalues --    0.03273   0.03330   0.03851   0.03952   0.04051
 Alpha virt. eigenvalues --    0.04168   0.04679   0.05531   0.05858   0.06211
 Alpha virt. eigenvalues --    0.06483   0.07090   0.07468   0.07712   0.08663
 Alpha virt. eigenvalues --    0.08797   0.09069   0.09194   0.09680   0.09947
 Alpha virt. eigenvalues --    0.10336   0.10677   0.10870   0.11285   0.11695
 Alpha virt. eigenvalues --    0.11816   0.12573   0.13268   0.13333   0.13534
 Alpha virt. eigenvalues --    0.14030   0.14479   0.14866   0.15029   0.15271
 Alpha virt. eigenvalues --    0.15338   0.15728   0.16207   0.16695   0.16933
 Alpha virt. eigenvalues --    0.17365   0.17526   0.17720   0.18163   0.18457
 Alpha virt. eigenvalues --    0.18492   0.18850   0.19215   0.19710   0.19774
 Alpha virt. eigenvalues --    0.20148   0.20246   0.20611   0.20898   0.21225
 Alpha virt. eigenvalues --    0.21751   0.22043   0.22333   0.22386   0.22745
 Alpha virt. eigenvalues --    0.23292   0.23732   0.24045   0.24157   0.24497
 Alpha virt. eigenvalues --    0.24793   0.25077   0.25633   0.25857   0.26141
 Alpha virt. eigenvalues --    0.26653   0.26671   0.26906   0.27187   0.27489
 Alpha virt. eigenvalues --    0.27933   0.28314   0.28554   0.28781   0.29045
 Alpha virt. eigenvalues --    0.29472   0.29736   0.30083   0.30374   0.30667
 Alpha virt. eigenvalues --    0.30792   0.31374   0.31484   0.31679   0.32031
 Alpha virt. eigenvalues --    0.32356   0.32736   0.33077   0.33566   0.34036
 Alpha virt. eigenvalues --    0.34459   0.34729   0.35347   0.35612   0.36289
 Alpha virt. eigenvalues --    0.36942   0.37559   0.38046   0.38490   0.38797
 Alpha virt. eigenvalues --    0.39425   0.39871   0.40112   0.41074   0.41581
 Alpha virt. eigenvalues --    0.42834   0.43066   0.43877   0.44267   0.44839
 Alpha virt. eigenvalues --    0.45423   0.45583   0.45950   0.46615   0.47425
 Alpha virt. eigenvalues --    0.47928   0.48725   0.48823   0.49294   0.49534
 Alpha virt. eigenvalues --    0.50050   0.50866   0.51101   0.51352   0.53076
 Alpha virt. eigenvalues --    0.54190   0.54399   0.55113   0.56653   0.57306
 Alpha virt. eigenvalues --    0.58199   0.58664   0.59082   0.59269   0.60357
 Alpha virt. eigenvalues --    0.61245   0.61714   0.62153   0.64145   0.65872
 Alpha virt. eigenvalues --    0.67044   0.68098   0.68471   0.68602   0.69472
 Alpha virt. eigenvalues --    0.70005   0.70670   0.73029   0.74493   0.75088
 Alpha virt. eigenvalues --    0.75466   0.77377   0.78599   0.78960   0.80306
 Alpha virt. eigenvalues --    0.81095   0.81453   0.82585   0.84162   0.85365
 Alpha virt. eigenvalues --    0.86596   0.87703   0.89637   0.90599   0.91240
 Alpha virt. eigenvalues --    0.94496   0.95704   0.96259   0.96876   0.97517
 Alpha virt. eigenvalues --    0.98067   0.98744   0.99200   0.99764   1.00427
 Alpha virt. eigenvalues --    1.00799   1.01516   1.02190   1.03232   1.04044
 Alpha virt. eigenvalues --    1.04310   1.05507   1.06423   1.06703   1.07969
 Alpha virt. eigenvalues --    1.09729   1.12341   1.15238   1.16204   1.16484
 Alpha virt. eigenvalues --    1.18703   1.19112   1.19836   1.20581   1.20985
 Alpha virt. eigenvalues --    1.21424   1.21724   1.22370   1.22903   1.22958
 Alpha virt. eigenvalues --    1.23453   1.23902   1.24343   1.25180   1.25721
 Alpha virt. eigenvalues --    1.26110   1.27169   1.27437   1.28149   1.28433
 Alpha virt. eigenvalues --    1.29002   1.29818   1.30118   1.30816   1.31444
 Alpha virt. eigenvalues --    1.32472   1.32700   1.33019   1.33562   1.34483
 Alpha virt. eigenvalues --    1.35323   1.36007   1.36564   1.36907   1.37727
 Alpha virt. eigenvalues --    1.39178   1.39738   1.40199   1.41173   1.41492
 Alpha virt. eigenvalues --    1.42806   1.43787   1.44273   1.45263   1.46347
 Alpha virt. eigenvalues --    1.47028   1.48756   1.50943   1.51348   1.52812
 Alpha virt. eigenvalues --    1.56710   1.57167   1.57671   1.59281   1.59826
 Alpha virt. eigenvalues --    1.60076   1.61216   1.61909   1.62431   1.63086
 Alpha virt. eigenvalues --    1.63215   1.63859   1.65175   1.65405   1.66653
 Alpha virt. eigenvalues --    1.67155   1.67995   1.69315   1.69687   1.70120
 Alpha virt. eigenvalues --    1.71330   1.71436   1.71529   1.72570   1.73385
 Alpha virt. eigenvalues --    1.74148   1.74954   1.75574   1.76060   1.76794
 Alpha virt. eigenvalues --    1.77210   1.77415   1.78518   1.78624   1.79573
 Alpha virt. eigenvalues --    1.80634   1.81466   1.82261   1.82413   1.83049
 Alpha virt. eigenvalues --    1.83406   1.84847   1.85109   1.85940   1.86687
 Alpha virt. eigenvalues --    1.87169   1.88062   1.88578   1.89833   1.90459
 Alpha virt. eigenvalues --    1.91192   1.91355   1.92484   1.92828   1.93908
 Alpha virt. eigenvalues --    1.94700   1.94959   1.95899   1.97313   1.98399
 Alpha virt. eigenvalues --    1.98987   2.00561   2.01217   2.02790   2.03632
 Alpha virt. eigenvalues --    2.05950   2.06566   2.07652   2.09738   2.10430
 Alpha virt. eigenvalues --    2.11141   2.13058   2.14254   2.16112   2.16379
 Alpha virt. eigenvalues --    2.17777   2.18798   2.19125   2.20791   2.26331
 Alpha virt. eigenvalues --    2.32640   2.33516   2.35378   2.39484   2.40422
 Alpha virt. eigenvalues --    2.41171   2.41372   2.41730   2.42740   2.43736
 Alpha virt. eigenvalues --    2.44006   2.45769   2.46707   2.47593   2.48984
 Alpha virt. eigenvalues --    2.50213   2.50311   2.51674   2.52776   2.53374
 Alpha virt. eigenvalues --    2.55466   2.58157   2.59298   2.60082   2.60702
 Alpha virt. eigenvalues --    2.61109   2.61764   2.62050   2.62390   2.62792
 Alpha virt. eigenvalues --    2.63133   2.64045   2.64589   2.64982   2.65974
 Alpha virt. eigenvalues --    2.66289   2.66606   2.67354   2.67546   2.69382
 Alpha virt. eigenvalues --    2.69725   2.70313   2.71218   2.71661   2.72391
 Alpha virt. eigenvalues --    2.72855   2.74318   2.75563   2.76756   2.77473
 Alpha virt. eigenvalues --    2.78943   2.80525   2.81501   2.82472   2.83407
 Alpha virt. eigenvalues --    2.83754   2.84710   2.86680   2.87791   2.88138
 Alpha virt. eigenvalues --    3.14531   3.20177   3.35849   3.41084   3.46743
 Alpha virt. eigenvalues --    3.47879   3.48583   3.48625   3.51087   3.51118
 Alpha virt. eigenvalues --    3.52910   3.54276   3.60309   3.61078   3.62061
 Alpha virt. eigenvalues --    3.66208   4.30523   4.59174   7.88367  31.29164
          Condensed to atoms (all electrons):
               1          2          3          4          5          6
     1  Zr  15.099741  -0.144946  -0.002148  -0.141215  -0.198134  -0.574408
     2  O   -0.144946   9.073655   0.019729  -0.042444  -0.057714   0.092466
     3  O   -0.002148   0.019729   8.829839   0.014767  -0.042605  -0.005344
     4  O   -0.141215  -0.042444   0.014767   8.813977  -0.058847  -0.675686
     5  O   -0.198134  -0.057714  -0.042605  -0.058847   9.437929  -0.006163
     6  Si  -0.574408   0.092466  -0.005344  -0.675686  -0.006163  13.965623
     7  Si  -0.617409  -0.027216  -0.876852  -0.006076  -0.033347   0.084634
     8  Si  -0.561576  -1.001051  -0.020854   0.073266  -0.013687  -0.026572
     9  Si  -0.324729  -0.041417  -0.026812  -0.034650  -1.256827   0.037816
    10  O   -0.011696   0.001008  -0.002098   0.001144   0.131317  -0.002497
    11  O   -0.060646   0.003694   0.002915   0.001160   0.314722  -0.000909
    12  O    0.037515   0.000015   0.004745   0.002182   0.162903  -0.002749
    13  O   -0.046322   0.189395   0.001700  -0.015694  -0.000654   0.037966
    14  O   -0.025210   0.265797  -0.017352  -0.008868   0.002025   0.030780
    15  O   -0.079900   0.291980  -0.000731   0.001248   0.000545  -0.000883
    16  O   -0.127463   0.004676  -0.000471   0.344685   0.003188  -0.420925
    17  O   -0.080233  -0.040274   0.007501   0.220820   0.001246  -0.456097
    18  O   -0.028564  -0.014115   0.003716   0.199242  -0.000595  -0.450830
    19  O   -0.002289   0.009199   0.263512   0.010030   0.002102  -0.006510
    20  O   -0.146123  -0.000567   0.163849  -0.000885   0.001442   0.008946
    21  O    0.034785   0.010737   0.146845   0.003346   0.000247  -0.011506
    22  H   -0.008895  -0.000019  -0.000020  -0.000010   0.005721   0.000084
    23  H   -0.007576  -0.000013  -0.000006  -0.000056  -0.025190   0.000074
    24  H   -0.005186  -0.000206  -0.000010   0.000001  -0.005605   0.000050
    25  H    0.018000  -0.020221  -0.000112  -0.000250   0.000019   0.002214
    26  H    0.007293   0.000533   0.000015  -0.000012  -0.000004  -0.000130
    27  H    0.005997  -0.019448   0.000844  -0.001724   0.000009   0.008307
    28  H    0.005159  -0.000011  -0.018479  -0.000014  -0.000016  -0.000283
    29  H    0.004665  -0.007136  -0.020326  -0.000143  -0.000073   0.000105
    30  H    0.000859  -0.000013   0.000116  -0.000450  -0.000008  -0.000724
    31  H   -0.000038   0.000168  -0.000019  -0.018421  -0.000008   0.063601
    32  H    0.001988  -0.000023   0.000039   0.010391   0.000001   0.023019
    33  H   -0.016271   0.001017  -0.010063  -0.009558  -0.000102   0.053428
               7          8          9         10         11         12
     1  Zr  -0.617409  -0.561576  -0.324729  -0.011696  -0.060646   0.037515
     2  O   -0.027216  -1.001051  -0.041417   0.001008   0.003694   0.000015
     3  O   -0.876852  -0.020854  -0.026812  -0.002098   0.002915   0.004745
     4  O   -0.006076   0.073266  -0.034650   0.001144   0.001160   0.002182
     5  O   -0.033347  -0.013687  -1.256827   0.131317   0.314722   0.162903
     6  Si   0.084634  -0.026572   0.037816  -0.002497  -0.000909  -0.002749
     7  Si  13.795343   0.181155   0.020599  -0.000270  -0.000767   0.004241
     8  Si   0.181155  13.787604   0.025631  -0.000871   0.001071  -0.000477
     9  Si   0.020599   0.025631  14.318568  -0.075181  -0.188235  -0.223409
    10  O   -0.000270  -0.000871  -0.075181   8.526041   0.015711   0.032739
    11  O   -0.000767   0.001071  -0.188235   0.015711   8.518014  -0.050184
    12  O    0.004241  -0.000477  -0.223409   0.032739  -0.050184   8.602153
    13  O    0.007609  -0.094016   0.000369   0.000000   0.000017   0.000010
    14  O    0.010095  -0.368721  -0.001426  -0.000002   0.000001   0.000018
    15  O   -0.002859  -0.305115  -0.000735   0.000000  -0.000024  -0.000019
    16  O    0.003841  -0.009869  -0.000970   0.000004  -0.000002  -0.000001
    17  O   -0.000601   0.096904   0.002521  -0.000003   0.000001  -0.000006
    18  O   -0.000567   0.074046   0.004258  -0.000004  -0.000002  -0.000001
    19  O   -0.405224  -0.015506   0.001073   0.000007  -0.000002  -0.000015
    20  O   -0.108141   0.009758   0.003233   0.000000  -0.000003  -0.000018
    21  O    0.023799  -0.040196  -0.001912   0.000002   0.000001   0.000030
    22  H   -0.000214   0.000084   0.047145  -0.006655  -0.005137   0.220097
    23  H    0.000061   0.000063   0.080889   0.228563  -0.006224   0.005907
    24  H    0.000061  -0.000109   0.037574   0.007365   0.242399  -0.007508
    25  H   -0.000483   0.057325  -0.000216   0.000000  -0.000000  -0.000000
    26  H   -0.000373   0.046053  -0.000042  -0.000000   0.000000  -0.000000
    27  H    0.001142   0.068086  -0.000016   0.000000  -0.000000  -0.000000
    28  H    0.056661  -0.000086  -0.000131  -0.000000  -0.000000  -0.000004
    29  H    0.048058   0.021734  -0.000055   0.000000   0.000000  -0.000001
    30  H    0.040094   0.000091   0.000025  -0.000000  -0.000000   0.000000
    31  H    0.000153  -0.001952  -0.000052   0.000000  -0.000000  -0.000000
    32  H   -0.000657   0.000053   0.000001  -0.000000   0.000000   0.000000
    33  H    0.020599   0.000163   0.000079  -0.000000   0.000000   0.000000
              13         14         15         16         17         18
     1  Zr  -0.046322  -0.025210  -0.079900  -0.127463  -0.080233  -0.028564
     2  O    0.189395   0.265797   0.291980   0.004676  -0.040274  -0.014115
     3  O    0.001700  -0.017352  -0.000731  -0.000471   0.007501   0.003716
     4  O   -0.015694  -0.008868   0.001248   0.344685   0.220820   0.199242
     5  O   -0.000654   0.002025   0.000545   0.003188   0.001246  -0.000595
     6  Si   0.037966   0.030780  -0.000883  -0.420925  -0.456097  -0.450830
     7  Si   0.007609   0.010095  -0.002859   0.003841  -0.000601  -0.000567
     8  Si  -0.094016  -0.368721  -0.305115  -0.009869   0.096904   0.074046
     9  Si   0.000369  -0.001426  -0.000735  -0.000970   0.002521   0.004258
    10  O    0.000000  -0.000002   0.000000   0.000004  -0.000003  -0.000004
    11  O    0.000017   0.000001  -0.000024  -0.000002   0.000001  -0.000002
    12  O    0.000010   0.000018  -0.000019  -0.000001  -0.000006  -0.000001
    13  O    8.630249   0.087422  -0.090904   0.003716  -0.030857  -0.045273
    14  O    0.087422   8.676873   0.055273   0.003682  -0.035950  -0.026821
    15  O   -0.090904   0.055273   8.776160  -0.000174   0.003579   0.001659
    16  O    0.003716   0.003682  -0.000174   8.902023  -0.091334  -0.115284
    17  O   -0.030857  -0.035950   0.003579  -0.091334   8.936354   0.227632
    18  O   -0.045273  -0.026821   0.001659  -0.115284   0.227632   9.014225
    19  O    0.000198  -0.000337   0.000135  -0.001592  -0.030201   0.000180
    20  O    0.000008  -0.000222   0.000038   0.000065  -0.000999   0.000015
    21  O   -0.000245   0.016202  -0.000596  -0.000214  -0.005548   0.000475
    22  H   -0.000000   0.000000  -0.000000   0.000000   0.000000  -0.000000
    23  H    0.000000   0.000000  -0.000000  -0.000000   0.000000  -0.000000
    24  H   -0.000000   0.000000   0.000002   0.000000  -0.000000  -0.000000
    25  H    0.218080  -0.011995   0.008918  -0.000049   0.000632   0.014845
    26  H   -0.005155  -0.010056   0.217203   0.000000  -0.000003   0.000006
    27  H   -0.009828   0.219057   0.004628   0.000184   0.017878  -0.000277
    28  H   -0.000000  -0.000005  -0.000001  -0.000000   0.000004  -0.000000
    29  H    0.000792   0.017585  -0.002568  -0.000004  -0.000394   0.000006
    30  H    0.000001  -0.000001   0.000000   0.000117  -0.000392  -0.000007
    31  H    0.002351   0.000164  -0.000018   0.003839  -0.000772   0.218106
    32  H   -0.000008  -0.000006   0.000000   0.233365  -0.003642   0.003890
    33  H    0.000229   0.002068  -0.000035  -0.000131   0.231007   0.002111
              19         20         21         22         23         24
     1  Zr  -0.002289  -0.146123   0.034785  -0.008895  -0.007576  -0.005186
     2  O    0.009199  -0.000567   0.010737  -0.000019  -0.000013  -0.000206
     3  O    0.263512   0.163849   0.146845  -0.000020  -0.000006  -0.000010
     4  O    0.010030  -0.000885   0.003346  -0.000010  -0.000056   0.000001
     5  O    0.002102   0.001442   0.000247   0.005721  -0.025190  -0.005605
     6  Si  -0.006510   0.008946  -0.011506   0.000084   0.000074   0.000050
     7  Si  -0.405224  -0.108141   0.023799  -0.000214   0.000061   0.000061
     8  Si  -0.015506   0.009758  -0.040196   0.000084   0.000063  -0.000109
     9  Si   0.001073   0.003233  -0.001912   0.047145   0.080889   0.037574
    10  O    0.000007   0.000000   0.000002  -0.006655   0.228563   0.007365
    11  O   -0.000002  -0.000003   0.000001  -0.005137  -0.006224   0.242399
    12  O   -0.000015  -0.000018   0.000030   0.220097   0.005907  -0.007508
    13  O    0.000198   0.000008  -0.000245  -0.000000   0.000000  -0.000000
    14  O   -0.000337  -0.000222   0.016202   0.000000   0.000000   0.000000
    15  O    0.000135   0.000038  -0.000596  -0.000000  -0.000000   0.000002
    16  O   -0.001592   0.000065  -0.000214   0.000000  -0.000000   0.000000
    17  O   -0.030201  -0.000999  -0.005548   0.000000   0.000000  -0.000000
    18  O    0.000180   0.000015   0.000475  -0.000000  -0.000000  -0.000000
    19  O    8.872028   0.031950   0.023688  -0.000000   0.000000  -0.000000
    20  O    0.031950   8.656466  -0.050408   0.000001   0.000000  -0.000000
    21  O    0.023688  -0.050408   8.485999  -0.000000   0.000000   0.000000
    22  H   -0.000000   0.000001  -0.000000   0.361537   0.000056   0.000121
    23  H    0.000000   0.000000   0.000000   0.000056   0.350987   0.000013
    24  H   -0.000000  -0.000000   0.000000   0.000121   0.000013   0.365020
    25  H   -0.000025   0.000000  -0.000019   0.000000   0.000000   0.000000
    26  H    0.000001  -0.000000   0.000038  -0.000000  -0.000000  -0.000000
    27  H    0.000020   0.000191  -0.004037  -0.000000  -0.000000   0.000000
    28  H    0.004608   0.229603  -0.002088  -0.000000   0.000000  -0.000000
    29  H   -0.008560   0.007667   0.206448   0.000000   0.000000  -0.000000
    30  H    0.224303  -0.001469  -0.007139   0.000000   0.000000  -0.000000
    31  H    0.000004  -0.000000  -0.000000  -0.000000  -0.000000   0.000000
    32  H    0.000098  -0.000000   0.000001  -0.000000  -0.000000  -0.000000
    33  H    0.014857  -0.000080   0.001463  -0.000000  -0.000000  -0.000000
              25         26         27         28         29         30
     1  Zr   0.018000   0.007293   0.005997   0.005159   0.004665   0.000859
     2  O   -0.020221   0.000533  -0.019448  -0.000011  -0.007136  -0.000013
     3  O   -0.000112   0.000015   0.000844  -0.018479  -0.020326   0.000116
     4  O   -0.000250  -0.000012  -0.001724  -0.000014  -0.000143  -0.000450
     5  O    0.000019  -0.000004   0.000009  -0.000016  -0.000073  -0.000008
     6  Si   0.002214  -0.000130   0.008307  -0.000283   0.000105  -0.000724
     7  Si  -0.000483  -0.000373   0.001142   0.056661   0.048058   0.040094
     8  Si   0.057325   0.046053   0.068086  -0.000086   0.021734   0.000091
     9  Si  -0.000216  -0.000042  -0.000016  -0.000131  -0.000055   0.000025
    10  O    0.000000  -0.000000   0.000000  -0.000000   0.000000  -0.000000
    11  O   -0.000000   0.000000  -0.000000  -0.000000   0.000000  -0.000000
    12  O   -0.000000  -0.000000  -0.000000  -0.000004  -0.000001   0.000000
    13  O    0.218080  -0.005155  -0.009828  -0.000000   0.000792   0.000001
    14  O   -0.011995  -0.010056   0.219057  -0.000005   0.017585  -0.000001
    15  O    0.008918   0.217203   0.004628  -0.000001  -0.002568   0.000000
    16  O   -0.000049   0.000000   0.000184  -0.000000  -0.000004   0.000117
    17  O    0.000632  -0.000003   0.017878   0.000004  -0.000394  -0.000392
    18  O    0.014845   0.000006  -0.000277  -0.000000   0.000006  -0.000007
    19  O   -0.000025   0.000001   0.000020   0.004608  -0.008560   0.224303
    20  O    0.000000  -0.000000   0.000191   0.229603   0.007667  -0.001469
    21  O   -0.000019   0.000038  -0.004037  -0.002088   0.206448  -0.007139
    22  H    0.000000  -0.000000  -0.000000  -0.000000   0.000000   0.000000
    23  H    0.000000  -0.000000  -0.000000   0.000000   0.000000   0.000000
    24  H    0.000000  -0.000000   0.000000  -0.000000  -0.000000  -0.000000
    25  H    0.298915  -0.000012   0.000116   0.000000   0.000001   0.000000
    26  H   -0.000012   0.365910   0.000036   0.000000   0.000021  -0.000000
    27  H    0.000116   0.000036   0.283371  -0.000000  -0.001495   0.000010
    28  H    0.000000   0.000000  -0.000000   0.349213  -0.000017  -0.000016
    29  H    0.000001   0.000021  -0.001495  -0.000017   0.285949   0.000155
    30  H    0.000000  -0.000000   0.000010  -0.000016   0.000155   0.334215
    31  H   -0.000491   0.000000   0.000013  -0.000000   0.000000  -0.000000
    32  H   -0.000001   0.000000  -0.000000   0.000000  -0.000000  -0.000000
    33  H    0.000006  -0.000000  -0.002407  -0.000002   0.000100  -0.001154
              31         32         33
     1  Zr  -0.000038   0.001988  -0.016271
     2  O    0.000168  -0.000023   0.001017
     3  O   -0.000019   0.000039  -0.010063
     4  O   -0.018421   0.010391  -0.009558
     5  O   -0.000008   0.000001  -0.000102
     6  Si   0.063601   0.023019   0.053428
     7  Si   0.000153  -0.000657   0.020599
     8  Si  -0.001952   0.000053   0.000163
     9  Si  -0.000052   0.000001   0.000079
    10  O    0.000000  -0.000000  -0.000000
    11  O   -0.000000   0.000000   0.000000
    12  O   -0.000000   0.000000   0.000000
    13  O    0.002351  -0.000008   0.000229
    14  O    0.000164  -0.000006   0.002068
    15  O   -0.000018   0.000000  -0.000035
    16  O    0.003839   0.233365  -0.000131
    17  O   -0.000772  -0.003642   0.231007
    18  O    0.218106   0.003890   0.002111
    19  O    0.000004   0.000098   0.014857
    20  O   -0.000000  -0.000000  -0.000080
    21  O   -0.000000   0.000001   0.001463
    22  H   -0.000000  -0.000000  -0.000000
    23  H   -0.000000  -0.000000  -0.000000
    24  H    0.000000  -0.000000  -0.000000
    25  H   -0.000491  -0.000001   0.000006
    26  H    0.000000   0.000000  -0.000000
    27  H    0.000013  -0.000000  -0.002407
    28  H   -0.000000   0.000000  -0.000002
    29  H    0.000000  -0.000000   0.000100
    30  H   -0.000000  -0.000000  -0.001154
    31  H    0.331375  -0.000000  -0.000038
    32  H   -0.000000   0.349904   0.000157
    33  H   -0.000038   0.000157   0.269264
 Mulliken charges:
               1
     1  Zr  -0.005028
     2  O   -0.547232
     3  O   -0.415828
     4  O   -0.681255
     5  O   -0.363836
     6  Si   2.233104
     7  Si   1.782911
     8  Si   2.017571
     9  Si   1.597036
    10  O   -0.844622
    11  O   -0.787572
    12  O   -0.788163
    13  O   -0.841156
    14  O   -0.880069
    15  O   -0.876804
    16  O   -0.734902
    17  O   -0.968775
    18  O   -1.082071
    19  O   -0.987732
    20  O   -0.804318
    21  O   -0.830197
    22  H    0.386105
    23  H    0.372452
    24  H    0.366019
    25  H    0.414803
    26  H    0.378677
    27  H    0.429345
    28  H    0.375903
    29  H    0.447486
    30  H    0.411387
    31  H    0.402036
    32  H    0.381431
    33  H    0.443294
 Sum of Mulliken charges =  -0.00000
 Mulliken charges with hydrogens summed into heavy atoms:
               1
     1  Zr  -0.005028
     2  O   -0.547232
     3  O   -0.415828
     4  O   -0.681255
     5  O   -0.363836
     6  Si   2.233104
     7  Si   1.782911
     8  Si   2.017571
     9  Si   1.597036
    10  O   -0.472170
    11  O   -0.421553
    12  O   -0.402058
    13  O   -0.426353
    14  O   -0.450724
    15  O   -0.498127
    16  O   -0.353471
    17  O   -0.525482
    18  O   -0.680036
    19  O   -0.576345
    20  O   -0.428415
    21  O   -0.382710
 Electronic spatial extent (au):  <R**2>=           9869.8748
 Charge=             -0.0000 electrons
 Dipole moment (field-independent basis, Debye):
    X=              1.1037    Y=             -0.7332    Z=             -2.3215  Tot=              2.6730
 Quadrupole moment (field-independent basis, Debye-Ang):
   XX=           -160.2078   YY=           -154.6059   ZZ=           -157.8914
   XY=             -4.7678   XZ=              2.3772   YZ=              5.7421
 Traceless Quadrupole moment (field-independent basis, Debye-Ang):
   XX=             -2.6394   YY=              2.9624   ZZ=             -0.3230
   XY=             -4.7678   XZ=              2.3772   YZ=              5.7421
 Octapole moment (field-independent basis, Debye-Ang**2):
  XXX=             74.1901  YYY=              7.0232  ZZZ=            -15.4125  XYY=             -0.7287
  XXY=             20.3752  XXZ=             18.9412  XZZ=              4.3418  YZZ=            -16.8978
  YYZ=            -17.9888  XYZ=             28.1556
 Hexadecapole moment (field-independent basis, Debye-Ang**3):
 XXXX=          -6031.4163 YYYY=          -2836.0595 ZZZZ=          -2266.7373 XXXY=             60.9187
 XXXZ=            -35.8983 YYYX=              4.7878 YYYZ=            220.8482 ZZZX=           -170.1321
 ZZZY=            -57.7112 XXYY=          -1473.2551 XXZZ=          -1372.0629 YYZZ=           -922.5189
 XXYZ=             -8.2362 YYXZ=            119.9473 ZZXY=            -62.0895
 N-N= 2.832847574625D+03 E-N=-1.137829709174D+04  KE= 2.373154870181D+03
 PrsmSu:  requested number of processors reduced to:   2 ShMem   1 Linda.
 PrsmSu:  requested number of processors reduced to:  10 ShMem   1 Linda.
   1 Symmetry operations used in ECPInt.
 ECPInt:  NShTT=   13203 NPrTT=   78401 LenC2=   11527 LenP2D=   44635.
 LDataN:  DoStor=T MaxTD1= 9 Len=  602
 Number of processors reduced to  14 by ecpmxn.
 Calling FoFJK, ICntrl=      2127 FMM=F ISym2X=0 I1Cent= 0 IOpClX= 0 NMat=1 NMatS=1 NMatT=0.
 CoulSu:  requested number of processors reduced to:  10 ShMem   1 Linda.
 Defaulting to unpruned grid for atomic number  40.
 Defaulting to unpruned grid for atomic number  40.
 Defaulting to unpruned grid for atomic number  40.
 Defaulting to unpruned grid for atomic number  40.
 Defaulting to unpruned grid for atomic number  40.
 Defaulting to unpruned grid for atomic number  40.
 Defaulting to unpruned grid for atomic number  40.
 Defaulting to unpruned grid for atomic number  40.
 Defaulting to unpruned grid for atomic number  40.
 Defaulting to unpruned grid for atomic number  40.
 Defaulting to unpruned grid for atomic number  40.
 Defaulting to unpruned grid for atomic number  40.
 Defaulting to unpruned grid for atomic number  40.
 Defaulting to unpruned grid for atomic number  40.
 Defaulting to unpruned grid for atomic number  40.
 Defaulting to unpruned grid for atomic number  40.
 ***** Axes restored to original set *****
 -------------------------------------------------------------------
 Center     Atomic                   Forces (Hartrees/Bohr)
 Number     Number              X              Y              Z
 -------------------------------------------------------------------
      1       40          -0.000059186   -0.000058207   -0.000233795
      2        8           0.000027595    0.000014212    0.000099383
      3        8          -0.000020532   -0.000022716    0.000026155
      4        8          -0.000001597    0.000034774    0.000061952
      5        8           0.000030235    0.000073851    0.000063161
      6       14          -0.000006712   -0.000007659   -0.000021876
      7       14           0.000031515   -0.000004908   -0.000048379
      8       14          -0.000017719   -0.000048310   -0.000059324
      9       14          -0.000018555   -0.000070922    0.000024937
     10        8           0.000012681    0.000031815   -0.000013072
     11        8           0.000015861    0.000034113    0.000002250
     12        8           0.000029182    0.000008415    0.000015007
     13        8          -0.000001435    0.000027872    0.000019363
     14        8           0.000004621    0.000008148    0.000017594
     15        8           0.000012371    0.000013168    0.000019583
     16        8          -0.000002011    0.000002772    0.000013558
     17        8           0.000006900    0.000004391    0.000002582
     18        8          -0.000013372    0.000009608    0.000009645
     19        8          -0.000000080    0.000005749    0.000013176
     20        8          -0.000011206    0.000002879    0.000013599
     21        8          -0.000006425    0.000003001    0.000026315
     22        1           0.000001461   -0.000008573   -0.000001709
     23        1          -0.000015647   -0.000014220   -0.000002213
     24        1          -0.000014143   -0.000030301   -0.000010266
     25        1           0.000003997   -0.000004248   -0.000010381
     26        1          -0.000002250    0.000001051    0.000000522
     27        1          -0.000001538    0.000001605   -0.000010391
     28        1           0.000005806   -0.000000855   -0.000005843
     29        1          -0.000004102   -0.000002651   -0.000004988
     30        1           0.000003009    0.000000795   -0.000002279
     31        1           0.000008563   -0.000003597   -0.000001363
     32        1           0.000004542    0.000001133   -0.000001954
     33        1          -0.000001831   -0.000002186   -0.000000949
 -------------------------------------------------------------------
 Cartesian Forces:  Max     0.000233795 RMS     0.000034211

 GradGradGradGradGradGradGradGradGradGradGradGradGradGradGradGradGradGrad
 Berny optimization.
 FormGI is forming the generalized inverse of G from B-inverse, IUseBI=4.
 Internal  Forces:  Max     0.000177163 RMS     0.000025998
 Search for a local minimum.
 Step number   1 out of a maximum of  148
 All quantities printed in internal units (Hartrees-Bohrs-Radians)
 Mixed Optimization -- En-DIIS/RFO-DIIS
 Second derivative matrix not updated -- first step.
 ITU=  0
     Eigenvalues ---    0.00230   0.00230   0.00230   0.03240   0.03358
     Eigenvalues ---    0.03498   0.03580   0.03665   0.03666   0.03680
     Eigenvalues ---    0.03686   0.03693   0.03739   0.03789   0.03792
     Eigenvalues ---    0.03816   0.03834   0.03850   0.05521   0.09402
     Eigenvalues ---    0.09687   0.11077   0.11224   0.11833   0.11884
     Eigenvalues ---    0.11890   0.12177   0.12239   0.12299   0.12782
     Eigenvalues ---    0.12895   0.13099   0.13313   0.16000   0.16000
     Eigenvalues ---    0.16000   0.16000   0.16000   0.16000   0.16000
     Eigenvalues ---    0.16000   0.16000   0.16000   0.16000   0.16000
     Eigenvalues ---    0.19173   0.19314   0.19332   0.20013   0.20203
     Eigenvalues ---    0.20204   0.20208   0.20515   0.20653   0.20795
     Eigenvalues ---    0.20989   0.21175   0.21186   0.21227   0.25000
     Eigenvalues ---    0.25000   0.25000   0.38002   0.39187   0.40659
     Eigenvalues ---    0.41547   0.42502   0.42510   0.42670   0.42743
     Eigenvalues ---    0.42824   0.43363   0.43951   0.43980   0.44273
     Eigenvalues ---    0.44485   0.44689   0.44768   0.50655   0.51353
     Eigenvalues ---    0.52036   0.52548   0.54334   0.54624   0.54642
     Eigenvalues ---    0.54649   0.54689   0.54692   0.54712   0.54765
     Eigenvalues --- 1000.000001000.000001000.000001000.000001000.00000
     Eigenvalues --- 1000.000001000.000001000.000001000.000001000.00000
     Eigenvalues --- 1000.000001000.000001000.000001000.000001000.00000
     Eigenvalues --- 1000.000001000.000001000.000001000.000001000.00000
     Eigenvalues --- 1000.000001000.000001000.000001000.000001000.00000
     Eigenvalues --- 1000.000001000.000001000.000001000.000001000.00000
     Eigenvalues --- 1000.000001000.000001000.000001000.000001000.00000
     Eigenvalues --- 1000.000001000.000001000.000001000.000001000.00000
     Eigenvalues --- 1000.000001000.000001000.000001000.000001000.00000
     Eigenvalues --- 1000.000001000.000001000.00000
 RFO step:  Lambda=-7.06241885D-07 EMin= 2.30000000D-03
 Linear search not attempted -- first point.
 Iteration  1 RMS(Cart)=  0.00271006 RMS(Int)=  0.00000171
 Iteration  2 RMS(Cart)=  0.00000289 RMS(Int)=  0.00000008
 Iteration  3 RMS(Cart)=  0.00000000 RMS(Int)=  0.00000008
 Iteration  1 RMS(Cart)=  0.00000001 RMS(Int)=  0.00000000
 Variable       Old X    -DE/DX   Delta X   Delta X   Delta X     New X
                                 (Linear)    (Quad)   (Total)
    R1        3.67647   0.00004   0.00000   0.00021   0.00021   3.67668
    R2        3.69189  -0.00002   0.00000  -0.00009  -0.00009   3.69180
    R3        3.73835  -0.00006   0.00000  -0.00032  -0.00032   3.73803
    R4        3.70232   0.00003   0.00000   0.00017   0.00017   3.70249
    R5        3.11688  -0.00001   0.00000  -0.00002  -0.00002   3.11686
    R6        3.09579  -0.00001   0.00000  -0.00002  -0.00002   3.09577
    R7        3.10213  -0.00000   0.00000  -0.00000  -0.00000   3.10213
    R8        3.09246   0.00001   0.00000   0.00002   0.00002   3.09248
    R9        3.11587  -0.00001   0.00000  -0.00003  -0.00003   3.11584
   R10        3.11989  -0.00000   0.00000  -0.00001  -0.00001   3.11989
   R11        3.14367   0.00000   0.00000   0.00000   0.00000   3.14367
   R12        3.18062  -0.00001   0.00000  -0.00003  -0.00003   3.18060
   R13        3.10924  -0.00000   0.00000  -0.00000  -0.00000   3.10924
   R14        3.09339   0.00002   0.00000   0.00005   0.00005   3.09344
   R15        3.10179  -0.00002   0.00000  -0.00005  -0.00005   3.10173
   R16        3.16373   0.00000   0.00000   0.00000   0.00000   3.16374
   R17        3.09830   0.00002   0.00000   0.00005   0.00005   3.09835
   R18        3.11979   0.00001   0.00000   0.00003   0.00003   3.11982
   R19        3.13204  -0.00001   0.00000  -0.00002  -0.00002   3.13202
   R20        3.11779   0.00001   0.00000   0.00003   0.00003   3.11782
   R21        1.82152   0.00001   0.00000   0.00001   0.00001   1.82153
   R22        1.82107   0.00001   0.00000   0.00001   0.00001   1.82108
   R23        1.82089  -0.00000   0.00000  -0.00000  -0.00000   1.82089
   R24        1.84078   0.00001   0.00000   0.00002   0.00002   1.84080
   R25        1.84565   0.00001   0.00000   0.00002   0.00002   1.84567
   R26        1.82041   0.00000   0.00000   0.00000   0.00000   1.82042
   R27        1.82109   0.00001   0.00000   0.00001   0.00001   1.82110
   R28        1.85910  -0.00000   0.00000  -0.00001  -0.00001   1.85910
   R29        1.82145   0.00000   0.00000   0.00001   0.00001   1.82146
   R30        1.82428  -0.00000   0.00000  -0.00000  -0.00000   1.82428
   R31        1.82168  -0.00001   0.00000  -0.00001  -0.00001   1.82167
   R32        1.85224   0.00000   0.00000   0.00001   0.00001   1.85224
    A1        1.85172  -0.00002   0.00000  -0.00065  -0.00065   1.85108
    A2        1.80155   0.00003   0.00000   0.00021   0.00021   1.80176
    A3        1.96889  -0.00008   0.00000  -0.00079  -0.00079   1.96810
    A4        1.83430  -0.00002   0.00000   0.00041   0.00041   1.83472
    A5        2.01802   0.00002   0.00000   0.00006   0.00006   2.01808
    A6        1.97057   0.00007   0.00000   0.00078   0.00078   1.97135
    A7        2.46524  -0.00004   0.00000  -0.00016  -0.00016   2.46508
    A8        2.58826   0.00001   0.00000   0.00005   0.00005   2.58831
    A9        2.35483   0.00000   0.00000   0.00002   0.00002   2.35485
   A10        2.86714   0.00018   0.00000   0.00000   0.00000   2.86714
   A11        1.91978  -0.00000   0.00000  -0.00001  -0.00001   1.91976
   A12        1.91546  -0.00000   0.00000  -0.00002  -0.00002   1.91544
   A13        1.95201  -0.00000   0.00000  -0.00002  -0.00002   1.95199
   A14        2.00708   0.00000   0.00000   0.00002   0.00002   2.00710
   A15        1.88610   0.00001   0.00000   0.00005   0.00005   1.88615
[...]
 Alpha virt. eigenvalues --    3.52919   3.54273   3.60312   3.61055   3.62067
 Alpha virt. eigenvalues --    3.66207   4.30783   4.59103   7.88416  31.29161
          Condensed to atoms (all electrons):
               1          2          3          4          5          6
     1  Zr  15.098178  -0.140754  -0.002271  -0.142776  -0.197021  -0.574703
     2  O   -0.140754   9.072382   0.019723  -0.042404  -0.057644   0.091774
     3  O   -0.002271   0.019723   8.830110   0.014824  -0.042635  -0.005222
     4  O   -0.142776  -0.042404   0.014824   8.813797  -0.059029  -0.674007
     5  O   -0.197021  -0.057644  -0.042635  -0.059029   9.437440  -0.006101
     6  Si  -0.574703   0.091774  -0.005222  -0.674007  -0.006101  13.963983
     7  Si  -0.618121  -0.027795  -0.877310  -0.005938  -0.033456   0.084340
     8  Si  -0.565030  -1.002160  -0.020910   0.073437  -0.013777  -0.026206
     9  Si  -0.325080  -0.041778  -0.026809  -0.034183  -1.256928   0.037894
    10  O   -0.011420   0.001017  -0.002096   0.001130   0.131573  -0.002497
    11  O   -0.061010   0.003706   0.002920   0.001151   0.315465  -0.000899
    12  O    0.037989   0.000024   0.004728   0.002157   0.162625  -0.002762
    13  O   -0.045507   0.189182   0.001694  -0.015730  -0.000655   0.037859
    14  O   -0.024183   0.265705  -0.017309  -0.008887   0.002016   0.030649
    15  O   -0.080025   0.292090  -0.000730   0.001251   0.000556  -0.000872
    16  O   -0.127529   0.004662  -0.000476   0.344643   0.003161  -0.420813
    17  O   -0.080900  -0.040168   0.007617   0.220601   0.001255  -0.455392
    18  O   -0.028306  -0.014177   0.003723   0.199146  -0.000587  -0.451097
    19  O   -0.001568   0.009196   0.263475   0.010023   0.002109  -0.006618
    20  O   -0.145995  -0.000571   0.163879  -0.000883   0.001438   0.008978
    21  O    0.034893   0.010712   0.147069   0.003340   0.000245  -0.011551
    22  H   -0.008925  -0.000019  -0.000020  -0.000010   0.005734   0.000084
    23  H   -0.007633  -0.000013  -0.000006  -0.000056  -0.025234   0.000074
    24  H   -0.005189  -0.000208  -0.000010   0.000001  -0.005551   0.000051
    25  H    0.017868  -0.020191  -0.000112  -0.000260   0.000019   0.002278
    26  H    0.007297   0.000540   0.000015  -0.000012  -0.000004  -0.000132
    27  H    0.005868  -0.019416   0.000846  -0.001716   0.000009   0.008297
    28  H    0.005131  -0.000011  -0.018477  -0.000014  -0.000016  -0.000283
    29  H    0.004631  -0.007116  -0.020346  -0.000141  -0.000074   0.000109
    30  H    0.000823  -0.000013   0.000110  -0.000450  -0.000008  -0.000713
    31  H   -0.000092   0.000169  -0.000019  -0.018424  -0.000008   0.063653
    32  H    0.001997  -0.000023   0.000039   0.010392   0.000001   0.023021
    33  H   -0.016304   0.001013  -0.010063  -0.009584  -0.000101   0.053450
               7          8          9         10         11         12
     1  Zr  -0.618121  -0.565030  -0.325080  -0.011420  -0.061010   0.037989
     2  O   -0.027795  -1.002160  -0.041778   0.001017   0.003706   0.000024
     3  O   -0.877310  -0.020910  -0.026809  -0.002096   0.002920   0.004728
     4  O   -0.005938   0.073437  -0.034183   0.001130   0.001151   0.002157
     5  O   -0.033456  -0.013777  -1.256928   0.131573   0.315465   0.162625
     6  Si   0.084340  -0.026206   0.037894  -0.002497  -0.000899  -0.002762
     7  Si  13.797264   0.181908   0.020600  -0.000274  -0.000759   0.004230
     8  Si   0.181908  13.792408   0.025526  -0.000883   0.001100  -0.000494
     9  Si   0.020600   0.025526  14.319514  -0.075650  -0.189333  -0.223514
    10  O   -0.000274  -0.000883  -0.075650   8.526218   0.015627   0.032810
    11  O   -0.000759   0.001100  -0.189333   0.015627   8.518710  -0.050116
    12  O    0.004230  -0.000494  -0.223514   0.032810  -0.050116   8.602165
    13  O    0.007590  -0.094068   0.000342   0.000000   0.000018   0.000010
    14  O    0.009917  -0.369421  -0.001438  -0.000002   0.000001   0.000018
    15  O   -0.002919  -0.305158  -0.000718   0.000000  -0.000025  -0.000019
    16  O    0.003854  -0.009872  -0.000987   0.000004  -0.000002  -0.000001
    17  O   -0.000725   0.096931   0.002553  -0.000002   0.000001  -0.000006
    18  O   -0.000561   0.074125   0.004259  -0.000003  -0.000002  -0.000001
    19  O   -0.405964  -0.015621   0.001068   0.000007  -0.000002  -0.000015
    20  O   -0.108053   0.009739   0.003217   0.000000  -0.000003  -0.000018
    21  O    0.023492  -0.040162  -0.001914   0.000002   0.000001   0.000029
    22  H   -0.000213   0.000084   0.047215  -0.006646  -0.005132   0.220016
    23  H    0.000061   0.000064   0.081022   0.228543  -0.006243   0.005924
    24  H    0.000061  -0.000113   0.037482   0.007343   0.242408  -0.007480
    25  H   -0.000481   0.057341  -0.000216   0.000000  -0.000000  -0.000000
    26  H   -0.000372   0.046042  -0.000042  -0.000000   0.000000  -0.000000
    27  H    0.001148   0.068160  -0.000016   0.000000  -0.000000  -0.000000
    28  H    0.056670  -0.000082  -0.000131  -0.000000  -0.000000  -0.000004
    29  H    0.048095   0.021741  -0.000055   0.000000   0.000000  -0.000001
    30  H    0.040176   0.000091   0.000025  -0.000000  -0.000000   0.000000
    31  H    0.000154  -0.001948  -0.000053   0.000000  -0.000000  -0.000000
    32  H   -0.000654   0.000053   0.000002  -0.000000   0.000000   0.000000
    33  H    0.020633   0.000156   0.000079  -0.000000   0.000000   0.000000
              13         14         15         16         17         18
     1  Zr  -0.045507  -0.024183  -0.080025  -0.127529  -0.080900  -0.028306
     2  O    0.189182   0.265705   0.292090   0.004662  -0.040168  -0.014177
     3  O    0.001694  -0.017309  -0.000730  -0.000476   0.007617   0.003723
     4  O   -0.015730  -0.008887   0.001251   0.344643   0.220601   0.199146
     5  O   -0.000655   0.002016   0.000556   0.003161   0.001255  -0.000587
     6  Si   0.037859   0.030649  -0.000872  -0.420813  -0.455392  -0.451097
     7  Si   0.007590   0.009917  -0.002919   0.003854  -0.000725  -0.000561
     8  Si  -0.094068  -0.369421  -0.305158  -0.009872   0.096931   0.074125
     9  Si   0.000342  -0.001438  -0.000718  -0.000987   0.002553   0.004259
    10  O    0.000000  -0.000002   0.000000   0.000004  -0.000002  -0.000003
    11  O    0.000018   0.000001  -0.000025  -0.000002   0.000001  -0.000002
    12  O    0.000010   0.000018  -0.000019  -0.000001  -0.000006  -0.000001
    13  O    8.629983   0.087483  -0.090776   0.003727  -0.030889  -0.045409
    14  O    0.087483   8.677076   0.055304   0.003679  -0.035943  -0.026850
    15  O   -0.090776   0.055304   8.776017  -0.000174   0.003590   0.001661
    16  O    0.003727   0.003679  -0.000174   8.902170  -0.091536  -0.115329
    17  O   -0.030889  -0.035943   0.003590  -0.091536   8.935968   0.227792
    18  O   -0.045409  -0.026850   0.001661  -0.115329   0.227792   9.014223
    19  O    0.000196  -0.000276   0.000137  -0.001608  -0.030113   0.000190
    20  O    0.000008  -0.000233   0.000039   0.000064  -0.001006   0.000015
    21  O   -0.000251   0.016205  -0.000592  -0.000213  -0.005530   0.000472
    22  H   -0.000000   0.000000  -0.000000   0.000000   0.000000  -0.000000
    23  H    0.000000   0.000000  -0.000000  -0.000000   0.000000  -0.000000
    24  H   -0.000000   0.000000   0.000002   0.000000  -0.000000  -0.000000
    25  H    0.218122  -0.011991   0.008915  -0.000048   0.000627   0.014829
    26  H   -0.005153  -0.010061   0.217193   0.000000  -0.000003   0.000006
    27  H   -0.009825   0.219034   0.004630   0.000184   0.017912  -0.000265
    28  H   -0.000000  -0.000005  -0.000001  -0.000000   0.000004  -0.000000
    29  H    0.000791   0.017577  -0.002563  -0.000004  -0.000394   0.000006
    30  H    0.000001  -0.000002   0.000000   0.000116  -0.000395  -0.000007
    31  H    0.002356   0.000164  -0.000018   0.003832  -0.000770   0.218124
    32  H   -0.000008  -0.000006   0.000000   0.233347  -0.003640   0.003886
    33  H    0.000230   0.002071  -0.000035  -0.000136   0.231060   0.002109
              19         20         21         22         23         24
     1  Zr  -0.001568  -0.145995   0.034893  -0.008925  -0.007633  -0.005189
     2  O    0.009196  -0.000571   0.010712  -0.000019  -0.000013  -0.000208
     3  O    0.263475   0.163879   0.147069  -0.000020  -0.000006  -0.000010
     4  O    0.010023  -0.000883   0.003340  -0.000010  -0.000056   0.000001
     5  O    0.002109   0.001438   0.000245   0.005734  -0.025234  -0.005551
     6  Si  -0.006618   0.008978  -0.011551   0.000084   0.000074   0.000051
     7  Si  -0.405964  -0.108053   0.023492  -0.000213   0.000061   0.000061
     8  Si  -0.015621   0.009739  -0.040162   0.000084   0.000064  -0.000113
     9  Si   0.001068   0.003217  -0.001914   0.047215   0.081022   0.037482
    10  O    0.000007   0.000000   0.000002  -0.006646   0.228543   0.007343
    11  O   -0.000002  -0.000003   0.000001  -0.005132  -0.006243   0.242408
    12  O   -0.000015  -0.000018   0.000029   0.220016   0.005924  -0.007480
    13  O    0.000196   0.000008  -0.000251  -0.000000   0.000000  -0.000000
    14  O   -0.000276  -0.000233   0.016205   0.000000   0.000000   0.000000
    15  O    0.000137   0.000039  -0.000592  -0.000000  -0.000000   0.000002
    16  O   -0.001608   0.000064  -0.000213   0.000000  -0.000000   0.000000
    17  O   -0.030113  -0.001006  -0.005530   0.000000   0.000000  -0.000000
    18  O    0.000190   0.000015   0.000472  -0.000000  -0.000000  -0.000000
    19  O    8.872135   0.032024   0.023784  -0.000000   0.000000  -0.000000
    20  O    0.032024   8.656275  -0.050462   0.000001   0.000000  -0.000000
    21  O    0.023784  -0.050462   8.486026  -0.000000   0.000000   0.000000
    22  H   -0.000000   0.000001  -0.000000   0.361579   0.000056   0.000121
    23  H    0.000000   0.000000   0.000000   0.000056   0.351043   0.000013
    24  H   -0.000000  -0.000000   0.000000   0.000121   0.000013   0.364976
    25  H   -0.000025   0.000000  -0.000019   0.000000   0.000000   0.000000
    26  H    0.000001  -0.000000   0.000039  -0.000000  -0.000000  -0.000000
    27  H    0.000025   0.000192  -0.004035  -0.000000  -0.000000   0.000000
    28  H    0.004613   0.229615  -0.002089  -0.000000   0.000000  -0.000000
    29  H   -0.008572   0.007669   0.206454   0.000000   0.000000  -0.000000
    30  H    0.224245  -0.001471  -0.007139   0.000000   0.000000  -0.000000
    31  H    0.000004  -0.000000  -0.000000  -0.000000  -0.000000   0.000000
    32  H    0.000098  -0.000000   0.000001  -0.000000  -0.000000  -0.000000
    33  H    0.014882  -0.000078   0.001455  -0.000000  -0.000000  -0.000000
              25         26         27         28         29         30
     1  Zr   0.017868   0.007297   0.005868   0.005131   0.004631   0.000823
     2  O   -0.020191   0.000540  -0.019416  -0.000011  -0.007116  -0.000013
     3  O   -0.000112   0.000015   0.000846  -0.018477  -0.020346   0.000110
     4  O   -0.000260  -0.000012  -0.001716  -0.000014  -0.000141  -0.000450
     5  O    0.000019  -0.000004   0.000009  -0.000016  -0.000074  -0.000008
     6  Si   0.002278  -0.000132   0.008297  -0.000283   0.000109  -0.000713
     7  Si  -0.000481  -0.000372   0.001148   0.056670   0.048095   0.040176
     8  Si   0.057341   0.046042   0.068160  -0.000082   0.021741   0.000091
     9  Si  -0.000216  -0.000042  -0.000016  -0.000131  -0.000055   0.000025
    10  O    0.000000  -0.000000   0.000000  -0.000000   0.000000  -0.000000
    11  O   -0.000000   0.000000  -0.000000  -0.000000   0.000000  -0.000000
    12  O   -0.000000  -0.000000  -0.000000  -0.000004  -0.000001   0.000000
    13  O    0.218122  -0.005153  -0.009825  -0.000000   0.000791   0.000001
    14  O   -0.011991  -0.010061   0.219034  -0.000005   0.017577  -0.000002
    15  O    0.008915   0.217193   0.004630  -0.000001  -0.002563   0.000000
    16  O   -0.000048   0.000000   0.000184  -0.000000  -0.000004   0.000116
    17  O    0.000627  -0.000003   0.017912   0.000004  -0.000394  -0.000395
    18  O    0.014829   0.000006  -0.000265  -0.000000   0.000006  -0.000007
    19  O   -0.000025   0.000001   0.000025   0.004613  -0.008572   0.224245
    20  O    0.000000  -0.000000   0.000192   0.229615   0.007669  -0.001471
    21  O   -0.000019   0.000039  -0.004035  -0.002089   0.206454  -0.007139
    22  H    0.000000  -0.000000  -0.000000  -0.000000   0.000000   0.000000
    23  H    0.000000  -0.000000  -0.000000   0.000000   0.000000   0.000000
    24  H    0.000000  -0.000000   0.000000  -0.000000  -0.000000  -0.000000
    25  H    0.298871  -0.000012   0.000115   0.000000   0.000001   0.000000
    26  H   -0.000012   0.365929   0.000036   0.000000   0.000021  -0.000000
    27  H    0.000115   0.000036   0.283391  -0.000000  -0.001493   0.000010
    28  H    0.000000   0.000000  -0.000000   0.349199  -0.000017  -0.000016
    29  H    0.000001   0.000021  -0.001493  -0.000017   0.285970   0.000155
    30  H    0.000000  -0.000000   0.000010  -0.000016   0.000155   0.334221
    31  H   -0.000495   0.000000   0.000013  -0.000000   0.000000  -0.000000
    32  H   -0.000001   0.000000  -0.000000   0.000000  -0.000000  -0.000000
    33  H    0.000006  -0.000000  -0.002413  -0.000002   0.000100  -0.001146
              31         32         33
     1  Zr  -0.000092   0.001997  -0.016304
     2  O    0.000169  -0.000023   0.001013
     3  O   -0.000019   0.000039  -0.010063
     4  O   -0.018424   0.010392  -0.009584
     5  O   -0.000008   0.000001  -0.000101
     6  Si   0.063653   0.023021   0.053450
     7  Si   0.000154  -0.000654   0.020633
     8  Si  -0.001948   0.000053   0.000156
     9  Si  -0.000053   0.000002   0.000079
    10  O    0.000000  -0.000000  -0.000000
    11  O   -0.000000   0.000000   0.000000
    12  O   -0.000000   0.000000   0.000000
    13  O    0.002356  -0.000008   0.000230
    14  O    0.000164  -0.000006   0.002071
    15  O   -0.000018   0.000000  -0.000035
    16  O    0.003832   0.233347  -0.000136
    17  O   -0.000770  -0.003640   0.231060
    18  O    0.218124   0.003886   0.002109
    19  O    0.000004   0.000098   0.014882
    20  O   -0.000000  -0.000000  -0.000078
    21  O   -0.000000   0.000001   0.001455
    22  H   -0.000000  -0.000000  -0.000000
    23  H   -0.000000  -0.000000  -0.000000
    24  H    0.000000  -0.000000  -0.000000
    25  H   -0.000495  -0.000001   0.000006
    26  H    0.000000   0.000000  -0.000000
    27  H    0.000013  -0.000000  -0.002413
    28  H   -0.000000   0.000000  -0.000002
    29  H    0.000000  -0.000000   0.000100
    30  H   -0.000000  -0.000000  -0.001146
    31  H    0.331385   0.000000  -0.000038
    32  H    0.000000   0.349905   0.000157
    33  H   -0.000038   0.000157   0.269296
 Mulliken charges:
               1
     1  Zr  -0.004333
     2  O   -0.547436
     3  O   -0.415946
     4  O   -0.681389
     5  O   -0.364819
     6  Si   2.233371
     7  Si   1.783403
     8  Si   2.017000
     9  Si   1.598044
    10  O   -0.844802
    11  O   -0.787584
    12  O   -0.788295
    13  O   -0.841319
    14  O   -0.880290
    15  O   -0.876760
    16  O   -0.734714
    17  O   -0.968498
    18  O   -1.081970
    19  O   -0.987827
    20  O   -0.804380
    21  O   -0.830260
    22  H    0.386075
    23  H    0.372384
    24  H    0.366092
    25  H    0.414859
    26  H    0.378672
    27  H    0.429311
    28  H    0.375915
    29  H    0.447457
    30  H    0.411388
    31  H    0.402012
    32  H    0.381434
    33  H    0.443205
 Sum of Mulliken charges =  -0.00000
 Mulliken charges with hydrogens summed into heavy atoms:
               1
     1  Zr  -0.004333
     2  O   -0.547436
     3  O   -0.415946
     4  O   -0.681389
     5  O   -0.364819
     6  Si   2.233371
     7  Si   1.783403
     8  Si   2.017000
     9  Si   1.598044
    10  O   -0.472417
    11  O   -0.421493
    12  O   -0.402219
    13  O   -0.426459
    14  O   -0.450979
    15  O   -0.498088
    16  O   -0.353280
    17  O   -0.525293
    18  O   -0.679959
    19  O   -0.576439
    20  O   -0.428465
    21  O   -0.382804
 Electronic spatial extent (au):  <R**2>=           9869.6224
 Charge=             -0.0000 electrons
 Dipole moment (field-independent basis, Debye):
    X=              1.0923    Y=             -0.7446    Z=             -2.3370  Tot=              2.6850
 Quadrupole moment (field-independent basis, Debye-Ang):
   XX=           -160.2593   YY=           -154.5785   ZZ=           -157.8996
   XY=             -4.7696   XZ=              2.3726   YZ=              5.7436
 Traceless Quadrupole moment (field-independent basis, Debye-Ang):
   XX=             -2.6802   YY=              3.0006   ZZ=             -0.3204
   XY=             -4.7696   XZ=              2.3726   YZ=              5.7436
 Octapole moment (field-independent basis, Debye-Ang**2):
  XXX=             73.9851  YYY=              6.8631  ZZZ=            -15.5514  XYY=             -0.6842
  XXY=             20.4626  XXZ=             18.7879  XZZ=              4.1688  YZZ=            -16.9854
  YYZ=            -17.9812  XYZ=             28.1471
 Hexadecapole moment (field-independent basis, Debye-Ang**3):
 XXXX=          -6033.3070 YYYY=          -2835.1386 ZZZZ=          -2264.4704 XXXY=             60.1906
 XXXZ=            -35.5220 YYYX=              5.6192 YYYZ=            220.3286 ZZZX=           -170.1774
 ZZZY=            -57.2297 XXYY=          -1473.0548 XXZZ=          -1372.7172 YYZZ=           -923.6536
 XXYZ=             -8.0707 YYXZ=            119.9881 ZZXY=            -62.4547
 N-N= 2.832864947283D+03 E-N=-1.137833079323D+04  KE= 2.373154879358D+03
 1\1\GINC-GRA1319\FOpt\RB3LYP\Gen\H12O16Si4Zr1\SARASHS\14-Aug-2020\0\\#
 n B3LYP/Gen Pseudo=cards EmpiricalDispersion=GD3 Opt=modredundant\\Tit
 le\\0,1\Zr,0.6577534523,-0.1250698099,-0.0755434004\O,-0.2209426146,-0
 .9053599501,1.4748769256\O,0.1025913972,1.747352009,-0.1250455526\O,-0
 .2699678257,-0.9793631295,-1.5997257652\O,2.5921311995,-0.4360430001,-
 0.0837448844\Si,-1.833292737,-1.3332012141,-1.9544255937\Si,-1.1155766
 739,2.8419010828,-0.0833875445\Si,-1.7212645785,-1.1522899607,2.113946
 7039\Si,4.217114527,-0.2539426263,-0.0188644096\O,4.9406741227,-0.2022
 029167,-1.5020107766\O,4.9078365958,-1.5451512474,0.7573331848\O,4.457
 0176154,1.1967854632,0.7293590817\O,-2.316893626,-2.6235337117,1.69584
 67945\O,-2.7225804899,0.0653995538,1.5505282098\O,-1.5933250141,-1.018
 5076974,3.7430592557\O,-2.0052299956,-1.5613292484,-3.5783014477\O,-2.
 8264861362,-0.1872638803,-1.3017599771\O,-2.3455597204,-2.7147278245,-
 1.1821636368\O,-2.0422317057,2.4400123218,-1.4297271965\O,-0.635751891
 ,4.4005964553,-0.3009432427\O,-1.9638815459,2.7610815288,1.3143038426\
 H,5.3439733341,1.5701208235,0.6802856242\H,5.2846426703,-1.0404074981,
 -1.8309999481\H,4.4803409164,-1.8587637404,1.5620378759\H,-2.404233287
 3,-2.8092047622,0.7435969121\H,-2.3768556076,-1.2231150018,4.264792217
 1\H,-3.0593032819,-0.082741503,0.6458019982\H,-0.5261239636,4.92727247
 14,0.4989715003\H,-2.2673357791,1.869516286,1.5858513485\H,-2.65050676
 64,3.1273227333,-1.7289694364\H,-2.3054951856,-3.5302479441,-1.6944014
 169\H,-1.2755115035,-1.2650867557,-4.1336695824\H,-2.6120159011,0.7540
 926935,-1.4906876636\\Version=ES64L-G16RevB.01\State=1-A\HF=-2416.9468
 521\RMSD=3.648e-09\RMSF=1.931e-05\Dipole=0.4240135,-0.2901022,-0.92300
 43\Quadrupole=-1.9554182,2.1987235,-0.2433053,-3.5285754,1.7599363,4.3
 030428\PG=C01 [X(H12O16Si4Zr1)]\\@


 The number of Unix installations has grown to 10,
  with more expected.
                  -- The Unix Programmer's Manual,
                     2nd Edition, June, 1972.
 Job cpu time:       0 days  7 hours 41 minutes 28.3 seconds.
 Elapsed time:       0 days  0 hours 35 minutes 50.6 seconds.
 File lengths (MBytes):  RWF=    167 Int=      0 D2E=      0 Chk=     21 Scr=      1
 Normal termination of Gaussian 16 at Fri Aug 14 03:35:42 2020.
