 Entering Gaussian System, Link 0=g16
 Initial command:
 /opt/software/gaussian/g16.b01/l1.exe "/localscratch/sarashs.37242623.0/Gau-32066.inp" -scrdir="/localscratch/sarashs.37242623.0/"
 Entering Link 1 = /opt/software/gaussian/g16.b01/l1.exe PID=     32067.
  
 Copyright (c) 1988-2017, Gaussian, Inc.  All Rights Reserved.
  
 This is part of the Gaussian(R) 16 program.  It is based on
 the Gaussian(R) 09 system (copyright 2009, Gaussian, Inc.),
 the Gaussian(R) 03 system (copyright 2003, Gaussian, Inc.),
 the Gaussian(R) 98 system (copyright 1998, Gaussian, Inc.),
 the Gaussian(R) 94 system (copyright 1995, Gaussian, Inc.),
 the Gaussian 92(TM) system (copyright 1992, Gaussian, Inc.),
 the Gaussian 90(TM) system (copyright 1990, Gaussian, Inc.),
 the Gaussian 88(TM) system (copyright 1988, Gaussian, Inc.),
 the Gaussian 86(TM) system (copyright 1986, Carnegie Mellon
 University), and the Gaussian 82(TM) system (copyright 1983,
 Carnegie Mellon University). Gaussian is a federally registered
 trademark of Gaussian, Inc.
  
 This software contains proprietary and confidential information,
 including trade secrets, belonging to Gaussian, Inc.
  
 This software is provided under written license and may be
 used, copied, transmitted, or stored only in accord with that
 written license.
  
 The following legend is applicable only to US Government
 contracts under FAR:
  
                    RESTRICTED RIGHTS LEGEND
  
 Use, reproduction and disclosure by the US Government is
 subject to restrictions as set forth in subparagraphs (a)
 and (c) of the Commercial Computer Software - Restricted
 Rights clause in FAR 52.227-19.
  
 Gaussian, Inc.
 340 Quinnipiac St., Bldg. 40, Wallingford CT 06492
  
  
 ---------------------------------------------------------------
 Warning -- This program may not be used in any manner that
 competes with the business of Gaussian, Inc. or will provide
 assistance to any competitor of Gaussian, Inc.  The licensee
 of this program is prohibited from giving any competitor of
 Gaussian, Inc. access to this program.  By using this program,
 the user acknowledges that Gaussian, Inc. is engaged in the
 business of creating and licensing software in the field of
 computational chemistry and represents and warrants to the
 licensee that it is not a competitor of Gaussian, Inc. and that
 it will not use this program in any manner prohibited above.
 ---------------------------------------------------------------
  

 Cite this work as:
 Gaussian 16, Revision B.01,
 M. J. Frisch, G. W. Trucks, H. B. Schlegel, G. E. Scuseria, 
 M. A. Robb, J. R. Cheeseman, G. Scalmani, V. Barone, 
 G. A. Petersson, H. Nakatsuji, X. Li, M. Caricato, A. V. Marenich, 
 J. Bloino, B. G. Janesko, R. Gomperts, B. Mennucci, H. P. Hratchian, 
 J. V. Ortiz, A. F. Izmaylov, J. L. Sonnenberg, D. Williams-Young, 
 F. Ding, F. Lipparini, F. Egidi, J. Goings, B. Peng, A. Petrone, 
 T. Henderson, D. Ranasinghe, V. G. Zakrzewski, J. Gao, N. Rega, 
 G. Zheng, W. Liang, M. Hada, M. Ehara, K. Toyota, R. Fukuda, 
 J. Hasegawa, M. Ishida, T. Nakajima, Y. Honda, O. Kitao, H. Nakai, 
 T. Vreven, K. Throssell, J. A. Montgomery, Jr., J. E. Peralta, 
 F. Ogliaro, M. J. Bearpark, J. J. Heyd, E. N. Brothers, K. N. Kudin, 
 V. N. Staroverov, T. A. Keith, R. Kobayashi, J. Normand, 
 K. Raghavachari, A. P. Rendell, J. C. Burant, S. S. Iyengar, 
 J. Tomasi, M. Cossi, J. M. Millam, M. Klene, C. Adamo, R. Cammi, 
 J. W. Ochterski, R. L. Martin, K. Morokuma, O. Farkas, 
 J. B. Foresman, and D. J. Fox, Gaussian, Inc., Wallingford CT, 2016.
 
 ******************************************
 Gaussian 16:  ES64L-G16RevB.01 20-Dec-2017
                14-Aug-2020 
 ******************************************
 %NProcShared=16
 Will use up to   16 processors via shared memory.
 ------------------------------------------------------------------
 #n B3LYP/Gen Pseudo=cards EmpiricalDispersion=GD3 Opt=modredundant
 ------------------------------------------------------------------
 1/18=120,19=15,26=3,38=1/1,3;
 2/9=110,12=2,17=6,18=5,40=1/2;
 3/5=7,11=2,16=1,17=8,25=1,30=1,71=1,74=-5,124=31/1,2,3;
 4//1;
 5/5=2,38=5/2;
 6/7=2,8=2,9=2,10=2,28=1/1;
 7//1,2,3,16;
 1/18=20,19=15,26=3/3(2);
 2/9=110/2;
 99//99;
 2/9=110/2;
 3/5=7,6=1,11=2,16=1,17=8,25=1,30=1,71=1,74=-5,82=7,124=31/1,2,3;
 4/5=5,16=3,69=1/1;
 5/5=2,38=5/2;
 7//1,2,3,16;
 1/18=20,19=15,26=3/3(-5);
 2/9=110/2;
 6/7=2,8=2,9=2,10=2,19=2,28=1/1;
 99/9=1/99;
 -----
 Title
 -----
 Symbolic Z-matrix:
 Charge =  0 Multiplicity = 1
 Zr                    0.65779  -0.12506  -0.07164 
 O                    -0.22285  -0.90624   1.4773 
 O                     0.10302   1.74748  -0.12299 
 O                    -0.2683   -0.97885  -1.59705 
 O                     2.59206  -0.4363   -0.08284 
 Si                   -1.83119  -1.33244  -1.9536 
 Si                   -1.1155    2.84172  -0.08279 
 Si                   -1.72376  -1.15291   2.11517 
 Si                    4.2159   -0.26403   0.02423 
 O                     4.96161  -0.06344  -1.43496 
 O                     4.89526  -1.62811   0.67595 
 O                     4.44379   1.10285   0.91964 
 O                    -2.31924  -2.624     1.69627 
 O                    -2.72422   0.06508   1.55086 
 O                    -1.59734  -1.01957   3.74439 
 O                    -2.00144  -1.55965  -3.57782 
 O                    -2.82509  -0.18676  -1.30145 
 O                    -2.34448  -2.71439  -1.18277 
 O                    -2.04046   2.43957  -1.43023 
 O                    -0.63565   4.40049  -0.29987 
 O                    -1.96551   2.76086   1.31383 
 H                     5.3311    1.47854   0.92239 
 H                     5.31175  -0.86422  -1.84151 
 H                     4.45682  -2.01965   1.43957 
 H                    -2.40577  -2.80951   0.74392 
 H                    -2.38137  -1.22423   4.26535 
 H                    -3.06034  -0.08306   0.64589 
 H                    -0.52731   4.92728   0.50015 
 H                    -2.26909   1.86932   1.58533 
 H                    -2.64854   3.12676  -1.73014 
 H                    -2.30452  -3.52952  -1.69562 
 H                    -1.27114  -1.26305  -4.13223 
 H                    -2.61026   0.75461  -1.48993 
 
 The following ModRedundant input section has been read:
 A       1       5       9 F                                                   
 D       1       5       9      12 F                                           
 D       3       1       5       9 F                                           
 

 GradGradGradGradGradGradGradGradGradGradGradGradGradGradGradGradGradGrad
 Berny optimization.
 Initialization pass.
                           ----------------------------
                           !    Initial Parameters    !
                           ! (Angstroms and Degrees)  !
 --------------------------                            --------------------------
 ! Name  Definition              Value          Derivative Info.                !
 --------------------------------------------------------------------------------
 ! R1    R(1,2)                  1.9455         estimate D2E/DX2                !
 ! R2    R(1,3)                  1.9537         estimate D2E/DX2                !
 ! R3    R(1,4)                  1.9783         estimate D2E/DX2                !
 ! R4    R(1,5)                  1.9592         estimate D2E/DX2                !
 ! R5    R(2,8)                  1.6494         estimate D2E/DX2                !
 ! R6    R(3,7)                  1.6382         estimate D2E/DX2                !
 ! R7    R(4,6)                  1.6416         estimate D2E/DX2                !
 ! R8    R(5,9)                  1.6365         estimate D2E/DX2                !
 ! R9    R(6,16)                 1.6488         estimate D2E/DX2                !
 ! R10   R(6,17)                 1.651          estimate D2E/DX2                !
 ! R11   R(6,18)                 1.6636         estimate D2E/DX2                !
 ! R12   R(7,19)                 1.6831         estimate D2E/DX2                !
 ! R13   R(7,20)                 1.6453         estimate D2E/DX2                !
 ! R14   R(7,21)                 1.6369         estimate D2E/DX2                !
 ! R15   R(8,13)                 1.6414         estimate D2E/DX2                !
 ! R16   R(8,14)                 1.6742         estimate D2E/DX2                !
 ! R17   R(8,15)                 1.6395         estimate D2E/DX2                !
 ! R18   R(9,10)                 1.6509         estimate D2E/DX2                !
 ! R19   R(9,11)                 1.6574         estimate D2E/DX2                !
 ! R20   R(9,12)                 1.6499         estimate D2E/DX2                !
 ! R21   R(10,23)                0.9639         estimate D2E/DX2                !
 ! R22   R(11,24)                0.9637         estimate D2E/DX2                !
 ! R23   R(12,22)                0.9636         estimate D2E/DX2                !
 ! R24   R(13,25)                0.9741         estimate D2E/DX2                !
 ! R25   R(14,27)                0.9767         estimate D2E/DX2                !
 ! R26   R(15,26)                0.9633         estimate D2E/DX2                !
 ! R27   R(16,32)                0.9637         estimate D2E/DX2                !
 ! R28   R(17,33)                0.9838         estimate D2E/DX2                !
 ! R29   R(18,31)                0.9639         estimate D2E/DX2                !
 ! R30   R(19,30)                0.9654         estimate D2E/DX2                !
 ! R31   R(20,28)                0.964          estimate D2E/DX2                !
 ! R32   R(21,29)                0.9802         estimate D2E/DX2                !
 ! A1    A(2,1,3)              106.0959         estimate D2E/DX2                !
 ! A2    A(2,1,4)              103.2214         estimate D2E/DX2                !
 ! A3    A(2,1,5)              112.8091         estimate D2E/DX2                !
 ! A4    A(3,1,4)              105.0977         estimate D2E/DX2                !
 ! A5    A(3,1,5)              115.6243         estimate D2E/DX2                !
 ! A6    A(4,1,5)              112.9055         estimate D2E/DX2                !
 ! A7    A(1,2,8)              141.2479         estimate D2E/DX2                !
 ! A8    A(1,3,7)              148.2962         estimate D2E/DX2                !
 ! A9    A(1,4,6)              134.9216         estimate D2E/DX2                !
 ! A10   A(1,5,9)              164.275          Frozen                          !
 ! A11   A(4,6,16)             109.9952         estimate D2E/DX2                !
 ! A12   A(4,6,17)             109.7479         estimate D2E/DX2                !
 ! A13   A(4,6,18)             111.8422         estimate D2E/DX2                !
 ! A14   A(16,6,17)            114.9972         estimate D2E/DX2                !
 ! A15   A(16,6,18)            108.0658         estimate D2E/DX2                !
 ! A16   A(17,6,18)            101.9869         estimate D2E/DX2                !
 ! A17   A(3,7,19)             103.269          estimate D2E/DX2                !
 ! A18   A(3,7,20)             114.3706         estimate D2E/DX2                !
 ! A19   A(3,7,21)             111.9733         estimate D2E/DX2                !
 ! A20   A(19,7,20)            106.3205         estimate D2E/DX2                !
 ! A21   A(19,7,21)            112.6973         estimate D2E/DX2                !
 ! A22   A(20,7,21)            108.1076         estimate D2E/DX2                !
 ! A23   A(2,8,13)             111.4365         estimate D2E/DX2                !
 ! A24   A(2,8,14)             107.7362         estimate D2E/DX2                !
 ! A25   A(2,8,15)             107.5759         estimate D2E/DX2                !
 ! A26   A(13,8,14)            110.4391         estimate D2E/DX2                !
 ! A27   A(13,8,15)            110.7606         estimate D2E/DX2                !
 ! A28   A(14,8,15)            108.7751         estimate D2E/DX2                !
 ! A29   A(5,9,10)             113.7765         estimate D2E/DX2                !
 ! A30   A(5,9,11)             110.2319         estimate D2E/DX2                !
 ! A31   A(5,9,12)             105.0573         estimate D2E/DX2                !
 ! A32   A(10,9,11)            105.2127         estimate D2E/DX2                !
 ! A33   A(10,9,12)            108.4595         estimate D2E/DX2                !
 ! A34   A(11,9,12)            114.3201         estimate D2E/DX2                !
 ! A35   A(9,10,23)            115.8441         estimate D2E/DX2                !
 ! A36   A(9,11,24)            117.3547         estimate D2E/DX2                !
 ! A37   A(9,12,22)            116.8568         estimate D2E/DX2                !
 ! A38   A(8,13,25)            116.8991         estimate D2E/DX2                !
 ! A39   A(8,14,27)            114.056          estimate D2E/DX2                !
 ! A40   A(8,15,26)            117.2166         estimate D2E/DX2                !
 ! A41   A(6,16,32)            116.4907         estimate D2E/DX2                !
 ! A42   A(6,17,33)            117.1859         estimate D2E/DX2                !
 ! A43   A(6,18,31)            116.3076         estimate D2E/DX2                !
 ! A44   A(7,19,30)            115.1373         estimate D2E/DX2                !
 ! A45   A(7,20,28)            116.1676         estimate D2E/DX2                !
 ! A46   A(7,21,29)            116.2372         estimate D2E/DX2                !
 ! D1    D(3,1,2,8)             57.7292         estimate D2E/DX2                !
 ! D2    D(4,1,2,8)            -52.5301         estimate D2E/DX2                !
 ! D3    D(5,1,2,8)           -174.7067         estimate D2E/DX2                !
 ! D4    D(2,1,3,7)            -50.098          estimate D2E/DX2                !
 ! D5    D(4,1,3,7)             58.8315         estimate D2E/DX2                !
 ! D6    D(5,1,3,7)           -175.9641         estimate D2E/DX2                !
 ! D7    D(2,1,4,6)             42.7683         estimate D2E/DX2                !
 ! D8    D(3,1,4,6)            -68.2312         estimate D2E/DX2                !
 ! D9    D(5,1,4,6)            164.8802         estimate D2E/DX2                !
 ! D10   D(2,1,5,9)           -105.3633         estimate D2E/DX2                !
 ! D11   D(3,1,5,9)             16.9999         Frozen                          !
 ! D12   D(4,1,5,9)            138.0821         estimate D2E/DX2                !
 ! D13   D(1,2,8,13)            93.5308         estimate D2E/DX2                !
 ! D14   D(1,2,8,14)           -27.7655         estimate D2E/DX2                !
 ! D15   D(1,2,8,15)          -144.8802         estimate D2E/DX2                !
 ! D16   D(1,3,7,19)           -61.1012         estimate D2E/DX2                !
 ! D17   D(1,3,7,20)          -176.1751         estimate D2E/DX2                !
 ! D18   D(1,3,7,21)            60.409          estimate D2E/DX2                !
 ! D19   D(1,4,6,16)           160.167          estimate D2E/DX2                !
 ! D20   D(1,4,6,17)            32.6925         estimate D2E/DX2                !
 ! D21   D(1,4,6,18)           -79.742          estimate D2E/DX2                !
 ! D22   D(1,5,9,10)          -100.1291         estimate D2E/DX2                !
 ! D23   D(1,5,9,11)           141.9683         estimate D2E/DX2                !
 ! D24   D(1,5,9,12)            18.3491         Frozen                          !
 ! D25   D(4,6,16,32)          -14.1998         estimate D2E/DX2                !
 ! D26   D(17,6,16,32)         110.2979         estimate D2E/DX2                !
 ! D27   D(18,6,16,32)        -136.5531         estimate D2E/DX2                !
 ! D28   D(4,6,17,33)           51.0095         estimate D2E/DX2                !
 ! D29   D(16,6,17,33)         -73.6179         estimate D2E/DX2                !
 ! D30   D(18,6,17,33)         169.7166         estimate D2E/DX2                !
 ! D31   D(4,6,18,31)          -96.4424         estimate D2E/DX2                !
 ! D32   D(16,6,18,31)          24.7715         estimate D2E/DX2                !
 ! D33   D(17,6,18,31)         146.349          estimate D2E/DX2                !
 ! D34   D(3,7,19,30)         -162.1837         estimate D2E/DX2                !
 ! D35   D(20,7,19,30)         -41.4662         estimate D2E/DX2                !
 ! D36   D(21,7,19,30)          76.796          estimate D2E/DX2                !
 ! D37   D(3,7,20,28)          -98.427          estimate D2E/DX2                !
 ! D38   D(19,7,20,28)         148.2947         estimate D2E/DX2                !
 ! D39   D(21,7,20,28)          27.0455         estimate D2E/DX2                !
 ! D40   D(3,7,21,29)          -49.8995         estimate D2E/DX2                !
 ! D41   D(19,7,21,29)          66.0156         estimate D2E/DX2                !
 ! D42   D(20,7,21,29)        -176.7753         estimate D2E/DX2                !
 ! D43   D(2,8,13,25)          -58.468          estimate D2E/DX2                !
 ! D44   D(14,8,13,25)          61.2404         estimate D2E/DX2                !
 ! D45   D(15,8,13,25)        -178.1888         estimate D2E/DX2                !
 ! D46   D(2,8,14,27)           80.2918         estimate D2E/DX2                !
 ! D47   D(13,8,14,27)         -41.6247         estimate D2E/DX2                !
 ! D48   D(15,8,14,27)        -163.3756         estimate D2E/DX2                !
 ! D49   D(2,8,15,26)         -174.1994         estimate D2E/DX2                !
 ! D50   D(13,8,15,26)         -52.1897         estimate D2E/DX2                !
 ! D51   D(14,8,15,26)          69.3652         estimate D2E/DX2                !
 ! D52   D(5,9,10,23)          -94.8509         estimate D2E/DX2                !
 ! D53   D(11,9,10,23)          25.9076         estimate D2E/DX2                !
 ! D54   D(12,9,10,23)         148.6399         estimate D2E/DX2                !
 ! D55   D(5,9,11,24)          -43.8205         estimate D2E/DX2                !
 ! D56   D(10,9,11,24)        -166.8799         estimate D2E/DX2                !
 ! D57   D(12,9,11,24)          74.2396         estimate D2E/DX2                !
 ! D58   D(5,9,12,22)         -166.4773         estimate D2E/DX2                !
 ! D59   D(10,9,12,22)         -44.475          estimate D2E/DX2                !
 ! D60   D(11,9,12,22)          72.5538         estimate D2E/DX2                !
 --------------------------------------------------------------------------------
 Trust Radius=3.00D-01 FncErr=1.00D-07 GrdErr=1.00D-06 EigMax=2.50D+02 EigMin=1.00D-04
 Number of steps in this run=    148 maximum allowed number of steps=    198.
 GradGradGradGradGradGradGradGradGradGradGradGradGradGradGradGradGradGrad

                          Input orientation:                          
 ---------------------------------------------------------------------
 Center     Atomic      Atomic             Coordinates (Angstroms)
 Number     Number       Type             X           Y           Z
 ---------------------------------------------------------------------
      1         40           0        0.657790   -0.125060   -0.071640
      2          8           0       -0.222850   -0.906240    1.477300
      3          8           0        0.103020    1.747480   -0.122990
      4          8           0       -0.268300   -0.978850   -1.597050
      5          8           0        2.592060   -0.436300   -0.082840
      6         14           0       -1.831190   -1.332440   -1.953600
      7         14           0       -1.115500    2.841720   -0.082790
      8         14           0       -1.723760   -1.152910    2.115170
      9         14           0        4.215900   -0.264030    0.024230
     10          8           0        4.961610   -0.063440   -1.434960
     11          8           0        4.895260   -1.628110    0.675950
     12          8           0        4.443790    1.102850    0.919640
     13          8           0       -2.319240   -2.624000    1.696270
     14          8           0       -2.724220    0.065080    1.550860
     15          8           0       -1.597340   -1.019570    3.744390
     16          8           0       -2.001440   -1.559650   -3.577820
     17          8           0       -2.825090   -0.186760   -1.301450
     18          8           0       -2.344480   -2.714390   -1.182770
     19          8           0       -2.040460    2.439570   -1.430230
     20          8           0       -0.635650    4.400490   -0.299870
     21          8           0       -1.965510    2.760860    1.313830
     22          1           0        5.331100    1.478540    0.922390
     23          1           0        5.311750   -0.864220   -1.841510
     24          1           0        4.456820   -2.019650    1.439570
     25          1           0       -2.405770   -2.809510    0.743920
     26          1           0       -2.381370   -1.224230    4.265350
     27          1           0       -3.060340   -0.083060    0.645890
     28          1           0       -0.527310    4.927280    0.500150
     29          1           0       -2.269090    1.869320    1.585330
     30          1           0       -2.648540    3.126760   -1.730140
     31          1           0       -2.304520   -3.529520   -1.695620
     32          1           0       -1.271140   -1.263050   -4.132230
     33          1           0       -2.610260    0.754610   -1.489930
 ---------------------------------------------------------------------
                    Distance matrix (angstroms):
                    1          2          3          4          5
     1  Zr   0.000000
     2  O    1.945504   0.000000
     3  O    1.953666   3.115983   0.000000
     4  O    1.978251   3.075543   3.121475   0.000000
     5  O    1.959183   3.252476   3.311469   3.281593   0.000000
     6  Si   3.345827   3.813067   4.071635   1.641578   4.885484
     7  Si   3.456366   4.156670   1.638221   4.196128   4.948880
     8  Si   3.392697   1.649380   4.093745   3.991145   4.896027
     9  Si   3.562113   4.714483   4.580789   4.821573   1.636459
    10  O    4.515009   6.005847   5.348513   5.311893   2.753547
    11  O    4.557873   5.230517   5.915951   5.678945   2.702018
    12  O    4.101731   5.111258   4.510533   5.733323   2.608228
    13  O    4.270002   2.719099   5.318542   4.214123   5.663226
    14  O    3.755882   2.684348   3.691278   4.126823   5.584191
    15  O    4.521929   2.653632   5.050190   5.504452   5.704294
    16  O    4.628483   5.398571   5.225104   2.695283   5.880225
    17  O    3.694143   3.874372   3.701875   2.692947   5.558129
    18  O    4.117386   3.853141   5.198238   2.737563   5.546978
    19  O    3.962783   4.790812   2.604299   3.854086   5.616612
    20  O    4.712290   5.611606   2.759598   5.545712   5.818913
    21  O    4.138812   4.063399   2.714813   5.033803   5.739683
    22  H    5.039787   6.069717   5.338349   6.613594   3.489905
    23  H    5.033701   6.453531   6.074961   5.586578   3.266917
    24  H    4.506202   4.810449   5.965604   5.712362   2.881329
    25  H    4.154132   2.987545   5.273682   3.660633   5.594101
    26  H    5.408711   3.540275   5.853271   6.236426   6.653014
    27  H    3.786965   3.069237   3.734823   3.691708   5.710118
    28  H    5.220876   5.922624   3.301022   6.272775   6.232041
    29  H    3.910208   3.450000   2.925766   4.716225   5.632890
    30  H    4.925117   5.695325   3.472237   4.747556   6.547739
    31  H    4.796138   4.613282   6.009671   3.265245   6.012118
    32  H    4.637260   5.717784   5.198616   2.741094   5.657331
    33  H    3.669539   4.154829   3.196280   2.915671   5.519266
                    6          7          8          9         10
     6  Si   0.000000
     7  Si   4.629876   0.000000
     8  Si   4.074145   4.599791   0.000000
     9  Si   6.451404   6.170977   6.359379   0.000000
    10  O    6.929753   6.870195   7.647519   1.650926   0.000000
    11  O    7.228214   7.528898   6.790331   1.657403   2.628409
    12  O    7.318574   5.910519   6.675059   1.649865   2.678154
    13  O    3.902290   5.872660   1.641396   7.146554   8.328976
    14  O    3.877087   3.600906   1.674176   7.113661   8.246431
    15  O    5.711363   5.457933   1.639549   6.942924   8.411877
    16  O    1.648848   5.689656   5.714252   7.301282   7.437376
    17  O    1.650975   3.685040   3.717481   7.165120   7.788821
    18  O    1.663560   5.795749   3.701340   7.106314   7.776251
    19  O    3.813892   1.683113   5.057279   6.968999   7.435998
    20  O    6.085279   1.645340   6.152776   6.737976   7.248753
    21  O    5.239203   1.636949   4.002272   7.001632   7.969787
    22  H    8.214093   6.665381   7.623536   2.255419   2.841008
    23  H    7.159147   7.624738   8.076946   2.245462   0.963914
    24  H    7.178087   7.549917   6.277519   2.267913   3.513473
    25  H    3.128657   5.855309   2.256056   7.130493   8.158842
    26  H    6.244177   6.086107   2.249625   7.901459   9.368048
    27  H    3.135141   3.587160   2.256060   7.304990   8.287461
    28  H    6.848729   2.243958   6.403787   7.047995   7.666823
    29  H    4.792395   2.249212   3.116406   7.003093   8.070981
    30  H    4.538993   2.268308   5.827281   7.854668   8.257051
    31  H    2.262246   6.678899   4.528540   7.492475   8.054707
    32  H    2.250533   5.768130   6.264743   6.955703   6.896485
    33  H    2.275460   2.927521   4.173878   7.065888   7.616130
                   11         12         13         14         15
    11  O    0.000000
    12  O    2.778732   0.000000
    13  O    7.354037   7.760872   0.000000
    14  O    7.854224   7.270198   2.723289   0.000000
    15  O    7.206906   6.998509   2.700024   2.694049   0.000000
    16  O    8.103315   8.298014   5.389792   5.428215   7.353213
    17  O    8.098852   7.709277   3.896453   2.865182   5.259415
    18  O    7.553058   8.066725   2.880569   3.916936   5.263795
    19  O    8.311812   7.025255   5.957555   3.872032   6.240088
    20  O    8.239369   6.177568   7.494165   5.155881   6.830662
    21  O    8.169462   6.632006   5.410000   2.810526   4.509415
    22  H    3.146739   0.963571   8.715356   8.202501   7.887174
    23  H    2.663568   3.499524   8.593295   8.772034   8.886053
    24  H    0.963664   3.165518   6.807799   7.478357   6.554785
    25  H    7.396308   7.890115   0.974101   3.002637   3.586121
    26  H    8.123808   7.949332   2.926327   3.024619   0.963321
    27  H    8.104299   7.602190   2.847614   0.976674   3.552200
    28  H    8.509307   6.286022   7.852614   5.437959   6.858213
    29  H    8.024145   6.789210   4.494969   1.861079   3.668579
    30  H    9.236178   7.837008   6.702236   4.488271   6.947485
    31  H    7.815148   8.592911   3.510712   4.861783   6.032716
    32  H    7.827921   7.986194   6.076357   6.014390   7.887131
    33  H    8.167082   7.462367   4.653125   3.120071   5.618881
                   16         17         18         19         20
    16  O    0.000000
    17  O    2.783000   0.000000
    18  O    2.680926   2.575652   0.000000
    19  O    4.539540   2.744055   5.168846   0.000000
    20  O    6.937839   5.180702   7.370287   2.663909   0.000000
    21  O    6.526587   4.033241   6.029510   2.763822   2.657243
    22  H    9.124069   8.616387   8.995937   7.797326   6.755281
    23  H    7.548586   8.182835   7.904108   8.070884   8.091069
    24  H    8.191149   7.993678   7.322364   8.386599   8.377177
    25  H    4.516976   3.352340   1.930010   5.693261   7.497128
    26  H    7.859527   5.680008   5.648358   6.780802   7.451594
    27  H    4.597968   1.964238   3.283344   3.422586   5.184188
    28  H    7.802766   5.888884   8.033022   3.493521   0.963990
    29  H    6.203837   3.587492   5.355227   3.077509   3.553720
    30  H    5.078888   3.345797   5.874615   0.965369   2.778450
    31  H    2.741336   3.405937   0.963872   5.980819   8.223035
    32  H    0.963680   3.403891   3.458000   4.647801   6.867788
    33  H    3.175806   0.983796   3.492699   1.779698   4.313672
                   21         22         23         24         25
    21  O    0.000000
    22  H    7.418766   0.000000
    23  H    8.721003   3.623264   0.000000
    24  H    8.007210   3.642688   3.582096   0.000000
    25  H    5.616729   8.847507   8.368316   6.942834   0.000000
    26  H    4.976480   8.829640   9.828908   7.441678   3.861888
    27  H    3.119724   8.539983   8.768652   7.803077   2.805637
    28  H    2.724678   6.811245   8.550992   8.601389   7.965297
    29  H    0.980162   7.639050   8.756975   7.770663   4.755849
    30  H    3.141045   8.568967   8.905422   9.328383   6.435776
    31  H    6.981447   9.499333   8.070482   7.604265   2.545589
    32  H    6.806877   8.755288   6.981469   8.026638   5.239825
    33  H    3.507394   8.331180   8.093359   8.137697   4.211277
                   26         27         28         29         30
    26  H    0.000000
    27  H    3.855355   0.000000
    28  H    7.446835   5.616136   0.000000
    29  H    4.094529   2.306602   3.682734   0.000000
    30  H    7.412718   4.014728   3.565906   3.566157   0.000000
    31  H    6.391669   4.234622   8.916129   6.317702   6.665254
    32  H    8.470742   5.236797   7.767394   6.595312   5.190154
    33  H    6.090275   2.337946   5.070530   3.288799   2.384588
                   31         32         33
    31  H    0.000000
    32  H    3.484513   0.000000
    33  H    4.299948   3.584124   0.000000
 Stoichiometry    H12O16Si4Zr
 Framework group  C1[X(H12O16Si4Zr)]
 Deg. of freedom    93
 Full point group                 C1      NOp   1
 Largest Abelian subgroup         C1      NOp   1
 Largest concise Abelian subgroup C1      NOp   1
                         Standard orientation:                         
 ---------------------------------------------------------------------
 Center     Atomic      Atomic             Coordinates (Angstroms)
 Number     Number       Type             X           Y           Z
 ---------------------------------------------------------------------
      1         40           0        0.657773   -0.123852   -0.075948
      2          8           0       -0.217953   -0.906333    1.475119
      3          8           0        0.101367    1.748264   -0.125036
      4          8           0       -0.271852   -0.977794   -1.599121
      5          8           0        2.592252   -0.433539   -0.092620
      6         14           0       -1.835439   -1.332497   -1.951483
      7         14           0       -1.117912    2.841513   -0.081041
      8         14           0       -1.716895   -1.154450    2.117044
      9         14           0        4.216244   -0.260011    0.010024
     10          8           0        4.957753   -0.058262   -1.451146
     11          8           0        4.898495   -1.623798    0.659332
     12          8           0        4.445519    1.106705    0.905330
     13          8           0       -2.312356   -2.625855    1.699222
     14          8           0       -2.719886    0.062956    1.555976
     15          8           0       -1.586074   -1.021638    3.745959
     16          8           0       -2.010001   -1.559216   -3.575314
     17          8           0       -2.828446   -0.187864   -1.296141
     18          8           0       -2.345490   -2.715154   -1.179772
     19          8           0       -2.046275    2.439142   -1.426072
     20          8           0       -0.639910    4.400750   -0.298843
     21          8           0       -1.963989    2.759434    1.317894
     22          1           0        5.332532    1.483104    0.905771
     23          1           0        5.307407   -0.858604   -1.858974
     24          1           0        4.462482   -2.015984    1.424011
     25          1           0       -2.401373   -2.811067    0.747043
     26          1           0       -2.368496   -1.227126    4.269007
     27          1           0       -3.058390   -0.085104    0.651882
     28          1           0       -0.529778    4.927318    0.501079
     29          1           0       -2.266104    1.867546    1.589887
     30          1           0       -2.655731    3.125961   -1.724032
     31          1           0       -2.306298   -3.530054   -1.693047
     32          1           0       -1.281475   -1.261818   -4.131627
     33          1           0       -2.614891    0.753750   -1.484850
 ---------------------------------------------------------------------
 Rotational constants (GHZ):           0.2123903           0.1338528           0.1240742
 General basis read from cards:  (5D, 7F)
 ======================================================================================================
                                       Pseudopotential Parameters
 ======================================================================================================
  Center     Atomic      Valence      Angular      Power
  Number     Number     Electrons     Momentum     of R      Exponent        Coefficient   SO-Coeffient
 ======================================================================================================
    1         40           12
                                      G and up 
                                                     2        1.0000000        0.00000000    0.00000000
                                      S - G
                                                     2        8.6365280      150.24299400    0.00000000
                                                     2        3.7176390       18.78003600    0.00000000
                                      P - G
                                                     2        7.6267280       33.19279100    0.00000000
                                                     2        7.4532070       66.38903900    0.00000000
                                                     2        3.3583890        4.62072600    0.00000000
                                                     2        3.2297380        9.26027000    0.00000000
                                      D - G
                                                     2        5.9380860       13.99338300    0.00000000
                                                     2        5.8255440       20.99588200    0.00000000
                                                     2        2.2050190        2.28516600    0.00000000
                                                     2        2.2062920        3.44126000    0.00000000
                                      F - G
                                                     2        4.8002150       -5.23932000    0.00000000
                                                     2        4.7989920       -6.98742400    0.00000000
    2          8
                                   No pseudopotential on this center.
    3          8
                                   No pseudopotential on this center.
    4          8
                                   No pseudopotential on this center.
    5          8
                                   No pseudopotential on this center.
    6         14
                                   No pseudopotential on this center.
    7         14
                                   No pseudopotential on this center.
    8         14
                                   No pseudopotential on this center.
    9         14
                                   No pseudopotential on this center.
   10          8
                                   No pseudopotential on this center.
   11          8
                                   No pseudopotential on this center.
   12          8
                                   No pseudopotential on this center.
   13          8
                                   No pseudopotential on this center.
   14          8
                                   No pseudopotential on this center.
   15          8
                                   No pseudopotential on this center.
   16          8
                                   No pseudopotential on this center.
   17          8
                                   No pseudopotential on this center.
   18          8
                                   No pseudopotential on this center.
   19          8
                                   No pseudopotential on this center.
   20          8
                                   No pseudopotential on this center.
   21          8
                                   No pseudopotential on this center.
   22          1
                                   No pseudopotential on this center.
   23          1
                                   No pseudopotential on this center.
   24          1
                                   No pseudopotential on this center.
   25          1
                                   No pseudopotential on this center.
   26          1
                                   No pseudopotential on this center.
   27          1
                                   No pseudopotential on this center.
   28          1
                                   No pseudopotential on this center.
   29          1
                                   No pseudopotential on this center.
   30          1
                                   No pseudopotential on this center.
   31          1
                                   No pseudopotential on this center.
   32          1
                                   No pseudopotential on this center.
   33          1
                                   No pseudopotential on this center.
 ======================================================================================================
 There are   570 symmetry adapted cartesian basis functions of A   symmetry.
 There are   524 symmetry adapted basis functions of A   symmetry.
   524 basis functions,  1074 primitive gaussians,   570 cartesian basis functions
   104 alpha electrons      104 beta electrons
       nuclear repulsion energy      2832.8982833716 Hartrees.
 NAtoms=   33 NActive=   33 NUniq=   33 SFac= 1.00D+00 NAtFMM=   60 NAOKFM=F Big=F
 Integral buffers will be    131072 words long.
 Raffenetti 2 integral format.
 Two-electron integral symmetry is turned on.
 Nuclear repulsion after empirical dispersion term =     2832.8574804107 Hartrees.
 One-electron integrals computed using PRISM.
 PrsmSu:  requested number of processors reduced to:   4 ShMem   1 Linda.
   1 Symmetry operations used in ECPInt.
 ECPInt:  NShTT=   13203 NPrTT=   78401 LenC2=   11524 LenP2D=   44633.
 LDataN:  DoStor=T MaxTD1= 8 Len=  415
 Number of processors reduced to  13 by ecpmxn.
 NBasis=   524 RedAO= T EigKep=  3.17D-05  NBF=   524
 NBsUse=   524 1.00D-06 EigRej= -1.00D+00 NBFU=   524
 Defaulting to unpruned grid for atomic number  40.
 ExpMin= 1.01D-02 ExpMax= 1.61D+04 ExpMxC= 2.43D+03 IAcc=3 IRadAn=         5 AccDes= 0.00D+00
 Harris functional with IExCor=  402 and IRadAn=       5 diagonalized for initial guess.
 HarFok:  IExCor=  402 AccDes= 0.00D+00 IRadAn=         5 IDoV= 1 UseB2=F ITyADJ=14
 ICtDFT=  3500011 ScaDFX=  1.000000  1.000000  1.000000  1.000000
 Defaulting to unpruned grid for atomic number  40.
 FoFCou: FMM=F IPFlag=           0 FMFlag=      100000 FMFlg1=           0
         NFxFlg=           0 DoJE=T BraDBF=F KetDBF=T FulRan=T
         wScrn=  0.000000 ICntrl=       500 IOpCl=  0 I1Cent=   200000004 NGrid=           0
         NMat0=    1 NMatS0=      1 NMatT0=    0 NMatD0=    1 NMtDS0=    0 NMtDT0=    0
 Petite list used in FoFCou.
 Requested convergence on RMS density matrix=1.00D-08 within 128 cycles.
 Requested convergence on MAX density matrix=1.00D-06.
 Requested convergence on             energy=1.00D-06.
 No special actions if energy rises.
 Defaulting to unpruned grid for atomic number  40.
 Defaulting to unpruned grid for atomic number  40.
 Defaulting to unpruned grid for atomic number  40.
 Defaulting to unpruned grid for atomic number  40.
 Defaulting to unpruned grid for atomic number  40.
 Defaulting to unpruned grid for atomic number  40.
 Defaulting to unpruned grid for atomic number  40.
 Defaulting to unpruned grid for atomic number  40.
 Defaulting to unpruned grid for atomic number  40.
 Defaulting to unpruned grid for atomic number  40.
 Defaulting to unpruned grid for atomic number  40.
 Defaulting to unpruned grid for atomic number  40.
 Defaulting to unpruned grid for atomic number  40.
 Defaulting to unpruned grid for atomic number  40.
 Defaulting to unpruned grid for atomic number  40.
 Defaulting to unpruned grid for atomic number  40.
 SCF Done:  E(RB3LYP) =  -2416.94685606     A.U. after   14 cycles
            NFock= 14  Conv=0.25D-08     -V/T= 2.0185

 **********************************************************************

            Population analysis using the SCF Density.

 **********************************************************************

 Orbital symmetries:
       Occupied  (A) (A) (A) (A) (A) (A) (A) (A) (A) (A) (A) (A)
                 (A) (A) (A) (A) (A) (A) (A) (A) (A) (A) (A) (A)
                 (A) (A) (A) (A) (A) (A) (A) (A) (A) (A) (A) (A)
                 (A) (A) (A) (A) (A) (A) (A) (A) (A) (A) (A) (A)
                 (A) (A) (A) (A) (A) (A) (A) (A) (A) (A) (A) (A)
                 (A) (A) (A) (A) (A) (A) (A) (A) (A) (A) (A) (A)
                 (A) (A) (A) (A) (A) (A) (A) (A) (A) (A) (A) (A)
                 (A) (A) (A) (A) (A) (A) (A) (A) (A) (A) (A) (A)
                 (A) (A) (A) (A) (A) (A) (A) (A)
       Virtual   (A) (A) (A) (A) (A) (A) (A) (A) (A) (A) (A) (A)
                 (A) (A) (A) (A) (A) (A) (A) (A) (A) (A) (A) (A)
                 (A) (A) (A) (A) (A) (A) (A) (A) (A) (A) (A) (A)
                 (A) (A) (A) (A) (A) (A) (A) (A) (A) (A) (A) (A)
                 (A) (A) (A) (A) (A) (A) (A) (A) (A) (A) (A) (A)
                 (A) (A) (A) (A) (A) (A) (A) (A) (A) (A) (A) (A)
                 (A) (A) (A) (A) (A) (A) (A) (A) (A) (A) (A) (A)
                 (A) (A) (A) (A) (A) (A) (A) (A) (A) (A) (A) (A)
                 (A) (A) (A) (A) (A) (A) (A) (A) (A) (A) (A) (A)
                 (A) (A) (A) (A) (A) (A) (A) (A) (A) (A) (A) (A)
                 (A) (A) (A) (A) (A) (A) (A) (A) (A) (A) (A) (A)
                 (A) (A) (A) (A) (A) (A) (A) (A) (A) (A) (A) (A)
                 (A) (A) (A) (A) (A) (A) (A) (A) (A) (A) (A) (A)
                 (A) (A) (A) (A) (A) (A) (A) (A) (A) (A) (A) (A)
                 (A) (A) (A) (A) (A) (A) (A) (A) (A) (A) (A) (A)
                 (A) (A) (A) (A) (A) (A) (A) (A) (A) (A) (A) (A)
                 (A) (A) (A) (A) (A) (A) (A) (A) (A) (A) (A) (A)
                 (A) (A) (A) (A) (A) (A) (A) (A) (A) (A) (A) (A)
                 (A) (A) (A) (A) (A) (A) (A) (A) (A) (A) (A) (A)
                 (A) (A) (A) (A) (A) (A) (A) (A) (A) (A) (A) (A)
                 (A) (A) (A) (A) (A) (A) (A) (A) (A) (A) (A) (A)
                 (A) (A) (A) (A) (A) (A) (A) (A) (A) (A) (A) (A)
                 (A) (A) (A) (A) (A) (A) (A) (A) (A) (A) (A) (A)
                 (A) (A) (A) (A) (A) (A) (A) (A) (A) (A) (A) (A)
                 (A) (A) (A) (A) (A) (A) (A) (A) (A) (A) (A) (A)
                 (A) (A) (A) (A) (A) (A) (A) (A) (A) (A) (A) (A)
                 (A) (A) (A) (A) (A) (A) (A) (A) (A) (A) (A) (A)
                 (A) (A) (A) (A) (A) (A) (A) (A) (A) (A) (A) (A)
                 (A) (A) (A) (A) (A) (A) (A) (A) (A) (A) (A) (A)
                 (A) (A) (A) (A) (A) (A) (A) (A) (A) (A) (A) (A)
                 (A) (A) (A) (A) (A) (A) (A) (A) (A) (A) (A) (A)
                 (A) (A) (A) (A) (A) (A) (A) (A) (A) (A) (A) (A)
                 (A) (A) (A) (A) (A) (A) (A) (A) (A) (A) (A) (A)
                 (A) (A) (A) (A) (A) (A) (A) (A) (A) (A) (A) (A)
                 (A) (A) (A) (A) (A) (A) (A) (A) (A) (A) (A) (A)
 The electronic state is 1-A.
 Alpha  occ. eigenvalues --  -66.22807 -66.21756 -66.21490 -66.21036 -19.18592
 Alpha  occ. eigenvalues --  -19.18352 -19.17791 -19.17028 -19.16734 -19.16538
 Alpha  occ. eigenvalues --  -19.16440 -19.16220 -19.16183 -19.16014 -19.15994
 Alpha  occ. eigenvalues --  -19.15503 -19.15333 -19.15253 -19.14895 -19.14707
 Alpha  occ. eigenvalues --   -5.36867  -5.35836  -5.35566  -5.35096  -3.72851
 Alpha  occ. eigenvalues --   -3.72825  -3.72778  -3.71828  -3.71781  -3.71746
 Alpha  occ. eigenvalues --   -3.71535  -3.71526  -3.71487  -3.71061  -3.71052
 Alpha  occ. eigenvalues --   -3.71027  -2.13364  -1.29607  -1.29523  -1.29366
 Alpha  occ. eigenvalues --   -1.05683  -1.04777  -1.04152  -1.03496  -1.02568
 Alpha  occ. eigenvalues --   -1.02171  -1.01473  -1.00920  -1.00762  -1.00663
 Alpha  occ. eigenvalues --   -0.99831  -0.99305  -0.97373  -0.96284  -0.95725
 Alpha  occ. eigenvalues --   -0.95403  -0.60993  -0.59160  -0.58974  -0.58488
 Alpha  occ. eigenvalues --   -0.55544  -0.54533  -0.53867  -0.53041  -0.52988
 Alpha  occ. eigenvalues --   -0.52492  -0.52146  -0.51710  -0.48781  -0.47603
 Alpha  occ. eigenvalues --   -0.47204  -0.46719  -0.43377  -0.42651  -0.41863
 Alpha  occ. eigenvalues --   -0.41397  -0.41111  -0.40528  -0.39834  -0.39328
 Alpha  occ. eigenvalues --   -0.38807  -0.38681  -0.38651  -0.38143  -0.38017
 Alpha  occ. eigenvalues --   -0.37626  -0.37489  -0.37180  -0.36532  -0.36413
 Alpha  occ. eigenvalues --   -0.36090  -0.35634  -0.35464  -0.35090  -0.34902
 Alpha  occ. eigenvalues --   -0.34606  -0.33997  -0.33699  -0.33475  -0.33265
 Alpha  occ. eigenvalues --   -0.32811  -0.32178  -0.32053  -0.31302
 Alpha virt. eigenvalues --   -0.04329  -0.03158  -0.03038  -0.02754  -0.02094
 Alpha virt. eigenvalues --   -0.01172  -0.00557  -0.00138   0.00131   0.00287
 Alpha virt. eigenvalues --    0.00763   0.00933   0.01023   0.01950   0.02345
 Alpha virt. eigenvalues --    0.03227   0.03334   0.03852   0.03939   0.04072
 Alpha virt. eigenvalues --    0.04149   0.04734   0.05580   0.05842   0.06168
 Alpha virt. eigenvalues --    0.06475   0.07093   0.07455   0.07715   0.08662
 Alpha virt. eigenvalues --    0.08795   0.09038   0.09184   0.09679   0.09961
 Alpha virt. eigenvalues --    0.10382   0.10650   0.10855   0.11230   0.11691
 Alpha virt. eigenvalues --    0.11823   0.12550   0.13271   0.13333   0.13677
 Alpha virt. eigenvalues --    0.14037   0.14397   0.14885   0.15093   0.15293
 Alpha virt. eigenvalues --    0.15375   0.15749   0.16178   0.16715   0.16935
 Alpha virt. eigenvalues --    0.17388   0.17508   0.17683   0.18119   0.18382
 Alpha virt. eigenvalues --    0.18524   0.18740   0.19215   0.19681   0.19742
 Alpha virt. eigenvalues --    0.20116   0.20342   0.20652   0.20987   0.21193
 Alpha virt. eigenvalues --    0.21751   0.21921   0.22297   0.22460   0.22778
 Alpha virt. eigenvalues --    0.23360   0.23766   0.24040   0.24168   0.24475
 Alpha virt. eigenvalues --    0.24883   0.25099   0.25577   0.25809   0.26155
 Alpha virt. eigenvalues --    0.26561   0.26696   0.26909   0.27253   0.27424
 Alpha virt. eigenvalues --    0.27947   0.28244   0.28526   0.28843   0.29029
 Alpha virt. eigenvalues --    0.29452   0.29708   0.30045   0.30415   0.30626
 Alpha virt. eigenvalues --    0.30832   0.31344   0.31481   0.31547   0.32169
 Alpha virt. eigenvalues --    0.32352   0.32803   0.33086   0.33569   0.34031
 Alpha virt. eigenvalues --    0.34460   0.34616   0.35332   0.35743   0.36270
 Alpha virt. eigenvalues --    0.36978   0.37543   0.38009   0.38431   0.38813
 Alpha virt. eigenvalues --    0.39308   0.39973   0.39990   0.41137   0.41605
 Alpha virt. eigenvalues --    0.42647   0.43157   0.43899   0.44342   0.44951
 Alpha virt. eigenvalues --    0.45277   0.45686   0.45937   0.46663   0.47473
 Alpha virt. eigenvalues --    0.47878   0.48520   0.48863   0.49430   0.49573
 Alpha virt. eigenvalues --    0.50019   0.50820   0.51082   0.51336   0.53161
 Alpha virt. eigenvalues --    0.54103   0.54443   0.55180   0.56816   0.57288
 Alpha virt. eigenvalues --    0.58248   0.58717   0.59094   0.59397   0.60347
 Alpha virt. eigenvalues --    0.61202   0.61690   0.62128   0.64077   0.65888
 Alpha virt. eigenvalues --    0.66870   0.67911   0.68433   0.68869   0.69471
 Alpha virt. eigenvalues --    0.70105   0.70471   0.72959   0.74411   0.75149
 Alpha virt. eigenvalues --    0.75489   0.77379   0.78564   0.79007   0.80408
 Alpha virt. eigenvalues --    0.81148   0.81514   0.82593   0.84126   0.85428
 Alpha virt. eigenvalues --    0.86738   0.87655   0.89875   0.90582   0.91189
 Alpha virt. eigenvalues --    0.94324   0.95715   0.96286   0.96888   0.97475
 Alpha virt. eigenvalues --    0.98137   0.98808   0.99257   0.99795   1.00348
 Alpha virt. eigenvalues --    1.00714   1.01452   1.02057   1.03224   1.04069
 Alpha virt. eigenvalues --    1.04278   1.05583   1.06365   1.06703   1.07939
 Alpha virt. eigenvalues --    1.09773   1.12338   1.15236   1.16188   1.16447
 Alpha virt. eigenvalues --    1.18707   1.19056   1.19871   1.20611   1.21018
 Alpha virt. eigenvalues --    1.21370   1.21780   1.22344   1.22816   1.22962
 Alpha virt. eigenvalues --    1.23481   1.23982   1.24262   1.25222   1.25710
 Alpha virt. eigenvalues --    1.26015   1.27148   1.27543   1.28113   1.28442
 Alpha virt. eigenvalues --    1.28974   1.29813   1.30118   1.30909   1.31414
 Alpha virt. eigenvalues --    1.32443   1.32644   1.33016   1.33403   1.34473
 Alpha virt. eigenvalues --    1.35239   1.36062   1.36494   1.36875   1.37793
 Alpha virt. eigenvalues --    1.39168   1.39742   1.40220   1.41228   1.41503
 Alpha virt. eigenvalues --    1.42750   1.43662   1.44219   1.45250   1.46370
 Alpha virt. eigenvalues --    1.46967   1.48863   1.51153   1.51432   1.52768
 Alpha virt. eigenvalues --    1.56748   1.57292   1.57764   1.59296   1.59752
 Alpha virt. eigenvalues --    1.60067   1.61187   1.61934   1.62506   1.63057
 Alpha virt. eigenvalues --    1.63228   1.63810   1.65220   1.65394   1.66587
 Alpha virt. eigenvalues --    1.67348   1.68014   1.69268   1.69529   1.70096
 Alpha virt. eigenvalues --    1.71364   1.71481   1.71664   1.72667   1.73225
 Alpha virt. eigenvalues --    1.74074   1.74997   1.75647   1.76078   1.76593
 Alpha virt. eigenvalues --    1.77178   1.77350   1.78495   1.78804   1.79670
 Alpha virt. eigenvalues --    1.80528   1.81438   1.82192   1.82544   1.83046
 Alpha virt. eigenvalues --    1.83337   1.84803   1.85078   1.85907   1.86589
 Alpha virt. eigenvalues --    1.87189   1.88088   1.88682   1.89780   1.90480
 Alpha virt. eigenvalues --    1.91230   1.91423   1.92544   1.92794   1.93939
 Alpha virt. eigenvalues --    1.94765   1.94988   1.95896   1.97256   1.98359
 Alpha virt. eigenvalues --    1.98863   2.00484   2.01151   2.02789   2.03674
 Alpha virt. eigenvalues --    2.05879   2.06539   2.07697   2.09804   2.10405
 Alpha virt. eigenvalues --    2.11251   2.13016   2.14333   2.16164   2.16293
 Alpha virt. eigenvalues --    2.17784   2.18842   2.19068   2.20836   2.26511
 Alpha virt. eigenvalues --    2.32509   2.33455   2.35486   2.39475   2.40438
 Alpha virt. eigenvalues --    2.41171   2.41357   2.41705   2.42747   2.43744
 Alpha virt. eigenvalues --    2.44019   2.45678   2.46688   2.47622   2.49026
 Alpha virt. eigenvalues --    2.50215   2.50310   2.51672   2.52729   2.53321
 Alpha virt. eigenvalues --    2.55438   2.58397   2.59197   2.60063   2.60696
 Alpha virt. eigenvalues --    2.61126   2.61784   2.62082   2.62459   2.62791
 Alpha virt. eigenvalues --    2.63167   2.64030   2.64631   2.64989   2.65962
 Alpha virt. eigenvalues --    2.66300   2.66626   2.67325   2.67565   2.69377
 Alpha virt. eigenvalues --    2.69701   2.70308   2.71219   2.71679   2.72390
 Alpha virt. eigenvalues --    2.72874   2.74357   2.75561   2.76758   2.77477
 Alpha virt. eigenvalues --    2.78943   2.80561   2.81466   2.82456   2.83491
 Alpha virt. eigenvalues --    2.83722   2.84701   2.86671   2.87790   2.88141
 Alpha virt. eigenvalues --    3.14826   3.20453   3.35839   3.41122   3.46774
 Alpha virt. eigenvalues --    3.47844   3.48602   3.48636   3.51087   3.51109
 Alpha virt. eigenvalues --    3.52873   3.54070   3.60308   3.61075   3.62062
 Alpha virt. eigenvalues --    3.66195   4.33419   4.59819   7.90443  31.29258
          Condensed to atoms (all electrons):
               1          2          3          4          5          6
     1  Zr  15.080987  -0.118676  -0.001903  -0.132707  -0.190597  -0.605600
     2  O   -0.118676   9.060954   0.019425  -0.042548  -0.057371   0.087270
     3  O   -0.001903   0.019425   8.828463   0.016176  -0.044357  -0.003709
     4  O   -0.132707  -0.042548   0.016176   8.810500  -0.060475  -0.675935
     5  O   -0.190597  -0.057371  -0.044357  -0.060475   9.426789  -0.007454
     6  Si  -0.605600   0.087270  -0.003709  -0.675935  -0.007454  13.997266
     7  Si  -0.613748  -0.028556  -0.875584  -0.007422  -0.034049   0.084074
     8  Si  -0.598495  -0.999032  -0.019953   0.070901  -0.014438  -0.013844
     9  Si  -0.319310  -0.040546  -0.026487  -0.032717  -1.226938   0.038896
    10  O   -0.015271   0.001032  -0.001987   0.000899   0.129570  -0.002350
    11  O   -0.065618   0.003342   0.003002   0.001257   0.313997  -0.000776
    12  O    0.043903   0.000006   0.004670   0.002049   0.151049  -0.003031
    13  O   -0.033322   0.185456   0.001640  -0.015549  -0.000672   0.034719
    14  O   -0.015204   0.262462  -0.017756  -0.008786   0.001860   0.028458
    15  O   -0.084194   0.293099  -0.000680   0.001235   0.000589   0.000138
    16  O   -0.124429   0.004691  -0.000498   0.345270   0.003223  -0.424632
    17  O   -0.081319  -0.039746   0.008204   0.217609   0.001339  -0.452023
    18  O   -0.025938  -0.014577   0.003739   0.198103  -0.000618  -0.451391
    19  O    0.002389   0.008911   0.265454   0.010294   0.002139  -0.007827
    20  O   -0.145762  -0.000578   0.163827  -0.000855   0.001487   0.009078
    21  O    0.036370   0.010169   0.146142   0.003436   0.000198  -0.011984
    22  H   -0.008989  -0.000017  -0.000011  -0.000009   0.005806   0.000087
    23  H   -0.007704  -0.000013  -0.000005  -0.000055  -0.025279   0.000090
    24  H   -0.005238  -0.000185  -0.000012   0.000004  -0.005270   0.000078
    25  H    0.016697  -0.019946  -0.000110  -0.000323   0.000019   0.002727
    26  H    0.007264   0.000634   0.000014  -0.000011  -0.000004  -0.000152
    27  H    0.003741  -0.019097   0.000843  -0.001714   0.000011   0.008976
    28  H    0.005053  -0.000011  -0.018394  -0.000014  -0.000015  -0.000281
    29  H    0.004002  -0.007043  -0.020268  -0.000140  -0.000073   0.000150
    30  H    0.000701  -0.000012   0.000047  -0.000455  -0.000008  -0.000643
    31  H   -0.000128   0.000177  -0.000020  -0.018443  -0.000010   0.063760
    32  H    0.002133  -0.000024   0.000040   0.010455   0.000001   0.022714
    33  H   -0.015934   0.001018  -0.010125  -0.009598  -0.000101   0.053208
               7          8          9         10         11         12
     1  Zr  -0.613748  -0.598495  -0.319310  -0.015271  -0.065618   0.043903
     2  O   -0.028556  -0.999032  -0.040546   0.001032   0.003342   0.000006
     3  O   -0.875584  -0.019953  -0.026487  -0.001987   0.003002   0.004670
     4  O   -0.007422   0.070901  -0.032717   0.000899   0.001257   0.002049
     5  O   -0.034049  -0.014438  -1.226938   0.129570   0.313997   0.151049
     6  Si   0.084074  -0.013844   0.038896  -0.002350  -0.000776  -0.003031
     7  Si  13.795514   0.182564   0.019818  -0.000224  -0.000905   0.003908
     8  Si   0.182564  13.811604   0.026395  -0.001022   0.001225  -0.000942
     9  Si   0.019818   0.026395  14.244032  -0.066920  -0.180587  -0.208849
    10  O   -0.000224  -0.001022  -0.066920   8.524839   0.014531   0.031151
    11  O   -0.000905   0.001225  -0.180587   0.014531   8.517306  -0.050632
    12  O    0.003908  -0.000942  -0.208849   0.031151  -0.050632   8.600369
    13  O    0.007227  -0.095796   0.000191   0.000000   0.000019   0.000008
    14  O    0.009231  -0.367965  -0.001503  -0.000002   0.000002   0.000017
    15  O   -0.002538  -0.304953  -0.000601   0.000000  -0.000024  -0.000015
    16  O    0.003799  -0.010402  -0.001039   0.000005  -0.000003  -0.000001
    17  O   -0.000791   0.096640   0.002559  -0.000001   0.000002  -0.000006
    18  O   -0.000775   0.074929   0.004145  -0.000002  -0.000000  -0.000001
    19  O   -0.410365  -0.016188   0.001033   0.000007  -0.000002  -0.000024
    20  O   -0.108987   0.009627   0.003129   0.000003  -0.000003  -0.000031
    21  O    0.024645  -0.040111  -0.001772   0.000001   0.000001   0.000022
    22  H   -0.000175   0.000091   0.047289  -0.006474  -0.005056   0.219583
    23  H    0.000059   0.000062   0.081110   0.228579  -0.006109   0.005866
    24  H    0.000051  -0.000083   0.036925   0.007361   0.242555  -0.007405
    25  H   -0.000455   0.057425  -0.000209   0.000000  -0.000000  -0.000000
    26  H   -0.000383   0.046157  -0.000044  -0.000000   0.000000  -0.000000
    27  H    0.001388   0.068514  -0.000005   0.000000  -0.000000  -0.000000
    28  H    0.056614  -0.000062  -0.000137  -0.000000  -0.000000  -0.000003
    29  H    0.048190   0.021975  -0.000058   0.000000   0.000000  -0.000001
    30  H    0.040337   0.000114   0.000022  -0.000000   0.000000   0.000000
    31  H    0.000155  -0.001987  -0.000052   0.000000  -0.000000   0.000000
    32  H   -0.000662   0.000054   0.000010  -0.000000   0.000000  -0.000000
    33  H    0.020640   0.000088   0.000077  -0.000000   0.000000   0.000000
              13         14         15         16         17         18
     1  Zr  -0.033322  -0.015204  -0.084194  -0.124429  -0.081319  -0.025938
     2  O    0.185456   0.262462   0.293099   0.004691  -0.039746  -0.014577
     3  O    0.001640  -0.017756  -0.000680  -0.000498   0.008204   0.003739
     4  O   -0.015549  -0.008786   0.001235   0.345270   0.217609   0.198103
     5  O   -0.000672   0.001860   0.000589   0.003223   0.001339  -0.000618
     6  Si   0.034719   0.028458   0.000138  -0.424632  -0.452023  -0.451391
     7  Si   0.007227   0.009231  -0.002538   0.003799  -0.000791  -0.000775
     8  Si  -0.095796  -0.367965  -0.304953  -0.010402   0.096640   0.074929
     9  Si   0.000191  -0.001503  -0.000601  -0.001039   0.002559   0.004145
    10  O    0.000000  -0.000002   0.000000   0.000005  -0.000001  -0.000002
    11  O    0.000019   0.000002  -0.000024  -0.000003   0.000002  -0.000000
    12  O    0.000008   0.000017  -0.000015  -0.000001  -0.000006  -0.000001
    13  O    8.627802   0.086974  -0.090572   0.003738  -0.030897  -0.045646
    14  O    0.086974   8.673887   0.055590   0.003663  -0.035840  -0.026868
    15  O   -0.090572   0.055590   8.777600  -0.000175   0.003605   0.001677
    16  O    0.003738   0.003663  -0.000175   8.902303  -0.091718  -0.114827
    17  O   -0.030897  -0.035840   0.003605  -0.091718   8.935397   0.227454
    18  O   -0.045646  -0.026868   0.001677  -0.114827   0.227454   9.012750
    19  O    0.000176  -0.000462   0.000142  -0.001525  -0.029978   0.000158
    20  O    0.000008  -0.000253   0.000038   0.000065  -0.000978   0.000015
    21  O   -0.000254   0.015937  -0.000618  -0.000213  -0.005569   0.000478
    22  H   -0.000000  -0.000000   0.000000   0.000000   0.000000  -0.000000
    23  H    0.000000   0.000000  -0.000000  -0.000000   0.000000  -0.000000
    24  H   -0.000000   0.000000   0.000002   0.000000  -0.000000  -0.000000
    25  H    0.218456  -0.011943   0.008914  -0.000055   0.000634   0.014952
    26  H   -0.005113  -0.010094   0.216937   0.000000  -0.000003   0.000006
    27  H   -0.009704   0.219383   0.004630   0.000183   0.017939  -0.000252
    28  H    0.000000  -0.000006  -0.000001  -0.000000   0.000004  -0.000000
    29  H    0.000798   0.017583  -0.002571  -0.000004  -0.000395   0.000006
    30  H    0.000001   0.000001   0.000000   0.000115  -0.000401  -0.000007
    31  H    0.002362   0.000167  -0.000018   0.003766  -0.000748   0.218152
    32  H   -0.000008  -0.000006   0.000000   0.233471  -0.003634   0.003882
    33  H    0.000230   0.002093  -0.000035  -0.000103   0.231009   0.002102
              19         20         21         22         23         24
     1  Zr   0.002389  -0.145762   0.036370  -0.008989  -0.007704  -0.005238
     2  O    0.008911  -0.000578   0.010169  -0.000017  -0.000013  -0.000185
     3  O    0.265454   0.163827   0.146142  -0.000011  -0.000005  -0.000012
     4  O    0.010294  -0.000855   0.003436  -0.000009  -0.000055   0.000004
     5  O    0.002139   0.001487   0.000198   0.005806  -0.025279  -0.005270
     6  Si  -0.007827   0.009078  -0.011984   0.000087   0.000090   0.000078
     7  Si  -0.410365  -0.108987   0.024645  -0.000175   0.000059   0.000051
     8  Si  -0.016188   0.009627  -0.040111   0.000091   0.000062  -0.000083
     9  Si   0.001033   0.003129  -0.001772   0.047289   0.081110   0.036925
    10  O    0.000007   0.000003   0.000001  -0.006474   0.228579   0.007361
    11  O   -0.000002  -0.000003   0.000001  -0.005056  -0.006109   0.242555
    12  O   -0.000024  -0.000031   0.000022   0.219583   0.005866  -0.007405
    13  O    0.000176   0.000008  -0.000254  -0.000000   0.000000  -0.000000
    14  O   -0.000462  -0.000253   0.015937  -0.000000   0.000000   0.000000
    15  O    0.000142   0.000038  -0.000618   0.000000  -0.000000   0.000002
    16  O   -0.001525   0.000065  -0.000213   0.000000  -0.000000   0.000000
    17  O   -0.029978  -0.000978  -0.005569   0.000000   0.000000  -0.000000
    18  O    0.000158   0.000015   0.000478  -0.000000  -0.000000  -0.000000
    19  O    8.873052   0.032240   0.023366  -0.000000   0.000000  -0.000000
    20  O    0.032240   8.657237  -0.050478   0.000000   0.000000  -0.000000
    21  O    0.023366  -0.050478   8.485416  -0.000000   0.000000   0.000000
    22  H   -0.000000   0.000000  -0.000000   0.361789   0.000057   0.000122
    23  H    0.000000   0.000000   0.000000   0.000057   0.351021   0.000014
    24  H   -0.000000  -0.000000   0.000000   0.000122   0.000014   0.365206
    25  H   -0.000024   0.000000  -0.000019   0.000000   0.000000   0.000000
    26  H    0.000001  -0.000000   0.000039  -0.000000  -0.000000  -0.000000
    27  H    0.000036   0.000192  -0.004011  -0.000000  -0.000000   0.000000
    28  H    0.004620   0.229581  -0.002060  -0.000000   0.000000  -0.000000
    29  H   -0.008573   0.007669   0.206475   0.000000   0.000000  -0.000000
    30  H    0.224149  -0.001484  -0.007149   0.000000   0.000000  -0.000000
    31  H    0.000004  -0.000000  -0.000000  -0.000000  -0.000000   0.000000
    32  H    0.000097  -0.000000   0.000001  -0.000000  -0.000000  -0.000000
    33  H    0.014822  -0.000081   0.001476  -0.000000  -0.000000  -0.000000
              25         26         27         28         29         30
     1  Zr   0.016697   0.007264   0.003741   0.005053   0.004002   0.000701
     2  O   -0.019946   0.000634  -0.019097  -0.000011  -0.007043  -0.000012
     3  O   -0.000110   0.000014   0.000843  -0.018394  -0.020268   0.000047
     4  O   -0.000323  -0.000011  -0.001714  -0.000014  -0.000140  -0.000455
     5  O    0.000019  -0.000004   0.000011  -0.000015  -0.000073  -0.000008
     6  Si   0.002727  -0.000152   0.008976  -0.000281   0.000150  -0.000643
     7  Si  -0.000455  -0.000383   0.001388   0.056614   0.048190   0.040337
     8  Si   0.057425   0.046157   0.068514  -0.000062   0.021975   0.000114
     9  Si  -0.000209  -0.000044  -0.000005  -0.000137  -0.000058   0.000022
    10  O    0.000000  -0.000000   0.000000  -0.000000   0.000000  -0.000000
    11  O   -0.000000   0.000000  -0.000000  -0.000000   0.000000   0.000000
    12  O   -0.000000  -0.000000  -0.000000  -0.000003  -0.000001   0.000000
    13  O    0.218456  -0.005113  -0.009704   0.000000   0.000798   0.000001
    14  O   -0.011943  -0.010094   0.219383  -0.000006   0.017583   0.000001
    15  O    0.008914   0.216937   0.004630  -0.000001  -0.002571   0.000000
    16  O   -0.000055   0.000000   0.000183  -0.000000  -0.000004   0.000115
    17  O    0.000634  -0.000003   0.017939   0.000004  -0.000395  -0.000401
    18  O    0.014952   0.000006  -0.000252  -0.000000   0.000006  -0.000007
    19  O   -0.000024   0.000001   0.000036   0.004620  -0.008573   0.224149
    20  O    0.000000  -0.000000   0.000192   0.229581   0.007669  -0.001484
    21  O   -0.000019   0.000039  -0.004011  -0.002060   0.206475  -0.007149
    22  H    0.000000  -0.000000  -0.000000  -0.000000   0.000000   0.000000
    23  H    0.000000  -0.000000  -0.000000   0.000000   0.000000   0.000000
    24  H    0.000000  -0.000000   0.000000  -0.000000  -0.000000  -0.000000
    25  H    0.298882  -0.000012   0.000113   0.000000   0.000001   0.000000
    26  H   -0.000012   0.366038   0.000036   0.000000   0.000021  -0.000000
    27  H    0.000113   0.000036   0.283358  -0.000000  -0.001497   0.000009
    28  H    0.000000   0.000000  -0.000000   0.349167  -0.000017  -0.000016
    29  H    0.000001   0.000021  -0.001497  -0.000017   0.285936   0.000156
    30  H    0.000000  -0.000000   0.000009  -0.000016   0.000156   0.334263
    31  H   -0.000495   0.000000   0.000013  -0.000000   0.000000  -0.000000
    32  H   -0.000001   0.000000  -0.000000   0.000000  -0.000000  -0.000000
    33  H    0.000006  -0.000000  -0.002411  -0.000002   0.000099  -0.001159
              31         32         33
     1  Zr  -0.000128   0.002133  -0.015934
     2  O    0.000177  -0.000024   0.001018
     3  O   -0.000020   0.000040  -0.010125
     4  O   -0.018443   0.010455  -0.009598
     5  O   -0.000010   0.000001  -0.000101
     6  Si   0.063760   0.022714   0.053208
     7  Si   0.000155  -0.000662   0.020640
     8  Si  -0.001987   0.000054   0.000088
     9  Si  -0.000052   0.000010   0.000077
    10  O    0.000000  -0.000000  -0.000000
    11  O   -0.000000   0.000000   0.000000
    12  O    0.000000  -0.000000   0.000000
    13  O    0.002362  -0.000008   0.000230
    14  O    0.000167  -0.000006   0.002093
    15  O   -0.000018   0.000000  -0.000035
    16  O    0.003766   0.233471  -0.000103
    17  O   -0.000748  -0.003634   0.231009
    18  O    0.218152   0.003882   0.002102
    19  O    0.000004   0.000097   0.014822
    20  O   -0.000000  -0.000000  -0.000081
    21  O   -0.000000   0.000001   0.001476
    22  H   -0.000000  -0.000000  -0.000000
    23  H   -0.000000  -0.000000  -0.000000
    24  H    0.000000  -0.000000  -0.000000
    25  H   -0.000495  -0.000001   0.000006
    26  H    0.000000   0.000000  -0.000000
    27  H    0.000013  -0.000000  -0.002411
    28  H   -0.000000   0.000000  -0.000002
    29  H    0.000000  -0.000000   0.000099
    30  H   -0.000000  -0.000000  -0.001159
    31  H    0.331401   0.000001  -0.000038
    32  H    0.000001   0.349979   0.000157
    33  H   -0.000038   0.000157   0.269258
 Mulliken charges:
               1
     1  Zr   0.006846
     2  O   -0.550667
     3  O   -0.419827
     4  O   -0.680432
     5  O   -0.370347
     6  Si   2.229943
     7  Si   1.787405
     8  Si   2.016908
     9  Si   1.602141
    10  O   -0.843726
    11  O   -0.787525
    12  O   -0.791660
    13  O   -0.842271
    14  O   -0.880619
    15  O   -0.877200
    16  O   -0.734670
    17  O   -0.968348
    18  O   -1.081646
    19  O   -0.988120
    20  O   -0.804708
    21  O   -0.829934
    22  H    0.385906
    23  H    0.372307
    24  H    0.365875
    25  H    0.414767
    26  H    0.378669
    27  H    0.429326
    28  H    0.375981
    29  H    0.447579
    30  H    0.411420
    31  H    0.401981
    32  H    0.381341
    33  H    0.443304
 Sum of Mulliken charges =  -0.00000
 Mulliken charges with hydrogens summed into heavy atoms:
               1
     1  Zr   0.006846
     2  O   -0.550667
     3  O   -0.419827
     4  O   -0.680432
     5  O   -0.370347
     6  Si   2.229943
     7  Si   1.787405
     8  Si   2.016908
     9  Si   1.602141
    10  O   -0.471419
    11  O   -0.421649
    12  O   -0.405754
    13  O   -0.427505
    14  O   -0.451292
    15  O   -0.498531
    16  O   -0.353330
    17  O   -0.525044
    18  O   -0.679665
    19  O   -0.576701
    20  O   -0.428727
    21  O   -0.382355
 Electronic spatial extent (au):  <R**2>=           9868.7425
 Charge=              0.0000 electrons
 Dipole moment (field-independent basis, Debye):
    X=              1.0689    Y=             -0.7918    Z=             -2.4410  Tot=              2.7800
 Quadrupole moment (field-independent basis, Debye-Ang):
   XX=           -160.2076   YY=           -154.6683   ZZ=           -157.7682
   XY=             -4.9729   XZ=              2.1766   YZ=              5.7195
 Traceless Quadrupole moment (field-independent basis, Debye-Ang):
   XX=             -2.6595   YY=              2.8798   ZZ=             -0.2202
   XY=             -4.9729   XZ=              2.1766   YZ=              5.7195
 Octapole moment (field-independent basis, Debye-Ang**2):
  XXX=             74.3292  YYY=              6.4856  ZZZ=            -19.7036  XYY=             -2.6033
  XXY=             20.1566  XXZ=             19.1294  XZZ=              5.6780  YZZ=            -17.2140
  YYZ=            -14.9201  XYZ=             28.0532
 Hexadecapole moment (field-independent basis, Debye-Ang**3):
 XXXX=          -6031.4152 YYYY=          -2834.6227 ZZZZ=          -2259.4154 XXXY=             55.3685
 XXXZ=            -20.6181 YYYX=              3.8414 YYYZ=            216.7078 ZZZX=           -188.3475
 ZZZY=            -54.2945 XXYY=          -1486.1245 XXZZ=          -1359.1894 YYZZ=           -925.4520
 XXYZ=             -7.3871 YYXZ=            133.4668 ZZXY=            -58.9032
 N-N= 2.832857480411D+03 E-N=-1.137831577314D+04  KE= 2.373154994920D+03
 PrsmSu:  requested number of processors reduced to:   2 ShMem   1 Linda.
 PrsmSu:  requested number of processors reduced to:  10 ShMem   1 Linda.
   1 Symmetry operations used in ECPInt.
 ECPInt:  NShTT=   13203 NPrTT=   78401 LenC2=   11524 LenP2D=   44633.
 LDataN:  DoStor=T MaxTD1= 9 Len=  602
 Number of processors reduced to  14 by ecpmxn.
 Calling FoFJK, ICntrl=      2127 FMM=F ISym2X=0 I1Cent= 0 IOpClX= 0 NMat=1 NMatS=1 NMatT=0.
 CoulSu:  requested number of processors reduced to:  10 ShMem   1 Linda.
 Defaulting to unpruned grid for atomic number  40.
 Defaulting to unpruned grid for atomic number  40.
 Defaulting to unpruned grid for atomic number  40.
 Defaulting to unpruned grid for atomic number  40.
 Defaulting to unpruned grid for atomic number  40.
 Defaulting to unpruned grid for atomic number  40.
 Defaulting to unpruned grid for atomic number  40.
 Defaulting to unpruned grid for atomic number  40.
 Defaulting to unpruned grid for atomic number  40.
 Defaulting to unpruned grid for atomic number  40.
 Defaulting to unpruned grid for atomic number  40.
 Defaulting to unpruned grid for atomic number  40.
 Defaulting to unpruned grid for atomic number  40.
 Defaulting to unpruned grid for atomic number  40.
 Defaulting to unpruned grid for atomic number  40.
 Defaulting to unpruned grid for atomic number  40.
 ***** Axes restored to original set *****
 -------------------------------------------------------------------
 Center     Atomic                   Forces (Hartrees/Bohr)
 Number     Number              X              Y              Z
 -------------------------------------------------------------------
      1       40           0.000004862   -0.000001477    0.000086746
      2        8          -0.000015772   -0.000000654   -0.000043199
      3        8           0.000017568    0.000019091   -0.000010588
      4        8           0.000012278   -0.000019229   -0.000013680
      5        8           0.000002250   -0.000017734   -0.000036639
      6       14          -0.000022966    0.000018012    0.000010374
      7       14           0.000002114   -0.000008241    0.000013046
      8       14           0.000006375    0.000009853    0.000033180
      9       14          -0.000013451    0.000049088    0.000008067
     10        8           0.000013324   -0.000012208   -0.000005370
     11        8           0.000004988   -0.000038801   -0.000012145
     12        8          -0.000012597   -0.000009778   -0.000006047
     13        8          -0.000003401   -0.000005393   -0.000005551
     14        8          -0.000000491   -0.000002248   -0.000005596
     15        8          -0.000008070   -0.000007131   -0.000020756
     16        8           0.000005805   -0.000002946   -0.000006676
     17        8           0.000012136   -0.000006220   -0.000009592
     18        8          -0.000003913    0.000001767    0.000001043
     19        8          -0.000000103    0.000001763   -0.000004624
     20        8           0.000005764    0.000002349    0.000000264
     21        8          -0.000004663    0.000004409   -0.000010015
     22        1           0.000001723   -0.000001198    0.000001046
     23        1          -0.000008309    0.000000584    0.000002279
     24        1           0.000005481    0.000017276    0.000016359
     25        1          -0.000000250    0.000001966    0.000000251
     26        1           0.000000943    0.000004560    0.000003830
     27        1          -0.000002395    0.000002376    0.000000785
     28        1           0.000000951    0.000000128    0.000000667
     29        1           0.000005102   -0.000000681    0.000005575
     30        1           0.000000974    0.000001180    0.000001383
     31        1           0.000002665   -0.000003285   -0.000002663
     32        1          -0.000007710    0.000001022    0.000002429
     33        1          -0.000001213    0.000001797    0.000005819
 -------------------------------------------------------------------
 Cartesian Forces:  Max     0.000086746 RMS     0.000015044

 GradGradGradGradGradGradGradGradGradGradGradGradGradGradGradGradGradGrad
 Berny optimization.
 FormGI is forming the generalized inverse of G from B-inverse, IUseBI=4.
 Internal  Forces:  Max     0.000066098 RMS     0.000012152
 Search for a local minimum.
 Step number   1 out of a maximum of  148
 All quantities printed in internal units (Hartrees-Bohrs-Radians)
 Mixed Optimization -- En-DIIS/RFO-DIIS
 Second derivative matrix not updated -- first step.
 ITU=  0
     Eigenvalues ---    0.00230   0.00230   0.00230   0.03240   0.03358
     Eigenvalues ---    0.03498   0.03580   0.03665   0.03666   0.03680
     Eigenvalues ---    0.03686   0.03693   0.03739   0.03789   0.03792
     Eigenvalues ---    0.03816   0.03834   0.03850   0.05521   0.09402
     Eigenvalues ---    0.09687   0.11077   0.11224   0.11833   0.11884
     Eigenvalues ---    0.11890   0.12177   0.12239   0.12299   0.12782
     Eigenvalues ---    0.12895   0.13099   0.13313   0.16000   0.16000
     Eigenvalues ---    0.16000   0.16000   0.16000   0.16000   0.16000
     Eigenvalues ---    0.16000   0.16000   0.16000   0.16000   0.16000
     Eigenvalues ---    0.19173   0.19314   0.19332   0.20013   0.20203
     Eigenvalues ---    0.20204   0.20208   0.20515   0.20653   0.20795
     Eigenvalues ---    0.20989   0.21175   0.21186   0.21227   0.25000
     Eigenvalues ---    0.25000   0.25000   0.38002   0.39187   0.40659
     Eigenvalues ---    0.41547   0.42502   0.42509   0.42670   0.42743
     Eigenvalues ---    0.42824   0.43363   0.43951   0.43980   0.44273
     Eigenvalues ---    0.44485   0.44689   0.44768   0.50655   0.51353
     Eigenvalues ---    0.52036   0.52548   0.54334   0.54624   0.54640
     Eigenvalues ---    0.54649   0.54689   0.54693   0.54712   0.54765
     Eigenvalues --- 1000.000001000.000001000.000001000.000001000.00000
     Eigenvalues --- 1000.000001000.000001000.000001000.000001000.00000
     Eigenvalues --- 1000.000001000.000001000.000001000.000001000.00000
     Eigenvalues --- 1000.000001000.000001000.000001000.000001000.00000
     Eigenvalues --- 1000.000001000.000001000.000001000.000001000.00000
     Eigenvalues --- 1000.000001000.000001000.000001000.000001000.00000
     Eigenvalues --- 1000.000001000.000001000.000001000.000001000.00000
     Eigenvalues --- 1000.000001000.000001000.000001000.000001000.00000
     Eigenvalues --- 1000.000001000.000001000.000001000.000001000.00000
     Eigenvalues --- 1000.000001000.000001000.00000
 RFO step:  Lambda=-1.46928161D-07 EMin= 2.30000000D-03
 Linear search not attempted -- first point.
 Iteration  1 RMS(Cart)=  0.00143295 RMS(Int)=  0.00000038
 Iteration  2 RMS(Cart)=  0.00000065 RMS(Int)=  0.00000001
 Iteration  1 RMS(Cart)=  0.00000001 RMS(Int)=  0.00000000
 Variable       Old X    -DE/DX   Delta X   Delta X   Delta X     New X
                                 (Linear)    (Quad)   (Total)
    R1        3.67647  -0.00002   0.00000  -0.00009  -0.00009   3.67638
    R2        3.69189   0.00001   0.00000   0.00005   0.00005   3.69195
    R3        3.73835   0.00002   0.00000   0.00008   0.00008   3.73843
    R4        3.70232  -0.00001   0.00000  -0.00003  -0.00003   3.70229
    R5        3.11688   0.00001   0.00000   0.00001   0.00001   3.11689
    R6        3.09579  -0.00000   0.00000  -0.00001  -0.00001   3.09578
    R7        3.10213   0.00001   0.00000   0.00002   0.00002   3.10216
    R8        3.09246  -0.00001   0.00000  -0.00001  -0.00001   3.09245
    R9        3.11587   0.00000   0.00000   0.00001   0.00001   3.11588
   R10        3.11989  -0.00001   0.00000  -0.00003  -0.00003   3.11986
   R11        3.14367   0.00000   0.00000   0.00000   0.00000   3.14368
   R12        3.18062   0.00000   0.00000   0.00001   0.00001   3.18063
   R13        3.10924   0.00000   0.00000   0.00001   0.00001   3.10925
   R14        3.09339  -0.00000   0.00000  -0.00001  -0.00001   3.09338
   R15        3.10179   0.00001   0.00000   0.00001   0.00001   3.10180
   R16        3.16373   0.00000   0.00000   0.00000   0.00000   3.16374
   R17        3.09830  -0.00002   0.00000  -0.00004  -0.00004   3.09826
   R18        3.11980   0.00000   0.00000   0.00001   0.00001   3.11981
   R19        3.13204   0.00002   0.00000   0.00005   0.00005   3.13209
   R20        3.11779  -0.00001   0.00000  -0.00002  -0.00002   3.11777
   R21        1.82153  -0.00001   0.00000  -0.00001  -0.00001   1.82152
   R22        1.82106   0.00000   0.00000   0.00000   0.00000   1.82107
   R23        1.82089   0.00000   0.00000   0.00000   0.00000   1.82089
   R24        1.84078  -0.00000   0.00000  -0.00000  -0.00000   1.84078
   R25        1.84565  -0.00000   0.00000  -0.00000  -0.00000   1.84565
   R26        1.82041   0.00000   0.00000   0.00000   0.00000   1.82041
   R27        1.82109  -0.00001   0.00000  -0.00001  -0.00001   1.82108
   R28        1.85910  -0.00000   0.00000  -0.00000  -0.00000   1.85910
   R29        1.82145   0.00001   0.00000   0.00001   0.00001   1.82146
   R30        1.82428  -0.00000   0.00000  -0.00000  -0.00000   1.82428
   R31        1.82168   0.00000   0.00000   0.00000   0.00000   1.82168
   R32        1.85224   0.00000   0.00000   0.00000   0.00000   1.85224
    A1        1.85172   0.00001   0.00000   0.00024   0.00024   1.85197
    A2        1.80155  -0.00003   0.00000  -0.00017  -0.00017   1.80138
    A3        1.96889   0.00005   0.00000   0.00042   0.00042   1.96931
    A4        1.83430   0.00002   0.00000  -0.00008  -0.00008   1.83422
    A5        2.01802  -0.00004   0.00000  -0.00020  -0.00020   2.01782
    A6        1.97057  -0.00001   0.00000  -0.00021  -0.00021   1.97036
    A7        2.46524   0.00001   0.00000   0.00002   0.00002   2.46527
    A8        2.58826  -0.00000   0.00000  -0.00001  -0.00001   2.58825
    A9        2.35483  -0.00002   0.00000  -0.00008  -0.00008   2.35475
   A10        2.86714  -0.00007   0.00000   0.00000   0.00000   2.86714
   A11        1.91978   0.00000   0.00000   0.00001   0.00001   1.91979
   A12        1.91546  -0.00000   0.00000  -0.00001  -0.00001   1.91546
   A13        1.95201  -0.00000   0.00000  -0.00002  -0.00002   1.95199
   A14        2.00708   0.00000   0.00000   0.00002   0.00002   2.00710
   A15        1.88610  -0.00000   0.00000  -0.00002  -0.00002   1.88608
   A16        1.78001   0.00000   0.00000   0.00001   0.00001   1.78002
[...]
 Alpha virt. eigenvalues --    3.47841   3.48603   3.48634   3.51082   3.51107
 Alpha virt. eigenvalues --    3.52865   3.54072   3.60298   3.61063   3.62065
 Alpha virt. eigenvalues --    3.66195   4.33319   4.59887   7.90313  31.29262
          Condensed to atoms (all electrons):
               1          2          3          4          5          6
     1  Zr  15.081087  -0.120704  -0.001631  -0.132213  -0.191243  -0.605016
     2  O   -0.120704   9.061268   0.019465  -0.042557  -0.057392   0.087624
     3  O   -0.001631   0.019465   8.828134   0.016129  -0.044368  -0.003760
     4  O   -0.132213  -0.042557   0.016129   8.810316  -0.060402  -0.675984
     5  O   -0.191243  -0.057392  -0.044368  -0.060402   9.426692  -0.007472
     6  Si  -0.605016   0.087624  -0.003760  -0.675984  -0.007472  13.996398
     7  Si  -0.613337  -0.028324  -0.875263  -0.007439  -0.034029   0.084161
     8  Si  -0.596515  -0.998273  -0.019976   0.070873  -0.014409  -0.014330
     9  Si  -0.318927  -0.040306  -0.026535  -0.032869  -1.226220   0.038876
    10  O   -0.015334   0.001026  -0.001989   0.000900   0.129400  -0.002356
    11  O   -0.065472   0.003333   0.003005   0.001259   0.313527  -0.000777
    12  O    0.043713  -0.000005   0.004679   0.002057   0.151138  -0.003028
    13  O   -0.033754   0.185539   0.001639  -0.015557  -0.000675   0.034811
    14  O   -0.015782   0.262502  -0.017744  -0.008801   0.001863   0.028588
    15  O   -0.084223   0.293084  -0.000677   0.001234   0.000586   0.000144
    16  O   -0.124361   0.004698  -0.000502   0.345181   0.003235  -0.424568
    17  O   -0.081056  -0.039758   0.008184   0.217498   0.001331  -0.451851
    18  O   -0.026329  -0.014548   0.003737   0.198195  -0.000618  -0.451259
    19  O    0.001988   0.008913   0.265408   0.010270   0.002136  -0.007714
    20  O   -0.145830  -0.000575   0.163775  -0.000854   0.001491   0.009075
    21  O    0.036410   0.010178   0.146094   0.003435   0.000200  -0.011976
    22  H   -0.008969  -0.000017  -0.000011  -0.000009   0.005804   0.000087
    23  H   -0.007674  -0.000013  -0.000005  -0.000055  -0.025278   0.000090
    24  H   -0.005249  -0.000184  -0.000012   0.000004  -0.005314   0.000078
    25  H    0.016761  -0.019954  -0.000110  -0.000324   0.000019   0.002722
    26  H    0.007266   0.000629   0.000014  -0.000011  -0.000004  -0.000152
    27  H    0.003839  -0.019121   0.000840  -0.001710   0.000011   0.008946
    28  H    0.005065  -0.000011  -0.018394  -0.000014  -0.000015  -0.000282
    29  H    0.004025  -0.007052  -0.020260  -0.000140  -0.000073   0.000150
    30  H    0.000715  -0.000012   0.000045  -0.000455  -0.000008  -0.000648
    31  H   -0.000114   0.000176  -0.000020  -0.018443  -0.000010   0.063750
    32  H    0.002116  -0.000024   0.000040   0.010442   0.000001   0.022751
    33  H   -0.015942   0.001018  -0.010118  -0.009594  -0.000101   0.053196
               7          8          9         10         11         12
     1  Zr  -0.613337  -0.596515  -0.318927  -0.015334  -0.065472   0.043713
     2  O   -0.028324  -0.998273  -0.040306   0.001026   0.003333  -0.000005
     3  O   -0.875263  -0.019976  -0.026535  -0.001989   0.003005   0.004679
     4  O   -0.007439   0.070873  -0.032869   0.000900   0.001259   0.002057
     5  O   -0.034029  -0.014409  -1.226220   0.129400   0.313527   0.151138
     6  Si   0.084161  -0.014330   0.038876  -0.002356  -0.000777  -0.003028
     7  Si  13.794465   0.182213   0.019802  -0.000224  -0.000906   0.003914
     8  Si   0.182213  13.808935   0.026385  -0.001018   0.001216  -0.000934
     9  Si   0.019802   0.026385  14.242241  -0.066483  -0.179791  -0.208729
    10  O   -0.000224  -0.001018  -0.066483   8.524542   0.014538   0.031092
    11  O   -0.000906   0.001216  -0.179791   0.014538   8.516893  -0.050766
    12  O    0.003914  -0.000934  -0.208729   0.031092  -0.050766   8.600355
    13  O    0.007236  -0.095644   0.000204   0.000000   0.000018   0.000008
    14  O    0.009271  -0.367485  -0.001494  -0.000002   0.000002   0.000017
    15  O   -0.002513  -0.305062  -0.000608   0.000000  -0.000024  -0.000015
    16  O    0.003776  -0.010415  -0.001035   0.000005  -0.000003  -0.000001
    17  O   -0.000805   0.096684   0.002546  -0.000001   0.000002  -0.000006
    18  O   -0.000760   0.074980   0.004148  -0.000002  -0.000000  -0.000001
    19  O   -0.409900  -0.016125   0.001040   0.000007  -0.000002  -0.000024
    20  O   -0.108902   0.009636   0.003140   0.000003  -0.000003  -0.000031
    21  O    0.024607  -0.040126  -0.001773   0.000001   0.000001   0.000022
    22  H   -0.000175   0.000091   0.047258  -0.006484  -0.005060   0.219623
    23  H    0.000059   0.000062   0.081073   0.228600  -0.006116   0.005869
    24  H    0.000051  -0.000081   0.037028   0.007372   0.242524  -0.007427
    25  H   -0.000455   0.057410  -0.000209   0.000000  -0.000000  -0.000000
    26  H   -0.000383   0.046155  -0.000044  -0.000000   0.000000  -0.000000
    27  H    0.001385   0.068479  -0.000006   0.000000  -0.000000  -0.000000
    28  H    0.056604  -0.000064  -0.000137  -0.000000  -0.000000  -0.000003
    29  H    0.048168   0.021966  -0.000058   0.000000   0.000000  -0.000001
    30  H    0.040335   0.000114   0.000022  -0.000000   0.000000   0.000000
    31  H    0.000154  -0.001991  -0.000052   0.000000  -0.000000   0.000000
    32  H   -0.000661   0.000054   0.000010  -0.000000   0.000000  -0.000000
    33  H    0.020627   0.000091   0.000077  -0.000000   0.000000   0.000000
              13         14         15         16         17         18
     1  Zr  -0.033754  -0.015782  -0.084223  -0.124361  -0.081056  -0.026329
     2  O    0.185539   0.262502   0.293084   0.004698  -0.039758  -0.014548
     3  O    0.001639  -0.017744  -0.000677  -0.000502   0.008184   0.003737
     4  O   -0.015557  -0.008801   0.001234   0.345181   0.217498   0.198195
     5  O   -0.000675   0.001863   0.000586   0.003235   0.001331  -0.000618
     6  Si   0.034811   0.028588   0.000144  -0.424568  -0.451851  -0.451259
     7  Si   0.007236   0.009271  -0.002513   0.003776  -0.000805  -0.000760
     8  Si  -0.095644  -0.367485  -0.305062  -0.010415   0.096684   0.074980
     9  Si   0.000204  -0.001494  -0.000608  -0.001035   0.002546   0.004148
    10  O    0.000000  -0.000002   0.000000   0.000005  -0.000001  -0.000002
    11  O    0.000018   0.000002  -0.000024  -0.000003   0.000002  -0.000000
    12  O    0.000008   0.000017  -0.000015  -0.000001  -0.000006  -0.000001
    13  O    8.628025   0.086948  -0.090700   0.003739  -0.030898  -0.045675
    14  O    0.086948   8.673673   0.055569   0.003665  -0.035838  -0.026880
    15  O   -0.090700   0.055569   8.777942  -0.000175   0.003605   0.001676
    16  O    0.003739   0.003665  -0.000175   8.902362  -0.091813  -0.114762
    17  O   -0.030898  -0.035838   0.003605  -0.091813   8.935002   0.227455
    18  O   -0.045675  -0.026880   0.001676  -0.114762   0.227455   9.012828
    19  O    0.000177  -0.000477   0.000141  -0.001528  -0.029945   0.000160
    20  O    0.000008  -0.000249   0.000038   0.000065  -0.000979   0.000015
    21  O   -0.000253   0.015955  -0.000618  -0.000214  -0.005558   0.000479
    22  H   -0.000000  -0.000000   0.000000   0.000000   0.000000  -0.000000
    23  H    0.000000   0.000000  -0.000000  -0.000000   0.000000  -0.000000
    24  H   -0.000000   0.000000   0.000002   0.000000  -0.000000  -0.000000
    25  H    0.218422  -0.011941   0.008915  -0.000054   0.000632   0.014939
    26  H   -0.005111  -0.010090   0.216942   0.000000  -0.000003   0.000006
    27  H   -0.009710   0.219412   0.004632   0.000183   0.017928  -0.000254
    28  H    0.000000  -0.000006  -0.000001  -0.000000   0.000004  -0.000000
    29  H    0.000798   0.017574  -0.002574  -0.000004  -0.000397   0.000006
    30  H    0.000001   0.000001   0.000000   0.000115  -0.000403  -0.000007
    31  H    0.002364   0.000167  -0.000019   0.003767  -0.000746   0.218152
    32  H   -0.000008  -0.000006   0.000000   0.233461  -0.003636   0.003882
    33  H    0.000230   0.002093  -0.000035  -0.000106   0.231039   0.002103
              19         20         21         22         23         24
     1  Zr   0.001988  -0.145830   0.036410  -0.008969  -0.007674  -0.005249
     2  O    0.008913  -0.000575   0.010178  -0.000017  -0.000013  -0.000184
     3  O    0.265408   0.163775   0.146094  -0.000011  -0.000005  -0.000012
     4  O    0.010270  -0.000854   0.003435  -0.000009  -0.000055   0.000004
     5  O    0.002136   0.001491   0.000200   0.005804  -0.025278  -0.005314
     6  Si  -0.007714   0.009075  -0.011976   0.000087   0.000090   0.000078
     7  Si  -0.409900  -0.108902   0.024607  -0.000175   0.000059   0.000051
     8  Si  -0.016125   0.009636  -0.040126   0.000091   0.000062  -0.000081
     9  Si   0.001040   0.003140  -0.001773   0.047258   0.081073   0.037028
    10  O    0.000007   0.000003   0.000001  -0.006484   0.228600   0.007372
    11  O   -0.000002  -0.000003   0.000001  -0.005060  -0.006116   0.242524
    12  O   -0.000024  -0.000031   0.000022   0.219623   0.005869  -0.007427
    13  O    0.000177   0.000008  -0.000253  -0.000000   0.000000  -0.000000
    14  O   -0.000477  -0.000249   0.015955  -0.000000   0.000000   0.000000
    15  O    0.000141   0.000038  -0.000618   0.000000  -0.000000   0.000002
    16  O   -0.001528   0.000065  -0.000214   0.000000  -0.000000   0.000000
    17  O   -0.029945  -0.000979  -0.005558   0.000000   0.000000  -0.000000
    18  O    0.000160   0.000015   0.000479  -0.000000  -0.000000  -0.000000
    19  O    8.872929   0.032163   0.023366  -0.000000   0.000000  -0.000000
    20  O    0.032163   8.657272  -0.050409   0.000000   0.000000  -0.000000
    21  O    0.023366  -0.050409   8.485412  -0.000000   0.000000   0.000000
    22  H   -0.000000   0.000000  -0.000000   0.361757   0.000057   0.000123
    23  H    0.000000   0.000000   0.000000   0.000057   0.351008   0.000014
    24  H   -0.000000  -0.000000   0.000000   0.000123   0.000014   0.365264
    25  H   -0.000024   0.000000  -0.000019   0.000000   0.000000   0.000000
    26  H    0.000001  -0.000000   0.000039  -0.000000  -0.000000  -0.000000
    27  H    0.000033   0.000192  -0.004013  -0.000000  -0.000000   0.000000
    28  H    0.004621   0.229577  -0.002060  -0.000000   0.000000  -0.000000
    29  H   -0.008567   0.007666   0.206484   0.000000   0.000000  -0.000000
    30  H    0.224155  -0.001487  -0.007151   0.000000   0.000000  -0.000000
    31  H    0.000004  -0.000000  -0.000000  -0.000000  -0.000000   0.000000
    32  H    0.000097  -0.000000   0.000001  -0.000000  -0.000000  -0.000000
    33  H    0.014837  -0.000081   0.001477  -0.000000  -0.000000  -0.000000
              25         26         27         28         29         30
     1  Zr   0.016761   0.007266   0.003839   0.005065   0.004025   0.000715
     2  O   -0.019954   0.000629  -0.019121  -0.000011  -0.007052  -0.000012
     3  O   -0.000110   0.000014   0.000840  -0.018394  -0.020260   0.000045
     4  O   -0.000324  -0.000011  -0.001710  -0.000014  -0.000140  -0.000455
     5  O    0.000019  -0.000004   0.000011  -0.000015  -0.000073  -0.000008
     6  Si   0.002722  -0.000152   0.008946  -0.000282   0.000150  -0.000648
     7  Si  -0.000455  -0.000383   0.001385   0.056604   0.048168   0.040335
     8  Si   0.057410   0.046155   0.068479  -0.000064   0.021966   0.000114
     9  Si  -0.000209  -0.000044  -0.000006  -0.000137  -0.000058   0.000022
    10  O    0.000000  -0.000000   0.000000  -0.000000   0.000000  -0.000000
    11  O   -0.000000   0.000000  -0.000000  -0.000000   0.000000   0.000000
    12  O   -0.000000  -0.000000  -0.000000  -0.000003  -0.000001   0.000000
    13  O    0.218422  -0.005111  -0.009710   0.000000   0.000798   0.000001
    14  O   -0.011941  -0.010090   0.219412  -0.000006   0.017574   0.000001
    15  O    0.008915   0.216942   0.004632  -0.000001  -0.002574   0.000000
    16  O   -0.000054   0.000000   0.000183  -0.000000  -0.000004   0.000115
    17  O    0.000632  -0.000003   0.017928   0.000004  -0.000397  -0.000403
    18  O    0.014939   0.000006  -0.000254  -0.000000   0.000006  -0.000007
    19  O   -0.000024   0.000001   0.000033   0.004621  -0.008567   0.224155
    20  O    0.000000  -0.000000   0.000192   0.229577   0.007666  -0.001487
    21  O   -0.000019   0.000039  -0.004013  -0.002060   0.206484  -0.007151
    22  H    0.000000  -0.000000  -0.000000  -0.000000   0.000000   0.000000
    23  H    0.000000  -0.000000  -0.000000   0.000000   0.000000   0.000000
    24  H    0.000000  -0.000000   0.000000  -0.000000  -0.000000  -0.000000
    25  H    0.298851  -0.000012   0.000113   0.000000   0.000001   0.000000
    26  H   -0.000012   0.366016   0.000036   0.000000   0.000021  -0.000000
    27  H    0.000113   0.000036   0.283381  -0.000000  -0.001496   0.000009
    28  H    0.000000   0.000000  -0.000000   0.349177  -0.000017  -0.000016
    29  H    0.000001   0.000021  -0.001496  -0.000017   0.285943   0.000156
    30  H    0.000000  -0.000000   0.000009  -0.000016   0.000156   0.334294
    31  H   -0.000496   0.000000   0.000013  -0.000000   0.000000  -0.000000
    32  H   -0.000001   0.000000  -0.000000   0.000000  -0.000000  -0.000000
    33  H    0.000006  -0.000000  -0.002408  -0.000002   0.000099  -0.001158
              31         32         33
     1  Zr  -0.000114   0.002116  -0.015942
     2  O    0.000176  -0.000024   0.001018
     3  O   -0.000020   0.000040  -0.010118
     4  O   -0.018443   0.010442  -0.009594
     5  O   -0.000010   0.000001  -0.000101
     6  Si   0.063750   0.022751   0.053196
     7  Si   0.000154  -0.000661   0.020627
     8  Si  -0.001991   0.000054   0.000091
     9  Si  -0.000052   0.000010   0.000077
    10  O    0.000000  -0.000000  -0.000000
    11  O   -0.000000   0.000000   0.000000
    12  O    0.000000  -0.000000   0.000000
    13  O    0.002364  -0.000008   0.000230
    14  O    0.000167  -0.000006   0.002093
    15  O   -0.000019   0.000000  -0.000035
    16  O    0.003767   0.233461  -0.000106
    17  O   -0.000746  -0.003636   0.231039
    18  O    0.218152   0.003882   0.002103
    19  O    0.000004   0.000097   0.014837
    20  O   -0.000000  -0.000000  -0.000081
    21  O   -0.000000   0.000001   0.001477
    22  H   -0.000000  -0.000000  -0.000000
    23  H   -0.000000  -0.000000  -0.000000
    24  H    0.000000  -0.000000  -0.000000
    25  H   -0.000496  -0.000001   0.000006
    26  H    0.000000   0.000000  -0.000000
    27  H    0.000013  -0.000000  -0.002408
    28  H   -0.000000   0.000000  -0.000002
    29  H    0.000000  -0.000000   0.000099
    30  H   -0.000000  -0.000000  -0.001158
    31  H    0.331403   0.000001  -0.000038
    32  H    0.000001   0.349987   0.000157
    33  H   -0.000038   0.000157   0.269304
 Mulliken charges:
               1
     1  Zr   0.006690
     2  O   -0.550622
     3  O   -0.419814
     4  O   -0.680361
     5  O   -0.369802
     6  Si   2.229730
     7  Si   1.787244
     8  Si   2.017105
     9  Si   1.601424
    10  O   -0.843592
    11  O   -0.787398
    12  O   -0.791516
    13  O   -0.842181
    14  O   -0.880503
    15  O   -0.877268
    16  O   -0.734710
    17  O   -0.968217
    18  O   -1.081667
    19  O   -0.988141
    20  O   -0.804716
    21  O   -0.829992
    22  H    0.385926
    23  H    0.372309
    24  H    0.365808
    25  H    0.414808
    26  H    0.378684
    27  H    0.429288
    28  H    0.375972
    29  H    0.447582
    30  H    0.411384
    31  H    0.401979
    32  H    0.381337
    33  H    0.443230
 Sum of Mulliken charges =  -0.00000
 Mulliken charges with hydrogens summed into heavy atoms:
               1
     1  Zr   0.006690
     2  O   -0.550622
     3  O   -0.419814
     4  O   -0.680361
     5  O   -0.369802
     6  Si   2.229730
     7  Si   1.787244
     8  Si   2.017105
     9  Si   1.601424
    10  O   -0.471283
    11  O   -0.421590
    12  O   -0.405590
    13  O   -0.427372
    14  O   -0.451215
    15  O   -0.498585
    16  O   -0.353373
    17  O   -0.524986
    18  O   -0.679688
    19  O   -0.576758
    20  O   -0.428743
    21  O   -0.382410
 Electronic spatial extent (au):  <R**2>=           9868.9496
 Charge=              0.0000 electrons
 Dipole moment (field-independent basis, Debye):
    X=              1.0728    Y=             -0.7905    Z=             -2.4328  Tot=              2.7739
 Quadrupole moment (field-independent basis, Debye-Ang):
   XX=           -160.2087   YY=           -154.6753   ZZ=           -157.7619
   XY=             -4.9672   XZ=              2.1924   YZ=              5.7193
 Traceless Quadrupole moment (field-independent basis, Debye-Ang):
   XX=             -2.6600   YY=              2.8733   ZZ=             -0.2133
   XY=             -4.9672   XZ=              2.1924   YZ=              5.7193
 Octapole moment (field-independent basis, Debye-Ang**2):
  XXX=             74.3353  YYY=              6.5106  ZZZ=            -19.5972  XYY=             -2.5890
  XXY=             20.1186  XXZ=             19.2860  XZZ=              5.7282  YZZ=            -17.1647
  YYZ=            -14.9759  XYZ=             28.0504
 Hexadecapole moment (field-independent basis, Debye-Ang**3):
 XXXX=          -6031.7243 YYYY=          -2834.8344 ZZZZ=          -2259.9265 XXXY=             55.8354
 XXXZ=            -20.5947 YYYX=              3.8586 YYYZ=            216.4957 ZZZX=           -188.3057
 ZZZY=            -54.2118 XXYY=          -1486.4117 XXZZ=          -1358.7984 YYZZ=           -925.2763
 XXYZ=             -7.3188 YYXZ=            133.5853 ZZXY=            -59.1925
 N-N= 2.832830876417D+03 E-N=-1.137826241268D+04  KE= 2.373154811592D+03
 1\1\GINC-GRA364\FOpt\RB3LYP\Gen\H12O16Si4Zr1\SARASHS\14-Aug-2020\0\\#n
  B3LYP/Gen Pseudo=cards EmpiricalDispersion=GD3 Opt=modredundant\\Titl
 e\\0,1\Zr,0.6576275319,-0.1257859352,-0.0700172616\O,-0.2241404081,-0.
 9072204486,1.4781675971\O,0.103625134,1.7469988924,-0.1219455159\O,-0.
 2677982597,-0.9795466616,-1.5958248794\O,2.5919923259,-0.4363617708,-0
 .0825751624\Si,-1.8306246143,-1.3326157844,-1.9532500512\Si,-1.1146348
 373,2.8415280989,-0.0821824576\Si,-1.7254015669,-1.153444847,2.1154344
 868\Si,4.2158490904,-0.2634743133,0.0231266126\O,4.9603469231,-0.06386
 86665,-1.4368013843\O,4.8963239421,-1.626847487,0.6753682593\O,4.44383
 57096,1.1039556531,0.9176401865\O,-2.3212142497,-2.6242404523,1.695957
 8611\O,-2.7250721635,0.0650438833,1.5507969688\O,-1.5996455638,-1.0204
 042504,3.7446804476\O,-1.9999631527,-1.5601505722,-3.5775335643\O,-2.8
 24582788,-0.1865551744,-1.3019810667\O,-2.3447854367,-2.71431931,-1.18
 25303152\O,-2.0390198065,2.4399690238,-1.430198135\O,-0.6342441301,4.4
 002186949,-0.2986728895\O,-1.9655065677,2.7606613319,1.3139183454\H,5.
 3309884216,1.4800283076,0.9196718062\H,5.3100859847,-0.8649817341,-1.8
 430359871\H,4.4593941052,-2.0168167499,1.4406690201\H,-2.4072624418,-2
 .8095622548,0.7435229727\H,-2.3839425422,-1.2246097792,4.2654069436\H,
 -3.06094277,-0.0829136696,0.645706023\H,-0.5262687375,4.926824203,0.50
 151787\H,-2.2692801606,1.8691668561,1.5853393264\H,-2.6467735348,3.127
 4021518,-1.7302155918\H,-2.3044585444,-3.5295483276,-1.6952002432\H,-1
 .2693646777,-1.2636876302,-4.1316126551\H,-2.6094122145,0.7547287222,-
 1.4905475671\\Version=ES64L-G16RevB.01\State=1-A\HF=-2416.9468564\RMSD
 =3.270e-09\RMSF=9.614e-06\Dipole=0.4240928,-0.3113264,-0.9561345\Quadr
 upole=-1.9874364,2.1404337,-0.1529973,-3.7006747,1.6281385,4.2429587\P
 G=C01 [X(H12O16Si4Zr1)]\\@


 HERE WE GO......
 SLIDING DOWN THE RAZOR BLADE OF LIFE......
                                 TOM LEHRER
 Job cpu time:       0 days  8 hours 40 minutes  0.4 seconds.
 Elapsed time:       0 days  0 hours 40 minutes 14.0 seconds.
 File lengths (MBytes):  RWF=    167 Int=      0 D2E=      0 Chk=     21 Scr=      1
 Normal termination of Gaussian 16 at Fri Aug 14 03:34:01 2020.
