 Entering Gaussian System, Link 0=g16
 Initial command:
 /opt/software/gaussian/g16.b01/l1.exe "/localscratch/sarashs.37242630.0/Gau-78487.inp" -scrdir="/localscratch/sarashs.37242630.0/"
 Entering Link 1 = /opt/software/gaussian/g16.b01/l1.exe PID=     78492.
  
 Copyright (c) 1988-2017, Gaussian, Inc.  All Rights Reserved.
  
 This is part of the Gaussian(R) 16 program.  It is based on
 the Gaussian(R) 09 system (copyright 2009, Gaussian, Inc.),
 the Gaussian(R) 03 system (copyright 2003, Gaussian, Inc.),
 the Gaussian(R) 98 system (copyright 1998, Gaussian, Inc.),
 the Gaussian(R) 94 system (copyright 1995, Gaussian, Inc.),
 the Gaussian 92(TM) system (copyright 1992, Gaussian, Inc.),
 the Gaussian 90(TM) system (copyright 1990, Gaussian, Inc.),
 the Gaussian 88(TM) system (copyright 1988, Gaussian, Inc.),
 the Gaussian 86(TM) system (copyright 1986, Carnegie Mellon
 University), and the Gaussian 82(TM) system (copyright 1983,
 Carnegie Mellon University). Gaussian is a federally registered
 trademark of Gaussian, Inc.
  
 This software contains proprietary and confidential information,
 including trade secrets, belonging to Gaussian, Inc.
  
 This software is provided under written license and may be
 used, copied, transmitted, or stored only in accord with that
 written license.
  
 The following legend is applicable only to US Government
 contracts under FAR:
  
                    RESTRICTED RIGHTS LEGEND
  
 Use, reproduction and disclosure by the US Government is
 subject to restrictions as set forth in subparagraphs (a)
 and (c) of the Commercial Computer Software - Restricted
 Rights clause in FAR 52.227-19.
  
 Gaussian, Inc.
 340 Quinnipiac St., Bldg. 40, Wallingford CT 06492
  
  
 ---------------------------------------------------------------
 Warning -- This program may not be used in any manner that
 competes with the business of Gaussian, Inc. or will provide
 assistance to any competitor of Gaussian, Inc.  The licensee
 of this program is prohibited from giving any competitor of
 Gaussian, Inc. access to this program.  By using this program,
 the user acknowledges that Gaussian, Inc. is engaged in the
 business of creating and licensing software in the field of
 computational chemistry and represents and warrants to the
 licensee that it is not a competitor of Gaussian, Inc. and that
 it will not use this program in any manner prohibited above.
 ---------------------------------------------------------------
  

 Cite this work as:
 Gaussian 16, Revision B.01,
 M. J. Frisch, G. W. Trucks, H. B. Schlegel, G. E. Scuseria, 
 M. A. Robb, J. R. Cheeseman, G. Scalmani, V. Barone, 
 G. A. Petersson, H. Nakatsuji, X. Li, M. Caricato, A. V. Marenich, 
 J. Bloino, B. G. Janesko, R. Gomperts, B. Mennucci, H. P. Hratchian, 
 J. V. Ortiz, A. F. Izmaylov, J. L. Sonnenberg, D. Williams-Young, 
 F. Ding, F. Lipparini, F. Egidi, J. Goings, B. Peng, A. Petrone, 
 T. Henderson, D. Ranasinghe, V. G. Zakrzewski, J. Gao, N. Rega, 
 G. Zheng, W. Liang, M. Hada, M. Ehara, K. Toyota, R. Fukuda, 
 J. Hasegawa, M. Ishida, T. Nakajima, Y. Honda, O. Kitao, H. Nakai, 
 T. Vreven, K. Throssell, J. A. Montgomery, Jr., J. E. Peralta, 
 F. Ogliaro, M. J. Bearpark, J. J. Heyd, E. N. Brothers, K. N. Kudin, 
 V. N. Staroverov, T. A. Keith, R. Kobayashi, J. Normand, 
 K. Raghavachari, A. P. Rendell, J. C. Burant, S. S. Iyengar, 
 J. Tomasi, M. Cossi, J. M. Millam, M. Klene, C. Adamo, R. Cammi, 
 J. W. Ochterski, R. L. Martin, K. Morokuma, O. Farkas, 
 J. B. Foresman, and D. J. Fox, Gaussian, Inc., Wallingford CT, 2016.
 
 ******************************************
 Gaussian 16:  ES64L-G16RevB.01 20-Dec-2017
                14-Aug-2020 
 ******************************************
 %NProcShared=16
 Will use up to   16 processors via shared memory.
 ------------------------------------------------------------------
 #n B3LYP/Gen Pseudo=cards EmpiricalDispersion=GD3 Opt=modredundant
 ------------------------------------------------------------------
 1/18=120,19=15,26=3,38=1/1,3;
 2/9=110,12=2,17=6,18=5,40=1/2;
 3/5=7,11=2,16=1,17=8,25=1,30=1,71=1,74=-5,124=31/1,2,3;
 4//1;
 5/5=2,38=5/2;
 6/7=2,8=2,9=2,10=2,28=1/1;
 7//1,2,3,16;
 1/18=20,19=15,26=3/3(2);
 2/9=110/2;
 99//99;
 2/9=110/2;
 3/5=7,6=1,11=2,16=1,17=8,25=1,30=1,71=1,74=-5,82=7,124=31/1,2,3;
 4/5=5,16=3,69=1/1;
 5/5=2,38=5/2;
 7//1,2,3,16;
 1/18=20,19=15,26=3/3(-5);
 2/9=110/2;
 6/7=2,8=2,9=2,10=2,19=2,28=1/1;
 99/9=1/99;
 -----
 Title
 -----
 Symbolic Z-matrix:
 Charge =  0 Multiplicity = 1
 Zr                    0.65779  -0.12506  -0.07164 
 O                    -0.22285  -0.90624   1.4773 
 O                     0.10302   1.74748  -0.12299 
 O                    -0.2683   -0.97885  -1.59705 
 O                     2.59206  -0.4363   -0.08284 
 Si                   -1.83119  -1.33244  -1.9536 
 Si                   -1.1155    2.84172  -0.08279 
 Si                   -1.72376  -1.15291   2.11517 
 Si                    4.21746  -0.25213  -0.03647 
 O                     4.93034  -0.25451  -1.52555 
 O                     4.91419  -1.51422   0.78126 
 O                     4.46187   1.22465   0.65737 
 O                    -2.31924  -2.624     1.69627 
 O                    -2.72422   0.06508   1.55086 
 O                    -1.59734  -1.01957   3.74439 
 O                    -2.00144  -1.55965  -3.57782 
 O                    -2.82509  -0.18676  -1.30145 
 O                    -2.34448  -2.71439  -1.18277 
 O                    -2.04046   2.43957  -1.43023 
 O                    -0.63565   4.40049  -0.29987 
 O                    -1.96551   2.76086   1.31383 
 H                     5.34815   1.59651   0.58881 
 H                     5.27329  -1.10381  -1.82588 
 H                     4.49362  -1.7968    1.60097 
 H                    -2.40577  -2.80951   0.74392 
 H                    -2.38137  -1.22423   4.26535 
 H                    -3.06034  -0.08306   0.64589 
 H                    -0.52731   4.92728   0.50015 
 H                    -2.26909   1.86932   1.58533 
 H                    -2.64854   3.12676  -1.73014 
 H                    -2.30452  -3.52952  -1.69562 
 H                    -1.27114  -1.26305  -4.13223 
 H                    -2.61026   0.75461  -1.48993 
 
 The following ModRedundant input section has been read:
 A       1       5       9 F                                                   
 D       1       5       9      12 F                                           
 D       3       1       5       9 F                                           
 

 GradGradGradGradGradGradGradGradGradGradGradGradGradGradGradGradGradGrad
 Berny optimization.
 Initialization pass.
                           ----------------------------
                           !    Initial Parameters    !
                           ! (Angstroms and Degrees)  !
 --------------------------                            --------------------------
 ! Name  Definition              Value          Derivative Info.                !
 --------------------------------------------------------------------------------
 ! R1    R(1,2)                  1.9455         estimate D2E/DX2                !
 ! R2    R(1,3)                  1.9537         estimate D2E/DX2                !
 ! R3    R(1,4)                  1.9783         estimate D2E/DX2                !
 ! R4    R(1,5)                  1.9592         estimate D2E/DX2                !
 ! R5    R(2,8)                  1.6494         estimate D2E/DX2                !
 ! R6    R(3,7)                  1.6382         estimate D2E/DX2                !
 ! R7    R(4,6)                  1.6416         estimate D2E/DX2                !
 ! R8    R(5,9)                  1.6365         estimate D2E/DX2                !
 ! R9    R(6,16)                 1.6488         estimate D2E/DX2                !
 ! R10   R(6,17)                 1.651          estimate D2E/DX2                !
 ! R11   R(6,18)                 1.6636         estimate D2E/DX2                !
 ! R12   R(7,19)                 1.6831         estimate D2E/DX2                !
 ! R13   R(7,20)                 1.6453         estimate D2E/DX2                !
 ! R14   R(7,21)                 1.6369         estimate D2E/DX2                !
 ! R15   R(8,13)                 1.6414         estimate D2E/DX2                !
 ! R16   R(8,14)                 1.6742         estimate D2E/DX2                !
 ! R17   R(8,15)                 1.6395         estimate D2E/DX2                !
 ! R18   R(9,10)                 1.6509         estimate D2E/DX2                !
 ! R19   R(9,11)                 1.6574         estimate D2E/DX2                !
 ! R20   R(9,12)                 1.6499         estimate D2E/DX2                !
 ! R21   R(10,23)                0.9639         estimate D2E/DX2                !
 ! R22   R(11,24)                0.9637         estimate D2E/DX2                !
 ! R23   R(12,22)                0.9636         estimate D2E/DX2                !
 ! R24   R(13,25)                0.9741         estimate D2E/DX2                !
 ! R25   R(14,27)                0.9767         estimate D2E/DX2                !
 ! R26   R(15,26)                0.9633         estimate D2E/DX2                !
 ! R27   R(16,32)                0.9637         estimate D2E/DX2                !
 ! R28   R(17,33)                0.9838         estimate D2E/DX2                !
 ! R29   R(18,31)                0.9639         estimate D2E/DX2                !
 ! R30   R(19,30)                0.9654         estimate D2E/DX2                !
 ! R31   R(20,28)                0.964          estimate D2E/DX2                !
 ! R32   R(21,29)                0.9802         estimate D2E/DX2                !
 ! A1    A(2,1,3)              106.0959         estimate D2E/DX2                !
 ! A2    A(2,1,4)              103.2214         estimate D2E/DX2                !
 ! A3    A(2,1,5)              112.8091         estimate D2E/DX2                !
 ! A4    A(3,1,4)              105.0977         estimate D2E/DX2                !
 ! A5    A(3,1,5)              115.6243         estimate D2E/DX2                !
 ! A6    A(4,1,5)              112.9055         estimate D2E/DX2                !
 ! A7    A(1,2,8)              141.2479         estimate D2E/DX2                !
 ! A8    A(1,3,7)              148.2962         estimate D2E/DX2                !
 ! A9    A(1,4,6)              134.9216         estimate D2E/DX2                !
 ! A10   A(1,5,9)              164.2747         Frozen                          !
 ! A11   A(4,6,16)             109.9952         estimate D2E/DX2                !
 ! A12   A(4,6,17)             109.7479         estimate D2E/DX2                !
 ! A13   A(4,6,18)             111.8422         estimate D2E/DX2                !
 ! A14   A(16,6,17)            114.9972         estimate D2E/DX2                !
 ! A15   A(16,6,18)            108.0658         estimate D2E/DX2                !
 ! A16   A(17,6,18)            101.9869         estimate D2E/DX2                !
 ! A17   A(3,7,19)             103.269          estimate D2E/DX2                !
 ! A18   A(3,7,20)             114.3706         estimate D2E/DX2                !
 ! A19   A(3,7,21)             111.9733         estimate D2E/DX2                !
 ! A20   A(19,7,20)            106.3205         estimate D2E/DX2                !
 ! A21   A(19,7,21)            112.6973         estimate D2E/DX2                !
 ! A22   A(20,7,21)            108.1076         estimate D2E/DX2                !
 ! A23   A(2,8,13)             111.4365         estimate D2E/DX2                !
 ! A24   A(2,8,14)             107.7362         estimate D2E/DX2                !
 ! A25   A(2,8,15)             107.5759         estimate D2E/DX2                !
 ! A26   A(13,8,14)            110.4391         estimate D2E/DX2                !
 ! A27   A(13,8,15)            110.7606         estimate D2E/DX2                !
 ! A28   A(14,8,15)            108.7751         estimate D2E/DX2                !
 ! A29   A(5,9,10)             113.7764         estimate D2E/DX2                !
 ! A30   A(5,9,11)             110.2316         estimate D2E/DX2                !
 ! A31   A(5,9,12)             105.0577         estimate D2E/DX2                !
 ! A32   A(10,9,11)            105.2122         estimate D2E/DX2                !
 ! A33   A(10,9,12)            108.4599         estimate D2E/DX2                !
 ! A34   A(11,9,12)            114.3205         estimate D2E/DX2                !
 ! A35   A(9,10,23)            115.8446         estimate D2E/DX2                !
 ! A36   A(9,11,24)            117.3553         estimate D2E/DX2                !
 ! A37   A(9,12,22)            116.8572         estimate D2E/DX2                !
 ! A38   A(8,13,25)            116.8991         estimate D2E/DX2                !
 ! A39   A(8,14,27)            114.056          estimate D2E/DX2                !
 ! A40   A(8,15,26)            117.2166         estimate D2E/DX2                !
 ! A41   A(6,16,32)            116.4907         estimate D2E/DX2                !
 ! A42   A(6,17,33)            117.1859         estimate D2E/DX2                !
 ! A43   A(6,18,31)            116.3076         estimate D2E/DX2                !
 ! A44   A(7,19,30)            115.1373         estimate D2E/DX2                !
 ! A45   A(7,20,28)            116.1676         estimate D2E/DX2                !
 ! A46   A(7,21,29)            116.2372         estimate D2E/DX2                !
 ! D1    D(3,1,2,8)             57.7292         estimate D2E/DX2                !
 ! D2    D(4,1,2,8)            -52.5301         estimate D2E/DX2                !
 ! D3    D(5,1,2,8)           -174.7067         estimate D2E/DX2                !
 ! D4    D(2,1,3,7)            -50.098          estimate D2E/DX2                !
 ! D5    D(4,1,3,7)             58.8315         estimate D2E/DX2                !
 ! D6    D(5,1,3,7)           -175.9641         estimate D2E/DX2                !
 ! D7    D(2,1,4,6)             42.7683         estimate D2E/DX2                !
 ! D8    D(3,1,4,6)            -68.2312         estimate D2E/DX2                !
 ! D9    D(5,1,4,6)            164.8802         estimate D2E/DX2                !
 ! D10   D(2,1,5,9)           -113.3632         estimate D2E/DX2                !
 ! D11   D(3,1,5,9)              9.0001         Frozen                          !
 ! D12   D(4,1,5,9)            130.0823         estimate D2E/DX2                !
 ! D13   D(1,2,8,13)            93.5308         estimate D2E/DX2                !
 ! D14   D(1,2,8,14)           -27.7655         estimate D2E/DX2                !
 ! D15   D(1,2,8,15)          -144.8802         estimate D2E/DX2                !
 ! D16   D(1,3,7,19)           -61.1012         estimate D2E/DX2                !
 ! D17   D(1,3,7,20)          -176.1751         estimate D2E/DX2                !
 ! D18   D(1,3,7,21)            60.409          estimate D2E/DX2                !
 ! D19   D(1,4,6,16)           160.167          estimate D2E/DX2                !
 ! D20   D(1,4,6,17)            32.6925         estimate D2E/DX2                !
 ! D21   D(1,4,6,18)           -79.742          estimate D2E/DX2                !
 ! D22   D(1,5,9,10)          -100.1298         estimate D2E/DX2                !
 ! D23   D(1,5,9,11)           141.9686         estimate D2E/DX2                !
 ! D24   D(1,5,9,12)            18.3489         Frozen                          !
 ! D25   D(4,6,16,32)          -14.1998         estimate D2E/DX2                !
 ! D26   D(17,6,16,32)         110.2979         estimate D2E/DX2                !
 ! D27   D(18,6,16,32)        -136.5531         estimate D2E/DX2                !
 ! D28   D(4,6,17,33)           51.0095         estimate D2E/DX2                !
 ! D29   D(16,6,17,33)         -73.6179         estimate D2E/DX2                !
 ! D30   D(18,6,17,33)         169.7166         estimate D2E/DX2                !
 ! D31   D(4,6,18,31)          -96.4424         estimate D2E/DX2                !
 ! D32   D(16,6,18,31)          24.7715         estimate D2E/DX2                !
 ! D33   D(17,6,18,31)         146.349          estimate D2E/DX2                !
 ! D34   D(3,7,19,30)         -162.1837         estimate D2E/DX2                !
 ! D35   D(20,7,19,30)         -41.4662         estimate D2E/DX2                !
 ! D36   D(21,7,19,30)          76.796          estimate D2E/DX2                !
 ! D37   D(3,7,20,28)          -98.427          estimate D2E/DX2                !
 ! D38   D(19,7,20,28)         148.2947         estimate D2E/DX2                !
 ! D39   D(21,7,20,28)          27.0455         estimate D2E/DX2                !
 ! D40   D(3,7,21,29)          -49.8995         estimate D2E/DX2                !
 ! D41   D(19,7,21,29)          66.0156         estimate D2E/DX2                !
 ! D42   D(20,7,21,29)        -176.7753         estimate D2E/DX2                !
 ! D43   D(2,8,13,25)          -58.468          estimate D2E/DX2                !
 ! D44   D(14,8,13,25)          61.2404         estimate D2E/DX2                !
 ! D45   D(15,8,13,25)        -178.1888         estimate D2E/DX2                !
 ! D46   D(2,8,14,27)           80.2918         estimate D2E/DX2                !
 ! D47   D(13,8,14,27)         -41.6247         estimate D2E/DX2                !
 ! D48   D(15,8,14,27)        -163.3756         estimate D2E/DX2                !
 ! D49   D(2,8,15,26)         -174.1994         estimate D2E/DX2                !
 ! D50   D(13,8,15,26)         -52.1897         estimate D2E/DX2                !
 ! D51   D(14,8,15,26)          69.3652         estimate D2E/DX2                !
 ! D52   D(5,9,10,23)          -94.8507         estimate D2E/DX2                !
 ! D53   D(11,9,10,23)          25.9069         estimate D2E/DX2                !
 ! D54   D(12,9,10,23)         148.6394         estimate D2E/DX2                !
 ! D55   D(5,9,11,24)          -43.8216         estimate D2E/DX2                !
 ! D56   D(10,9,11,24)        -166.8803         estimate D2E/DX2                !
 ! D57   D(12,9,11,24)          74.239          estimate D2E/DX2                !
 ! D58   D(5,9,12,22)         -166.4773         estimate D2E/DX2                !
 ! D59   D(10,9,12,22)         -44.4747         estimate D2E/DX2                !
 ! D60   D(11,9,12,22)          72.5539         estimate D2E/DX2                !
 --------------------------------------------------------------------------------
 Trust Radius=3.00D-01 FncErr=1.00D-07 GrdErr=1.00D-06 EigMax=2.50D+02 EigMin=1.00D-04
 Number of steps in this run=    148 maximum allowed number of steps=    198.
 GradGradGradGradGradGradGradGradGradGradGradGradGradGradGradGradGradGrad

                          Input orientation:                          
 ---------------------------------------------------------------------
 Center     Atomic      Atomic             Coordinates (Angstroms)
 Number     Number       Type             X           Y           Z
 ---------------------------------------------------------------------
      1         40           0        0.657790   -0.125060   -0.071640
      2          8           0       -0.222850   -0.906240    1.477300
      3          8           0        0.103020    1.747480   -0.122990
      4          8           0       -0.268300   -0.978850   -1.597050
      5          8           0        2.592060   -0.436300   -0.082840
      6         14           0       -1.831190   -1.332440   -1.953600
      7         14           0       -1.115500    2.841720   -0.082790
      8         14           0       -1.723760   -1.152910    2.115170
      9         14           0        4.217460   -0.252130   -0.036470
     10          8           0        4.930340   -0.254510   -1.525550
     11          8           0        4.914190   -1.514220    0.781260
     12          8           0        4.461870    1.224650    0.657370
     13          8           0       -2.319240   -2.624000    1.696270
     14          8           0       -2.724220    0.065080    1.550860
     15          8           0       -1.597340   -1.019570    3.744390
     16          8           0       -2.001440   -1.559650   -3.577820
     17          8           0       -2.825090   -0.186760   -1.301450
     18          8           0       -2.344480   -2.714390   -1.182770
     19          8           0       -2.040460    2.439570   -1.430230
     20          8           0       -0.635650    4.400490   -0.299870
     21          8           0       -1.965510    2.760860    1.313830
     22          1           0        5.348150    1.596510    0.588810
     23          1           0        5.273290   -1.103810   -1.825880
     24          1           0        4.493620   -1.796800    1.600970
     25          1           0       -2.405770   -2.809510    0.743920
     26          1           0       -2.381370   -1.224230    4.265350
     27          1           0       -3.060340   -0.083060    0.645890
     28          1           0       -0.527310    4.927280    0.500150
     29          1           0       -2.269090    1.869320    1.585330
     30          1           0       -2.648540    3.126760   -1.730140
     31          1           0       -2.304520   -3.529520   -1.695620
     32          1           0       -1.271140   -1.263050   -4.132230
     33          1           0       -2.610260    0.754610   -1.489930
 ---------------------------------------------------------------------
                    Distance matrix (angstroms):
                    1          2          3          4          5
     1  Zr   0.000000
     2  O    1.945504   0.000000
     3  O    1.953666   3.115983   0.000000
     4  O    1.978251   3.075543   3.121475   0.000000
     5  O    1.959183   3.252476   3.311469   3.281593   0.000000
     6  Si   3.345827   3.813067   4.071635   1.641578   4.885484
     7  Si   3.456366   4.156670   1.638221   4.196128   4.948880
     8  Si   3.392697   1.649380   4.093745   3.991145   4.896027
     9  Si   3.562111   4.736635   4.575428   4.804745   1.636458
    10  O    4.515008   5.999769   5.410929   5.249346   2.753546
    11  O    4.557866   5.219511   5.882492   5.727232   2.702012
    12  O    4.101731   5.211485   4.458911   5.684394   2.608228
    13  O    4.270002   2.719099   5.318542   4.214123   5.663226
    14  O    3.755882   2.684348   3.691278   4.126823   5.584191
    15  O    4.521929   2.653632   5.050190   5.504452   5.704294
    16  O    4.628483   5.398571   5.225104   2.695283   5.880225
    17  O    3.694143   3.874372   3.701875   2.692947   5.558129
    18  O    4.117386   3.853141   5.198238   2.737563   5.546978
    19  O    3.962783   4.790812   2.604299   3.854086   5.616612
    20  O    4.712290   5.611606   2.759598   5.545712   5.818913
    21  O    4.138812   4.063399   2.714813   5.033803   5.739683
    22  H    5.039789   6.171646   5.295360   6.554004   3.489909
    23  H    5.033701   6.415418   6.145029   5.547720   3.266918
    24  H    4.506210   4.801404   5.900112   5.794157   2.881338
    25  H    4.154132   2.987545   5.273682   3.660633   5.594101
    26  H    5.408711   3.540275   5.853271   6.236426   6.653014
    27  H    3.786965   3.069237   3.734823   3.691708   5.710118
    28  H    5.220876   5.922624   3.301022   6.272775   6.232041
    29  H    3.910208   3.450000   2.925766   4.716225   5.632890
    30  H    4.925117   5.695325   3.472237   4.747556   6.547739
    31  H    4.796138   4.613282   6.009671   3.265245   6.012118
    32  H    4.637260   5.717784   5.198616   2.741094   5.657331
    33  H    3.669539   4.154829   3.196280   2.915671   5.519266
                    6          7          8          9         10
     6  Si   0.000000
     7  Si   4.629876   0.000000
     8  Si   4.074145   4.599791   0.000000
     9  Si   6.436507   6.165591   6.382715   0.000000
    10  O    6.860280   6.944089   7.637998   1.650928   0.000000
    11  O    7.280979   7.488522   6.780283   1.657403   2.628403
    12  O    7.277258   5.854042   6.785278   1.649857   2.678156
    13  O    3.902290   5.872660   1.641396   7.166352   8.279554
    14  O    3.877087   3.600906   1.674176   7.127914   8.255830
    15  O    5.711363   5.457933   1.639549   6.978235   8.424262
    16  O    1.648848   5.689656   5.714252   7.274990   7.346072
    17  O    1.650975   3.685040   3.717481   7.155554   7.758963
    18  O    1.663560   5.795749   3.701340   7.101816   7.687100
    19  O    3.813892   1.683113   5.057279   6.953372   7.473902
    20  O    6.085279   1.645340   6.152776   6.728219   7.358774
    21  O    5.239203   1.636949   4.002272   7.009318   8.044084
    22  H    8.159995   6.616673   7.739573   2.255417   2.841014
    23  H    7.109305   7.708580   8.030753   2.245467   0.963910
    24  H    7.270063   7.470819   6.271747   2.267924   3.513476
    25  H    3.128657   5.855309   2.256056   7.142575   8.093023
    26  H    6.244177   6.086107   2.249625   7.936951   9.377419
    27  H    3.135141   3.587160   2.256060   7.311674   8.282241
    28  H    6.848729   2.243958   6.403787   7.044650   7.793610
    29  H    4.792395   2.249212   3.116406   7.014707   8.125270
    30  H    4.538993   2.268308   5.827281   7.837562   8.301462
    31  H    2.262246   6.678899   4.528540   7.485338   7.943413
    32  H    2.250533   5.768130   6.264743   6.922567   6.802227
    33  H    2.275460   2.927521   4.173878   7.052931   7.607906
                   11         12         13         14         15
    11  O    0.000000
    12  O    2.778732   0.000000
    13  O    7.375050   7.866058   0.000000
    14  O    7.837843   7.333677   2.723289   0.000000
    15  O    7.171112   7.161022   2.700024   2.694049   0.000000
    16  O    8.174936   8.213619   5.389792   5.428215   7.353213
    17  O    8.123810   7.676512   3.896453   2.865182   5.259415
    18  O    7.614861   8.076419   2.880569   3.916936   5.263795
    19  O    8.300018   6.936454   5.957555   3.872032   6.240088
    20  O    8.182503   6.081692   7.494165   5.155881   6.830662
    21  O    8.117279   6.640941   5.410000   2.810526   4.509415
    22  H    3.146744   0.963573   8.822020   8.272483   8.064824
    23  H    2.663563   3.499523   8.506646   8.759500   8.845369
    24  H    0.963668   3.165525   6.863556   7.454282   6.503701
    25  H    7.433773   7.965326   0.974101   3.002637   3.586121
    26  H    8.090005   8.114460   2.926327   3.024619   0.963321
    27  H    8.103066   7.635043   2.847614   0.976674   3.552200
    28  H    8.436935   6.214990   7.852614   5.437959   6.858213
    29  H    7.980876   6.825140   4.494969   1.861079   3.668579
    30  H    9.221752   7.737969   6.702236   4.488271   6.947485
    31  H    7.893424   8.597833   3.510712   4.861783   6.032716
    32  H    7.903403   7.873774   6.076357   6.014390   7.887131
    33  H    8.180663   7.405866   4.653125   3.120071   5.618881
                   16         17         18         19         20
    16  O    0.000000
    17  O    2.783000   0.000000
    18  O    2.680926   2.575652   0.000000
    19  O    4.539540   2.744055   5.168846   0.000000
    20  O    6.937839   5.180702   7.370287   2.663909   0.000000
    21  O    6.526587   4.033241   6.029510   2.763822   2.657243
    22  H    9.018793   8.576420   8.994382   7.705766   6.667677
    23  H    7.496585   8.166992   7.812681   8.136524   8.218369
    24  H    8.310350   8.036155   7.439811   8.356387   8.266136
    25  H    4.516976   3.352340   1.930010   5.693261   7.497128
    26  H    7.859527   5.680008   5.648358   6.780802   7.451594
    27  H    4.597968   1.964238   3.283344   3.422586   5.184188
    28  H    7.802766   5.888884   8.033022   3.493521   0.963990
    29  H    6.203837   3.587492   5.355227   3.077509   3.553720
    30  H    5.078888   3.345797   5.874615   0.965369   2.778450
    31  H    2.741336   3.405937   0.963872   5.980819   8.223035
    32  H    0.963680   3.403891   3.458000   4.647801   6.867788
    33  H    3.175806   0.983796   3.492699   1.779698   4.313672
                   21         22         23         24         25
    21  O    0.000000
    22  H    7.441168   0.000000
    23  H    8.785993   3.623266   0.000000
    24  H    7.910441   3.642697   3.582097   0.000000
    25  H    5.616729   8.919661   8.275340   7.025788   0.000000
    26  H    4.976480   9.012158   9.783221   7.395421   3.861888
    27  H    3.119724   8.574784   8.752198   7.804575   2.805637
    28  H    2.724678   6.754474   8.685127   8.463734   7.965297
    29  H    0.980162   7.686990   8.795644   7.692524   4.755849
    30  H    3.141045   8.465592   8.981218   9.292372   6.435776
    31  H    6.981447   9.489898   7.957653   7.751421   2.545589
    32  H    6.806877   8.618602   6.940762   8.147817   5.239825
    33  H    3.507394   8.268388   8.106599   8.156498   4.211277
                   26         27         28         29         30
    26  H    0.000000
    27  H    3.855355   0.000000
    28  H    7.446835   5.616136   0.000000
    29  H    4.094529   2.306602   3.682734   0.000000
    30  H    7.412718   4.014728   3.565906   3.566157   0.000000
    31  H    6.391669   4.234622   8.916129   6.317702   6.665254
    32  H    8.470742   5.236797   7.767394   6.595312   5.190154
    33  H    6.090275   2.337946   5.070530   3.288799   2.384588
                   31         32         33
    31  H    0.000000
    32  H    3.484513   0.000000
    33  H    4.299948   3.584124   0.000000
 Stoichiometry    H12O16Si4Zr
 Framework group  C1[X(H12O16Si4Zr)]
 Deg. of freedom    93
 Full point group                 C1      NOp   1
 Largest Abelian subgroup         C1      NOp   1
 Largest concise Abelian subgroup C1      NOp   1
                         Standard orientation:                         
 ---------------------------------------------------------------------
 Center     Atomic      Atomic             Coordinates (Angstroms)
 Number     Number       Type             X           Y           Z
 ---------------------------------------------------------------------
      1         40           0        0.657898   -0.128673   -0.053606
      2          8           0       -0.242410   -0.905241    1.486320
      3          8           0        0.108118    1.745054   -0.114434
      4          8           0       -0.252476   -0.982859   -1.588227
      5          8           0        2.591438   -0.444395   -0.041923
      6         14           0       -1.811958   -1.333434   -1.962252
      7         14           0       -1.108236    2.842169   -0.090122
      8         14           0       -1.751165   -1.147385    2.107189
      9         14           0        4.216618   -0.263900    0.022944
     10          8           0        4.946661   -0.270402   -1.457785
     11          8           0        4.900906   -1.526233    0.850742
     12          8           0        4.456424    1.213463    0.717147
     13          8           0       -2.345184   -2.617791    1.683837
     14          8           0       -2.742196    0.071971    1.529352
     15          8           0       -1.643283   -1.011628    3.737542
     16          8           0       -1.963944   -1.562951   -3.587959
     17          8           0       -2.810663   -0.184379   -1.323518
     18          8           0       -2.337341   -2.712911   -1.195151
     19          8           0       -2.018487    2.439915   -1.447511
     20          8           0       -0.622282    4.399464   -0.304187
     21          8           0       -1.974524    2.765594    1.296703
     22          1           0        5.344301    1.583162    0.658235
     23          1           0        5.291083   -1.120990   -1.752738
     24          1           0        4.470230   -1.806478    1.665994
     25          1           0       -2.421127   -2.804685    0.730855
     26          1           0       -2.433758   -1.213611    4.249732
     27          1           0       -3.068173   -0.076898    0.620798
     28          1           0       -0.521974    4.927333    0.496169
     29          1           0       -2.283297    1.875210    1.566132
     30          1           0       -2.621457    3.128007   -1.755559
     31          1           0       -2.293351   -3.528983   -1.706170
     32          1           0       -1.226593   -1.268960   -4.134369
     33          1           0       -2.591478    0.756177   -1.511040
 ---------------------------------------------------------------------
 Rotational constants (GHZ):           0.2124479           0.1338127           0.1240463
 General basis read from cards:  (5D, 7F)
 ======================================================================================================
                                       Pseudopotential Parameters
 ======================================================================================================
  Center     Atomic      Valence      Angular      Power
  Number     Number     Electrons     Momentum     of R      Exponent        Coefficient   SO-Coeffient
 ======================================================================================================
    1         40           12
                                      G and up 
                                                     2        1.0000000        0.00000000    0.00000000
                                      S - G
                                                     2        8.6365280      150.24299400    0.00000000
                                                     2        3.7176390       18.78003600    0.00000000
                                      P - G
                                                     2        7.6267280       33.19279100    0.00000000
                                                     2        7.4532070       66.38903900    0.00000000
                                                     2        3.3583890        4.62072600    0.00000000
                                                     2        3.2297380        9.26027000    0.00000000
                                      D - G
                                                     2        5.9380860       13.99338300    0.00000000
                                                     2        5.8255440       20.99588200    0.00000000
                                                     2        2.2050190        2.28516600    0.00000000
                                                     2        2.2062920        3.44126000    0.00000000
                                      F - G
                                                     2        4.8002150       -5.23932000    0.00000000
                                                     2        4.7989920       -6.98742400    0.00000000
    2          8
                                   No pseudopotential on this center.
    3          8
                                   No pseudopotential on this center.
    4          8
                                   No pseudopotential on this center.
    5          8
                                   No pseudopotential on this center.
    6         14
                                   No pseudopotential on this center.
    7         14
                                   No pseudopotential on this center.
    8         14
                                   No pseudopotential on this center.
    9         14
                                   No pseudopotential on this center.
   10          8
                                   No pseudopotential on this center.
   11          8
                                   No pseudopotential on this center.
   12          8
                                   No pseudopotential on this center.
   13          8
                                   No pseudopotential on this center.
   14          8
                                   No pseudopotential on this center.
   15          8
                                   No pseudopotential on this center.
   16          8
                                   No pseudopotential on this center.
   17          8
                                   No pseudopotential on this center.
   18          8
                                   No pseudopotential on this center.
   19          8
                                   No pseudopotential on this center.
   20          8
                                   No pseudopotential on this center.
   21          8
                                   No pseudopotential on this center.
   22          1
                                   No pseudopotential on this center.
   23          1
                                   No pseudopotential on this center.
   24          1
                                   No pseudopotential on this center.
   25          1
                                   No pseudopotential on this center.
   26          1
                                   No pseudopotential on this center.
   27          1
                                   No pseudopotential on this center.
   28          1
                                   No pseudopotential on this center.
   29          1
                                   No pseudopotential on this center.
   30          1
                                   No pseudopotential on this center.
   31          1
                                   No pseudopotential on this center.
   32          1
                                   No pseudopotential on this center.
   33          1
                                   No pseudopotential on this center.
 ======================================================================================================
 There are   570 symmetry adapted cartesian basis functions of A   symmetry.
 There are   524 symmetry adapted basis functions of A   symmetry.
   524 basis functions,  1074 primitive gaussians,   570 cartesian basis functions
   104 alpha electrons      104 beta electrons
       nuclear repulsion energy      2832.8859805314 Hartrees.
 NAtoms=   33 NActive=   33 NUniq=   33 SFac= 1.00D+00 NAtFMM=   60 NAOKFM=F Big=F
 Integral buffers will be    131072 words long.
 Raffenetti 2 integral format.
 Two-electron integral symmetry is turned on.
 Nuclear repulsion after empirical dispersion term =     2832.8451746609 Hartrees.
 One-electron integrals computed using PRISM.
 PrsmSu:  requested number of processors reduced to:   4 ShMem   1 Linda.
   1 Symmetry operations used in ECPInt.
 ECPInt:  NShTT=   13203 NPrTT=   78401 LenC2=   11530 LenP2D=   44641.
 LDataN:  DoStor=T MaxTD1= 8 Len=  415
 Number of processors reduced to  13 by ecpmxn.
 NBasis=   524 RedAO= T EigKep=  3.13D-05  NBF=   524
 NBsUse=   524 1.00D-06 EigRej= -1.00D+00 NBFU=   524
 Defaulting to unpruned grid for atomic number  40.
 ExpMin= 1.01D-02 ExpMax= 1.61D+04 ExpMxC= 2.43D+03 IAcc=3 IRadAn=         5 AccDes= 0.00D+00
 Harris functional with IExCor=  402 and IRadAn=       5 diagonalized for initial guess.
 HarFok:  IExCor=  402 AccDes= 0.00D+00 IRadAn=         5 IDoV= 1 UseB2=F ITyADJ=14
 ICtDFT=  3500011 ScaDFX=  1.000000  1.000000  1.000000  1.000000
 Defaulting to unpruned grid for atomic number  40.
 FoFCou: FMM=F IPFlag=           0 FMFlag=      100000 FMFlg1=           0
         NFxFlg=           0 DoJE=T BraDBF=F KetDBF=T FulRan=T
         wScrn=  0.000000 ICntrl=       500 IOpCl=  0 I1Cent=   200000004 NGrid=           0
         NMat0=    1 NMatS0=      1 NMatT0=    0 NMatD0=    1 NMtDS0=    0 NMtDT0=    0
 Petite list used in FoFCou.
 Requested convergence on RMS density matrix=1.00D-08 within 128 cycles.
 Requested convergence on MAX density matrix=1.00D-06.
 Requested convergence on             energy=1.00D-06.
 No special actions if energy rises.
 Defaulting to unpruned grid for atomic number  40.
 Defaulting to unpruned grid for atomic number  40.
 Defaulting to unpruned grid for atomic number  40.
 Defaulting to unpruned grid for atomic number  40.
 Defaulting to unpruned grid for atomic number  40.
 Defaulting to unpruned grid for atomic number  40.
 Defaulting to unpruned grid for atomic number  40.
 Defaulting to unpruned grid for atomic number  40.
 Defaulting to unpruned grid for atomic number  40.
 Defaulting to unpruned grid for atomic number  40.
 Defaulting to unpruned grid for atomic number  40.
 Defaulting to unpruned grid for atomic number  40.
 Defaulting to unpruned grid for atomic number  40.
 Defaulting to unpruned grid for atomic number  40.
 Defaulting to unpruned grid for atomic number  40.
 Defaulting to unpruned grid for atomic number  40.
 SCF Done:  E(RB3LYP) =  -2416.94684486     A.U. after   14 cycles
            NFock= 14  Conv=0.25D-08     -V/T= 2.0185

 **********************************************************************

            Population analysis using the SCF Density.

 **********************************************************************

 Orbital symmetries:
       Occupied  (A) (A) (A) (A) (A) (A) (A) (A) (A) (A) (A) (A)
                 (A) (A) (A) (A) (A) (A) (A) (A) (A) (A) (A) (A)
                 (A) (A) (A) (A) (A) (A) (A) (A) (A) (A) (A) (A)
                 (A) (A) (A) (A) (A) (A) (A) (A) (A) (A) (A) (A)
                 (A) (A) (A) (A) (A) (A) (A) (A) (A) (A) (A) (A)
                 (A) (A) (A) (A) (A) (A) (A) (A) (A) (A) (A) (A)
                 (A) (A) (A) (A) (A) (A) (A) (A) (A) (A) (A) (A)
                 (A) (A) (A) (A) (A) (A) (A) (A) (A) (A) (A) (A)
                 (A) (A) (A) (A) (A) (A) (A) (A)
       Virtual   (A) (A) (A) (A) (A) (A) (A) (A) (A) (A) (A) (A)
                 (A) (A) (A) (A) (A) (A) (A) (A) (A) (A) (A) (A)
                 (A) (A) (A) (A) (A) (A) (A) (A) (A) (A) (A) (A)
                 (A) (A) (A) (A) (A) (A) (A) (A) (A) (A) (A) (A)
                 (A) (A) (A) (A) (A) (A) (A) (A) (A) (A) (A) (A)
                 (A) (A) (A) (A) (A) (A) (A) (A) (A) (A) (A) (A)
                 (A) (A) (A) (A) (A) (A) (A) (A) (A) (A) (A) (A)
                 (A) (A) (A) (A) (A) (A) (A) (A) (A) (A) (A) (A)
                 (A) (A) (A) (A) (A) (A) (A) (A) (A) (A) (A) (A)
                 (A) (A) (A) (A) (A) (A) (A) (A) (A) (A) (A) (A)
                 (A) (A) (A) (A) (A) (A) (A) (A) (A) (A) (A) (A)
                 (A) (A) (A) (A) (A) (A) (A) (A) (A) (A) (A) (A)
                 (A) (A) (A) (A) (A) (A) (A) (A) (A) (A) (A) (A)
                 (A) (A) (A) (A) (A) (A) (A) (A) (A) (A) (A) (A)
                 (A) (A) (A) (A) (A) (A) (A) (A) (A) (A) (A) (A)
                 (A) (A) (A) (A) (A) (A) (A) (A) (A) (A) (A) (A)
                 (A) (A) (A) (A) (A) (A) (A) (A) (A) (A) (A) (A)
                 (A) (A) (A) (A) (A) (A) (A) (A) (A) (A) (A) (A)
                 (A) (A) (A) (A) (A) (A) (A) (A) (A) (A) (A) (A)
                 (A) (A) (A) (A) (A) (A) (A) (A) (A) (A) (A) (A)
                 (A) (A) (A) (A) (A) (A) (A) (A) (A) (A) (A) (A)
                 (A) (A) (A) (A) (A) (A) (A) (A) (A) (A) (A) (A)
                 (A) (A) (A) (A) (A) (A) (A) (A) (A) (A) (A) (A)
                 (A) (A) (A) (A) (A) (A) (A) (A) (A) (A) (A) (A)
                 (A) (A) (A) (A) (A) (A) (A) (A) (A) (A) (A) (A)
                 (A) (A) (A) (A) (A) (A) (A) (A) (A) (A) (A) (A)
                 (A) (A) (A) (A) (A) (A) (A) (A) (A) (A) (A) (A)
                 (A) (A) (A) (A) (A) (A) (A) (A) (A) (A) (A) (A)
                 (A) (A) (A) (A) (A) (A) (A) (A) (A) (A) (A) (A)
                 (A) (A) (A) (A) (A) (A) (A) (A) (A) (A) (A) (A)
                 (A) (A) (A) (A) (A) (A) (A) (A) (A) (A) (A) (A)
                 (A) (A) (A) (A) (A) (A) (A) (A) (A) (A) (A) (A)
                 (A) (A) (A) (A) (A) (A) (A) (A) (A) (A) (A) (A)
                 (A) (A) (A) (A) (A) (A) (A) (A) (A) (A) (A) (A)
                 (A) (A) (A) (A) (A) (A) (A) (A) (A) (A) (A) (A)
 The electronic state is 1-A.
 Alpha  occ. eigenvalues --  -66.22796 -66.21755 -66.21492 -66.21042 -19.18581
 Alpha  occ. eigenvalues --  -19.18349 -19.17776 -19.17020 -19.16732 -19.16531
 Alpha  occ. eigenvalues --  -19.16447 -19.16227 -19.16188 -19.16010 -19.16005
 Alpha  occ. eigenvalues --  -19.15500 -19.15335 -19.15257 -19.14901 -19.14706
 Alpha  occ. eigenvalues --   -5.36856  -5.35836  -5.35568  -5.35102  -3.72840
 Alpha  occ. eigenvalues --   -3.72814  -3.72767  -3.71827  -3.71780  -3.71745
 Alpha  occ. eigenvalues --   -3.71537  -3.71529  -3.71489  -3.71067  -3.71059
 Alpha  occ. eigenvalues --   -3.71033  -2.13363  -1.29605  -1.29521  -1.29366
 Alpha  occ. eigenvalues --   -1.05673  -1.04774  -1.04154  -1.03502  -1.02555
 Alpha  occ. eigenvalues --   -1.02166  -1.01469  -1.00921  -1.00766  -1.00671
 Alpha  occ. eigenvalues --   -0.99836  -0.99306  -0.97368  -0.96278  -0.95727
 Alpha  occ. eigenvalues --   -0.95405  -0.60983  -0.59159  -0.58976  -0.58495
 Alpha  occ. eigenvalues --   -0.55531  -0.54529  -0.53865  -0.53044  -0.52995
 Alpha  occ. eigenvalues --   -0.52493  -0.52154  -0.51704  -0.48770  -0.47605
 Alpha  occ. eigenvalues --   -0.47201  -0.46722  -0.43371  -0.42652  -0.41856
 Alpha  occ. eigenvalues --   -0.41390  -0.41108  -0.40524  -0.39820  -0.39346
 Alpha  occ. eigenvalues --   -0.38801  -0.38675  -0.38649  -0.38147  -0.38020
 Alpha  occ. eigenvalues --   -0.37628  -0.37474  -0.37209  -0.36548  -0.36402
 Alpha  occ. eigenvalues --   -0.36060  -0.35618  -0.35490  -0.35094  -0.34888
 Alpha  occ. eigenvalues --   -0.34603  -0.34011  -0.33684  -0.33496  -0.33247
 Alpha  occ. eigenvalues --   -0.32827  -0.32178  -0.32054  -0.31301
 Alpha virt. eigenvalues --   -0.04321  -0.03166  -0.03038  -0.02752  -0.02090
 Alpha virt. eigenvalues --   -0.01171  -0.00550  -0.00109   0.00105   0.00291
 Alpha virt. eigenvalues --    0.00759   0.00919   0.01037   0.01948   0.02343
 Alpha virt. eigenvalues --    0.03290   0.03329   0.03849   0.03959   0.04044
 Alpha virt. eigenvalues --    0.04177   0.04662   0.05511   0.05865   0.06222
 Alpha virt. eigenvalues --    0.06489   0.07088   0.07472   0.07712   0.08662
 Alpha virt. eigenvalues --    0.08795   0.09078   0.09199   0.09680   0.09943
 Alpha virt. eigenvalues --    0.10321   0.10686   0.10875   0.11301   0.11700
 Alpha virt. eigenvalues --    0.11813   0.12582   0.13255   0.13334   0.13493
 Alpha virt. eigenvalues --    0.14029   0.14503   0.14853   0.15017   0.15269
 Alpha virt. eigenvalues --    0.15329   0.15720   0.16217   0.16689   0.16929
 Alpha virt. eigenvalues --    0.17359   0.17534   0.17732   0.18170   0.18429
 Alpha virt. eigenvalues --    0.18525   0.18913   0.19213   0.19707   0.19791
 Alpha virt. eigenvalues --    0.20157   0.20217   0.20593   0.20875   0.21238
 Alpha virt. eigenvalues --    0.21750   0.22080   0.22335   0.22371   0.22733
 Alpha virt. eigenvalues --    0.23265   0.23725   0.24045   0.24151   0.24511
 Alpha virt. eigenvalues --    0.24767   0.25072   0.25640   0.25889   0.26138
 Alpha virt. eigenvalues --    0.26638   0.26702   0.26906   0.27171   0.27506
 Alpha virt. eigenvalues --    0.27924   0.28328   0.28551   0.28777   0.29051
 Alpha virt. eigenvalues --    0.29482   0.29732   0.30075   0.30361   0.30662
 Alpha virt. eigenvalues --    0.30808   0.31380   0.31488   0.31723   0.31979
 Alpha virt. eigenvalues --    0.32370   0.32717   0.33079   0.33548   0.34040
 Alpha virt. eigenvalues --    0.34457   0.34786   0.35352   0.35562   0.36301
 Alpha virt. eigenvalues --    0.36914   0.37570   0.38062   0.38508   0.38801
 Alpha virt. eigenvalues --    0.39470   0.39836   0.40155   0.41052   0.41569
 Alpha virt. eigenvalues --    0.42867   0.43066   0.43844   0.44234   0.44780
 Alpha virt. eigenvalues --    0.45451   0.45570   0.45970   0.46614   0.47403
 Alpha virt. eigenvalues --    0.47948   0.48791   0.48797   0.49260   0.49524
 Alpha virt. eigenvalues --    0.50050   0.50842   0.51147   0.51360   0.53046
 Alpha virt. eigenvalues --    0.54209   0.54380   0.55102   0.56596   0.57308
 Alpha virt. eigenvalues --    0.58170   0.58641   0.59074   0.59238   0.60358
 Alpha virt. eigenvalues --    0.61252   0.61733   0.62163   0.64177   0.65873
 Alpha virt. eigenvalues --    0.67100   0.68157   0.68452   0.68545   0.69470
 Alpha virt. eigenvalues --    0.69988   0.70753   0.73048   0.74523   0.75067
 Alpha virt. eigenvalues --    0.75459   0.77380   0.78616   0.78934   0.80274
 Alpha virt. eigenvalues --    0.81058   0.81426   0.82592   0.84177   0.85343
 Alpha virt. eigenvalues --    0.86546   0.87722   0.89550   0.90606   0.91257
 Alpha virt. eigenvalues --    0.94548   0.95698   0.96254   0.96869   0.97533
 Alpha virt. eigenvalues --    0.98044   0.98721   0.99186   0.99758   1.00447
 Alpha virt. eigenvalues --    1.00824   1.01538   1.02242   1.03238   1.04036
 Alpha virt. eigenvalues --    1.04321   1.05473   1.06448   1.06704   1.07974
 Alpha virt. eigenvalues --    1.09716   1.12346   1.15240   1.16209   1.16499
 Alpha virt. eigenvalues --    1.18707   1.19128   1.19826   1.20572   1.20964
 Alpha virt. eigenvalues --    1.21446   1.21700   1.22373   1.22911   1.22968
 Alpha virt. eigenvalues --    1.23446   1.23878   1.24367   1.25160   1.25724
 Alpha virt. eigenvalues --    1.26138   1.27174   1.27399   1.28150   1.28424
 Alpha virt. eigenvalues --    1.29010   1.29812   1.30120   1.30789   1.31457
 Alpha virt. eigenvalues --    1.32476   1.32717   1.33011   1.33644   1.34493
 Alpha virt. eigenvalues --    1.35340   1.35989   1.36605   1.36926   1.37708
 Alpha virt. eigenvalues --    1.39177   1.39738   1.40188   1.41156   1.41491
 Alpha virt. eigenvalues --    1.42818   1.43822   1.44297   1.45237   1.46335
 Alpha virt. eigenvalues --    1.47059   1.48729   1.50858   1.51317   1.52830
 Alpha virt. eigenvalues --    1.56695   1.57139   1.57654   1.59278   1.59845
 Alpha virt. eigenvalues --    1.60080   1.61223   1.61897   1.62406   1.63094
 Alpha virt. eigenvalues --    1.63212   1.63876   1.65154   1.65411   1.66666
 Alpha virt. eigenvalues --    1.67077   1.67991   1.69334   1.69743   1.70121
 Alpha virt. eigenvalues --    1.71298   1.71391   1.71544   1.72533   1.73432
 Alpha virt. eigenvalues --    1.74181   1.74945   1.75536   1.76068   1.76854
 Alpha virt. eigenvalues --    1.77217   1.77445   1.78504   1.78587   1.79543
 Alpha virt. eigenvalues --    1.80665   1.81475   1.82267   1.82391   1.83035
 Alpha virt. eigenvalues --    1.83437   1.84871   1.85118   1.85944   1.86720
 Alpha virt. eigenvalues --    1.87156   1.88065   1.88542   1.89845   1.90453
 Alpha virt. eigenvalues --    1.91168   1.91336   1.92460   1.92839   1.93898
 Alpha virt. eigenvalues --    1.94653   1.94979   1.95894   1.97329   1.98410
 Alpha virt. eigenvalues --    1.99023   2.00572   2.01230   2.02805   2.03624
 Alpha virt. eigenvalues --    2.05983   2.06576   2.07639   2.09713   2.10439
 Alpha virt. eigenvalues --    2.11113   2.13068   2.14224   2.16087   2.16416
 Alpha virt. eigenvalues --    2.17762   2.18785   2.19152   2.20773   2.26278
 Alpha virt. eigenvalues --    2.32679   2.33536   2.35341   2.39489   2.40416
 Alpha virt. eigenvalues --    2.41173   2.41386   2.41736   2.42742   2.43731
 Alpha virt. eigenvalues --    2.43999   2.45795   2.46714   2.47582   2.48969
 Alpha virt. eigenvalues --    2.50212   2.50312   2.51676   2.52789   2.53389
 Alpha virt. eigenvalues --    2.55476   2.58069   2.59326   2.60089   2.60699
 Alpha virt. eigenvalues --    2.61104   2.61758   2.62039   2.62372   2.62792
 Alpha virt. eigenvalues --    2.63122   2.64051   2.64576   2.64981   2.65977
 Alpha virt. eigenvalues --    2.66286   2.66597   2.67363   2.67539   2.69383
 Alpha virt. eigenvalues --    2.69740   2.70313   2.71216   2.71654   2.72387
 Alpha virt. eigenvalues --    2.72849   2.74305   2.75563   2.76755   2.77471
 Alpha virt. eigenvalues --    2.78944   2.80513   2.81511   2.82477   2.83373
 Alpha virt. eigenvalues --    2.83770   2.84714   2.86688   2.87791   2.88137
 Alpha virt. eigenvalues --    3.14420   3.20086   3.35872   3.41069   3.46738
 Alpha virt. eigenvalues --    3.47892   3.48571   3.48622   3.51082   3.51128
 Alpha virt. eigenvalues --    3.52925   3.54339   3.60308   3.61079   3.62062
 Alpha virt. eigenvalues --    3.66212   4.29527   4.59006   7.87722  31.29142
          Condensed to atoms (all electrons):
               1          2          3          4          5          6
     1  Zr  15.105639  -0.153500  -0.002290  -0.144333  -0.200785  -0.563520
     2  O   -0.153500   9.077552   0.019832  -0.042324  -0.057762   0.093968
     3  O   -0.002290   0.019832   8.830439   0.014276  -0.042011  -0.005852
     4  O   -0.144333  -0.042324   0.014276   8.815965  -0.058265  -0.676509
     5  O   -0.200785  -0.057762  -0.042011  -0.058265   9.440905  -0.005728
     6  Si  -0.563520   0.093968  -0.005852  -0.676509  -0.005728  13.956284
     7  Si  -0.617801  -0.026818  -0.877093  -0.005709  -0.033119   0.084587
     8  Si  -0.550563  -1.001408  -0.021143   0.074090  -0.013489  -0.030516
     9  Si  -0.325477  -0.041719  -0.027034  -0.035305  -1.265807   0.037336
    10  O   -0.010811   0.000996  -0.002100   0.001225   0.131854  -0.002506
    11  O   -0.058940   0.003813   0.002881   0.001143   0.314976  -0.000952
    12  O    0.035209   0.000056   0.004754   0.002219   0.166397  -0.002631
    13  O   -0.050781   0.190655   0.001718  -0.015697  -0.000646   0.039045
    14  O   -0.028558   0.266880  -0.017201  -0.008882   0.002082   0.031541
    15  O   -0.078082   0.291438  -0.000747   0.001246   0.000529  -0.001252
    16  O   -0.128613   0.004667  -0.000463   0.344657   0.003174  -0.419729
    17  O   -0.079524  -0.040471   0.007279   0.221943   0.001214  -0.457866
    18  O   -0.029700  -0.013933   0.003708   0.199697  -0.000588  -0.450767
    19  O   -0.004052   0.009294   0.262897   0.009970   0.002091  -0.005974
    20  O   -0.146327  -0.000562   0.163846  -0.000892   0.001429   0.008918
    21  O    0.034106   0.010939   0.147117   0.003322   0.000265  -0.011305
    22  H   -0.008885  -0.000019  -0.000024  -0.000011   0.005732   0.000083
    23  H   -0.007530  -0.000013  -0.000007  -0.000055  -0.025148   0.000068
    24  H   -0.005168  -0.000213  -0.000009  -0.000000  -0.005696   0.000041
    25  H    0.018473  -0.020310  -0.000113  -0.000231   0.000019   0.002046
    26  H    0.007279   0.000510   0.000015  -0.000012  -0.000003  -0.000121
    27  H    0.006671  -0.019553   0.000843  -0.001736   0.000008   0.008129
    28  H    0.005196  -0.000011  -0.018517  -0.000014  -0.000016  -0.000283
    29  H    0.004891  -0.007166  -0.020348  -0.000144  -0.000073   0.000092
    30  H    0.000923  -0.000013   0.000141  -0.000449  -0.000008  -0.000758
    31  H    0.000017   0.000165  -0.000019  -0.018419  -0.000008   0.063551
    32  H    0.001929  -0.000023   0.000038   0.010368   0.000000   0.023133
    33  H   -0.016335   0.001016  -0.010037  -0.009541  -0.000102   0.053466
               7          8          9         10         11         12
     1  Zr  -0.617801  -0.550563  -0.325477  -0.010811  -0.058940   0.035209
     2  O   -0.026818  -1.001408  -0.041719   0.000996   0.003813   0.000056
     3  O   -0.877093  -0.021143  -0.027034  -0.002100   0.002881   0.004754
     4  O   -0.005709   0.074090  -0.035305   0.001225   0.001143   0.002219
     5  O   -0.033119  -0.013489  -1.265807   0.131854   0.314976   0.166397
     6  Si   0.084587  -0.030516   0.037336  -0.002506  -0.000952  -0.002631
     7  Si  13.794650   0.180659   0.020783  -0.000266  -0.000715   0.004328
     8  Si   0.180659  13.779733   0.025489  -0.000817   0.001008  -0.000325
     9  Si   0.020783   0.025489  14.340699  -0.077597  -0.190866  -0.227202
    10  O   -0.000266  -0.000817  -0.077597   8.526144   0.016255   0.033215
    11  O   -0.000715   0.001008  -0.190866   0.016255   8.518097  -0.049964
    12  O    0.004328  -0.000325  -0.227202   0.033215  -0.049964   8.602069
    13  O    0.007732  -0.093311   0.000438   0.000000   0.000017   0.000011
    14  O    0.010369  -0.368759  -0.001402  -0.000002   0.000000   0.000018
    15  O   -0.002971  -0.305306  -0.000787   0.000000  -0.000024  -0.000020
    16  O    0.003854  -0.009693  -0.000941   0.000004  -0.000001  -0.000001
    17  O   -0.000588   0.097000   0.002495  -0.000003   0.000000  -0.000006
    18  O   -0.000489   0.073890   0.004288  -0.000004  -0.000002  -0.000001
    19  O   -0.403584  -0.015207   0.001086   0.000007  -0.000002  -0.000011
    20  O   -0.107816   0.009824   0.003264  -0.000001  -0.000002  -0.000012
    21  O    0.023477  -0.040163  -0.001953   0.000002   0.000001   0.000033
    22  H   -0.000226   0.000082   0.047015  -0.006704  -0.005171   0.220327
    23  H    0.000061   0.000064   0.080776   0.228587  -0.006258   0.005920
    24  H    0.000065  -0.000114   0.037727   0.007363   0.242392  -0.007538
    25  H   -0.000492   0.057257  -0.000219   0.000000  -0.000000  -0.000000
    26  H   -0.000369   0.046024  -0.000041  -0.000000   0.000000  -0.000000
    27  H    0.001073   0.067927  -0.000020   0.000000  -0.000000  -0.000000
    28  H    0.056694  -0.000093  -0.000129  -0.000000  -0.000000  -0.000004
    29  H    0.048008   0.021645  -0.000053   0.000000   0.000000  -0.000001
    30  H    0.040014   0.000079   0.000026   0.000000  -0.000000   0.000000
    31  H    0.000152  -0.001951  -0.000052   0.000000  -0.000000  -0.000000
    32  H   -0.000656   0.000055  -0.000001  -0.000000   0.000000   0.000000
    33  H    0.020578   0.000179   0.000079  -0.000000   0.000000   0.000000
              13         14         15         16         17         18
     1  Zr  -0.050781  -0.028558  -0.078082  -0.128613  -0.079524  -0.029700
     2  O    0.190655   0.266880   0.291438   0.004667  -0.040471  -0.013933
     3  O    0.001718  -0.017201  -0.000747  -0.000463   0.007279   0.003708
     4  O   -0.015697  -0.008882   0.001246   0.344657   0.221943   0.199697
     5  O   -0.000646   0.002082   0.000529   0.003174   0.001214  -0.000588
     6  Si   0.039045   0.031541  -0.001252  -0.419729  -0.457866  -0.450767
     7  Si   0.007732   0.010369  -0.002971   0.003854  -0.000588  -0.000489
     8  Si  -0.093311  -0.368759  -0.305306  -0.009693   0.097000   0.073890
     9  Si   0.000438  -0.001402  -0.000787  -0.000941   0.002495   0.004288
    10  O    0.000000  -0.000002   0.000000   0.000004  -0.000003  -0.000004
    11  O    0.000017   0.000000  -0.000024  -0.000001   0.000000  -0.000002
    12  O    0.000011   0.000018  -0.000020  -0.000001  -0.000006  -0.000001
    13  O    8.631091   0.087566  -0.091068   0.003710  -0.030837  -0.045116
    14  O    0.087566   8.677740   0.055183   0.003688  -0.035992  -0.026804
    15  O   -0.091068   0.055183   8.775709  -0.000174   0.003568   0.001650
    16  O    0.003710   0.003688  -0.000174   8.901923  -0.091190  -0.115427
    17  O   -0.030837  -0.035992   0.003568  -0.091190   8.936726   0.227734
    18  O   -0.045116  -0.026804   0.001650  -0.115427   0.227734   9.014824
    19  O    0.000206  -0.000304   0.000132  -0.001615  -0.030281   0.000188
    20  O    0.000008  -0.000211   0.000038   0.000064  -0.001006   0.000015
    21  O   -0.000241   0.016282  -0.000590  -0.000214  -0.005538   0.000474
    22  H   -0.000000   0.000000  -0.000000   0.000000   0.000000  -0.000000
    23  H    0.000000   0.000000  -0.000000  -0.000000   0.000000  -0.000000
    24  H   -0.000000   0.000000   0.000002   0.000000  -0.000000  -0.000000
    25  H    0.217954  -0.012009   0.008919  -0.000048   0.000630   0.014807
    26  H   -0.005165  -0.010044   0.217299   0.000000  -0.000003   0.000006
    27  H   -0.009869   0.218980   0.004628   0.000183   0.017859  -0.000284
    28  H   -0.000000  -0.000005  -0.000001  -0.000000   0.000004  -0.000000
    29  H    0.000790   0.017590  -0.002567  -0.000004  -0.000394   0.000006
    30  H    0.000001  -0.000001   0.000000   0.000118  -0.000389  -0.000007
    31  H    0.002346   0.000163  -0.000018   0.003863  -0.000783   0.218077
    32  H   -0.000008  -0.000006   0.000000   0.233327  -0.003646   0.003894
    33  H    0.000229   0.002057  -0.000035  -0.000139   0.231011   0.002113
              19         20         21         22         23         24
     1  Zr  -0.004052  -0.146327   0.034106  -0.008885  -0.007530  -0.005168
     2  O    0.009294  -0.000562   0.010939  -0.000019  -0.000013  -0.000213
     3  O    0.262897   0.163846   0.147117  -0.000024  -0.000007  -0.000009
     4  O    0.009970  -0.000892   0.003322  -0.000011  -0.000055  -0.000000
     5  O    0.002091   0.001429   0.000265   0.005732  -0.025148  -0.005696
     6  Si  -0.005974   0.008918  -0.011305   0.000083   0.000068   0.000041
     7  Si  -0.403584  -0.107816   0.023477  -0.000226   0.000061   0.000065
     8  Si  -0.015207   0.009824  -0.040163   0.000082   0.000064  -0.000114
     9  Si   0.001086   0.003264  -0.001953   0.047015   0.080776   0.037727
    10  O    0.000007  -0.000001   0.000002  -0.006704   0.228587   0.007363
    11  O   -0.000002  -0.000002   0.000001  -0.005171  -0.006258   0.242392
    12  O   -0.000011  -0.000012   0.000033   0.220327   0.005920  -0.007538
    13  O    0.000206   0.000008  -0.000241  -0.000000   0.000000  -0.000000
    14  O   -0.000304  -0.000211   0.016282   0.000000   0.000000   0.000000
    15  O    0.000132   0.000038  -0.000590  -0.000000  -0.000000   0.000002
    16  O   -0.001615   0.000064  -0.000214   0.000000  -0.000000   0.000000
    17  O   -0.030281  -0.001006  -0.005538   0.000000   0.000000  -0.000000
    18  O    0.000188   0.000015   0.000474  -0.000000  -0.000000  -0.000000
    19  O    8.871769   0.031842   0.023806  -0.000000   0.000000  -0.000000
    20  O    0.031842   8.656236  -0.050378   0.000001   0.000000  -0.000000
    21  O    0.023806  -0.050378   8.486250  -0.000000   0.000000   0.000000
    22  H   -0.000000   0.000001  -0.000000   0.361470   0.000056   0.000121
    23  H    0.000000   0.000000   0.000000   0.000056   0.350964   0.000012
    24  H   -0.000000  -0.000000   0.000000   0.000121   0.000012   0.364964
    25  H   -0.000025   0.000000  -0.000019   0.000000   0.000000   0.000000
    26  H    0.000001  -0.000000   0.000038  -0.000000  -0.000000  -0.000000
    27  H    0.000014   0.000191  -0.004045  -0.000000  -0.000000   0.000000
    28  H    0.004603   0.229612  -0.002099  -0.000000   0.000000  -0.000000
    29  H   -0.008556   0.007667   0.206435   0.000000   0.000000  -0.000000
    30  H    0.224356  -0.001464  -0.007135   0.000000  -0.000000   0.000000
    31  H    0.000004  -0.000000  -0.000000  -0.000000  -0.000000   0.000000
    32  H    0.000098  -0.000000   0.000001  -0.000000  -0.000000  -0.000000
    33  H    0.014860  -0.000080   0.001458  -0.000000  -0.000000  -0.000000
              25         26         27         28         29         30
     1  Zr   0.018473   0.007279   0.006671   0.005196   0.004891   0.000923
     2  O   -0.020310   0.000510  -0.019553  -0.000011  -0.007166  -0.000013
     3  O   -0.000113   0.000015   0.000843  -0.018517  -0.020348   0.000141
     4  O   -0.000231  -0.000012  -0.001736  -0.000014  -0.000144  -0.000449
     5  O    0.000019  -0.000003   0.000008  -0.000016  -0.000073  -0.000008
     6  Si   0.002046  -0.000121   0.008129  -0.000283   0.000092  -0.000758
     7  Si  -0.000492  -0.000369   0.001073   0.056694   0.048008   0.040014
     8  Si   0.057257   0.046024   0.067927  -0.000093   0.021645   0.000079
     9  Si  -0.000219  -0.000041  -0.000020  -0.000129  -0.000053   0.000026
    10  O    0.000000  -0.000000   0.000000  -0.000000   0.000000   0.000000
    11  O   -0.000000   0.000000  -0.000000  -0.000000   0.000000  -0.000000
    12  O   -0.000000  -0.000000  -0.000000  -0.000004  -0.000001   0.000000
    13  O    0.217954  -0.005165  -0.009869  -0.000000   0.000790   0.000001
    14  O   -0.012009  -0.010044   0.218980  -0.000005   0.017590  -0.000001
    15  O    0.008919   0.217299   0.004628  -0.000001  -0.002567   0.000000
    16  O   -0.000048   0.000000   0.000183  -0.000000  -0.000004   0.000118
    17  O    0.000630  -0.000003   0.017859   0.000004  -0.000394  -0.000389
    18  O    0.014807   0.000006  -0.000284  -0.000000   0.000006  -0.000007
    19  O   -0.000025   0.000001   0.000014   0.004603  -0.008556   0.224356
    20  O    0.000000  -0.000000   0.000191   0.229612   0.007667  -0.001464
    21  O   -0.000019   0.000038  -0.004045  -0.002099   0.206435  -0.007135
    22  H    0.000000  -0.000000  -0.000000  -0.000000   0.000000   0.000000
    23  H    0.000000  -0.000000  -0.000000   0.000000   0.000000  -0.000000
    24  H    0.000000  -0.000000   0.000000  -0.000000  -0.000000   0.000000
    25  H    0.298923  -0.000012   0.000117   0.000000   0.000001   0.000000
    26  H   -0.000012   0.365863   0.000037   0.000000   0.000021  -0.000000
    27  H    0.000117   0.000037   0.283370  -0.000000  -0.001494   0.000010
    28  H    0.000000   0.000000  -0.000000   0.349224  -0.000017  -0.000016
    29  H    0.000001   0.000021  -0.001494  -0.000017   0.285952   0.000154
    30  H    0.000000  -0.000000   0.000010  -0.000016   0.000154   0.334200
    31  H   -0.000490   0.000000   0.000013   0.000000   0.000000  -0.000000
    32  H   -0.000001   0.000000  -0.000000   0.000000  -0.000000  -0.000000
    33  H    0.000006  -0.000000  -0.002406  -0.000002   0.000100  -0.001153
              31         32         33
     1  Zr   0.000017   0.001929  -0.016335
     2  O    0.000165  -0.000023   0.001016
     3  O   -0.000019   0.000038  -0.010037
     4  O   -0.018419   0.010368  -0.009541
     5  O   -0.000008   0.000000  -0.000102
     6  Si   0.063551   0.023133   0.053466
     7  Si   0.000152  -0.000656   0.020578
     8  Si  -0.001951   0.000055   0.000179
     9  Si  -0.000052  -0.000001   0.000079
    10  O    0.000000  -0.000000  -0.000000
    11  O   -0.000000   0.000000   0.000000
    12  O   -0.000000   0.000000   0.000000
    13  O    0.002346  -0.000008   0.000229
    14  O    0.000163  -0.000006   0.002057
    15  O   -0.000018   0.000000  -0.000035
    16  O    0.003863   0.233327  -0.000139
    17  O   -0.000783  -0.003646   0.231011
    18  O    0.218077   0.003894   0.002113
    19  O    0.000004   0.000098   0.014860
    20  O   -0.000000  -0.000000  -0.000080
    21  O   -0.000000   0.000001   0.001458
    22  H   -0.000000  -0.000000  -0.000000
    23  H   -0.000000  -0.000000  -0.000000
    24  H    0.000000  -0.000000  -0.000000
    25  H   -0.000490  -0.000001   0.000006
    26  H    0.000000   0.000000  -0.000000
    27  H    0.000013  -0.000000  -0.002406
    28  H    0.000000   0.000000  -0.000002
    29  H    0.000000  -0.000000   0.000100
    30  H   -0.000000  -0.000000  -0.001153
    31  H    0.331374  -0.000000  -0.000038
    32  H   -0.000000   0.349878   0.000157
    33  H   -0.000038   0.000157   0.269273
 Mulliken charges:
               1
     1  Zr  -0.008759
     2  O   -0.545965
     3  O   -0.414774
     4  O   -0.681596
     5  O   -0.361420
     6  Si   2.233982
     7  Si   1.781630
     8  Si   2.017853
     9  Si   1.595101
    10  O   -0.844842
    11  O   -0.787684
    12  O   -0.786839
    13  O   -0.840776
    14  O   -0.879960
    15  O   -0.876700
    16  O   -0.734981
    17  O   -0.968947
    18  O   -1.082248
    19  O   -0.987615
    20  O   -0.804204
    21  O   -0.830325
    22  H    0.386153
    23  H    0.372504
    24  H    0.366052
    25  H    0.414817
    26  H    0.378676
    27  H    0.429357
    28  H    0.375874
    29  H    0.447464
    30  H    0.411370
    31  H    0.402054
    32  H    0.381463
    33  H    0.443285
 Sum of Mulliken charges =  -0.00000
 Mulliken charges with hydrogens summed into heavy atoms:
               1
     1  Zr  -0.008759
     2  O   -0.545965
     3  O   -0.414774
     4  O   -0.681596
     5  O   -0.361420
     6  Si   2.233982
     7  Si   1.781630
     8  Si   2.017853
     9  Si   1.595101
    10  O   -0.472338
    11  O   -0.421632
    12  O   -0.400686
    13  O   -0.425959
    14  O   -0.450603
    15  O   -0.498023
    16  O   -0.353519
    17  O   -0.525662
    18  O   -0.680194
    19  O   -0.576245
    20  O   -0.428330
    21  O   -0.382861
 Electronic spatial extent (au):  <R**2>=           9870.2263
 Charge=             -0.0000 electrons
 Dipole moment (field-independent basis, Debye):
    X=              1.1156    Y=             -0.7109    Z=             -2.2830  Tot=              2.6386
 Quadrupole moment (field-independent basis, Debye-Ang):
   XX=           -160.2053   YY=           -154.5848   ZZ=           -157.9347
   XY=             -4.6967   XZ=              2.4370   YZ=              5.7467
 Traceless Quadrupole moment (field-independent basis, Debye-Ang):
   XX=             -2.6304   YY=              2.9902   ZZ=             -0.3598
   XY=             -4.6967   XZ=              2.4370   YZ=              5.7467
 Octapole moment (field-independent basis, Debye-Ang**2):
  XXX=             74.1238  YYY=              6.9935  ZZZ=            -13.9765  XYY=             -0.1037
  XXY=             20.4480  XXZ=             18.8427  XZZ=              3.9152  YZZ=            -16.5521
  YYZ=            -19.0038  XYZ=             28.1173
 Hexadecapole moment (field-independent basis, Debye-Ang**3):
 XXXX=          -6031.2855 YYYY=          -2836.0420 ZZZZ=          -2268.9077 XXXY=             62.4367
 XXXZ=            -41.0708 YYYX=              3.9930 YYYZ=            222.4535 ZZZX=           -163.9263
 ZZZY=            -58.9519 XXYY=          -1469.1166 XXZZ=          -1376.1599 YYZZ=           -921.9898
 XXYZ=             -9.3329 YYXZ=            115.2854 ZZXY=            -61.9918
 N-N= 2.832845174661D+03 E-N=-1.137829284435D+04  KE= 2.373154838846D+03
 PrsmSu:  requested number of processors reduced to:   2 ShMem   1 Linda.
 PrsmSu:  requested number of processors reduced to:  10 ShMem   1 Linda.
   1 Symmetry operations used in ECPInt.
 ECPInt:  NShTT=   13203 NPrTT=   78401 LenC2=   11530 LenP2D=   44641.
 LDataN:  DoStor=T MaxTD1= 9 Len=  602
 Number of processors reduced to  14 by ecpmxn.
 Calling FoFJK, ICntrl=      2127 FMM=F ISym2X=0 I1Cent= 0 IOpClX= 0 NMat=1 NMatS=1 NMatT=0.
 CoulSu:  requested number of processors reduced to:  10 ShMem   1 Linda.
 Defaulting to unpruned grid for atomic number  40.
 Defaulting to unpruned grid for atomic number  40.
 Defaulting to unpruned grid for atomic number  40.
 Defaulting to unpruned grid for atomic number  40.
 Defaulting to unpruned grid for atomic number  40.
 Defaulting to unpruned grid for atomic number  40.
 Defaulting to unpruned grid for atomic number  40.
 Defaulting to unpruned grid for atomic number  40.
 Defaulting to unpruned grid for atomic number  40.
 Defaulting to unpruned grid for atomic number  40.
 Defaulting to unpruned grid for atomic number  40.
 Defaulting to unpruned grid for atomic number  40.
 Defaulting to unpruned grid for atomic number  40.
 Defaulting to unpruned grid for atomic number  40.
 Defaulting to unpruned grid for atomic number  40.
 Defaulting to unpruned grid for atomic number  40.
 ***** Axes restored to original set *****
 -------------------------------------------------------------------
 Center     Atomic                   Forces (Hartrees/Bohr)
 Number     Number              X              Y              Z
 -------------------------------------------------------------------
      1       40          -0.000084739   -0.000085970   -0.000335702
      2        8           0.000042119    0.000021332    0.000141062
      3        8          -0.000033181   -0.000032150    0.000040078
      4        8          -0.000005622    0.000053107    0.000089202
      5        8           0.000039704    0.000106148    0.000094789
      6       14          -0.000001457   -0.000016667   -0.000033505
      7       14           0.000040106   -0.000004734   -0.000069875
      8       14          -0.000022704   -0.000069075   -0.000087327
      9       14          -0.000014768   -0.000110126    0.000030461
     10        8           0.000013650    0.000040659   -0.000015931
     11        8           0.000020241    0.000060183    0.000002420
     12        8           0.000039920    0.000017746    0.000020396
     13        8          -0.000001428    0.000038934    0.000026601
     14        8           0.000006225    0.000012489    0.000024431
     15        8           0.000018095    0.000020723    0.000032134
     16        8          -0.000004769    0.000005115    0.000020467
     17        8           0.000005665    0.000008721    0.000005876
     18        8          -0.000016468    0.000012075    0.000012543
     19        8           0.000000477    0.000007440    0.000019502
     20        8          -0.000016275    0.000003271    0.000018859
     21        8          -0.000006363    0.000003401    0.000038580
     22        1           0.000001549   -0.000011392   -0.000002077
     23        1          -0.000021557   -0.000014066   -0.000000962
     24        1          -0.000019226   -0.000050635   -0.000016772
     25        1           0.000005509   -0.000006365   -0.000013300
     26        1          -0.000003186   -0.000000342   -0.000000606
     27        1          -0.000001929    0.000001379   -0.000013582
     28        1           0.000006832   -0.000000815   -0.000008380
     29        1          -0.000007499   -0.000003996   -0.000008235
     30        1           0.000003677    0.000000531   -0.000003450
     31        1           0.000010375   -0.000003633   -0.000001081
     32        1           0.000008896    0.000000720   -0.000003403
     33        1          -0.000001870   -0.000004007   -0.000003213
 -------------------------------------------------------------------
 Cartesian Forces:  Max     0.000335702 RMS     0.000049433

 GradGradGradGradGradGradGradGradGradGradGradGradGradGradGradGradGradGrad
 Berny optimization.
 FormGI is forming the generalized inverse of G from B-inverse, IUseBI=4.
 Internal  Forces:  Max     0.000252009 RMS     0.000037553
 Search for a local minimum.
 Step number   1 out of a maximum of  148
 All quantities printed in internal units (Hartrees-Bohrs-Radians)
 Mixed Optimization -- En-DIIS/RFO-DIIS
 Second derivative matrix not updated -- first step.
 ITU=  0
     Eigenvalues ---    0.00230   0.00230   0.00230   0.03240   0.03358
     Eigenvalues ---    0.03498   0.03580   0.03665   0.03665   0.03680
     Eigenvalues ---    0.03686   0.03693   0.03739   0.03789   0.03792
     Eigenvalues ---    0.03816   0.03834   0.03850   0.05521   0.09402
     Eigenvalues ---    0.09687   0.11077   0.11224   0.11833   0.11884
     Eigenvalues ---    0.11890   0.12177   0.12239   0.12299   0.12782
     Eigenvalues ---    0.12895   0.13099   0.13313   0.16000   0.16000
     Eigenvalues ---    0.16000   0.16000   0.16000   0.16000   0.16000
     Eigenvalues ---    0.16000   0.16000   0.16000   0.16000   0.16000
     Eigenvalues ---    0.19173   0.19314   0.19332   0.20013   0.20203
     Eigenvalues ---    0.20204   0.20208   0.20515   0.20653   0.20795
     Eigenvalues ---    0.20989   0.21175   0.21186   0.21227   0.25000
     Eigenvalues ---    0.25000   0.25000   0.38002   0.39187   0.40659
     Eigenvalues ---    0.41547   0.42502   0.42509   0.42671   0.42743
     Eigenvalues ---    0.42824   0.43363   0.43951   0.43980   0.44273
     Eigenvalues ---    0.44485   0.44689   0.44768   0.50655   0.51353
     Eigenvalues ---    0.52036   0.52548   0.54334   0.54624   0.54641
     Eigenvalues ---    0.54649   0.54689   0.54692   0.54712   0.54765
     Eigenvalues --- 1000.000001000.000001000.000001000.000001000.00000
     Eigenvalues --- 1000.000001000.000001000.000001000.000001000.00000
     Eigenvalues --- 1000.000001000.000001000.000001000.000001000.00000
     Eigenvalues --- 1000.000001000.000001000.000001000.000001000.00000
     Eigenvalues --- 1000.000001000.000001000.000001000.000001000.00000
     Eigenvalues --- 1000.000001000.000001000.000001000.000001000.00000
     Eigenvalues --- 1000.000001000.000001000.000001000.000001000.00000
     Eigenvalues --- 1000.000001000.000001000.000001000.000001000.00000
     Eigenvalues --- 1000.000001000.000001000.000001000.000001000.00000
     Eigenvalues --- 1000.000001000.000001000.00000
 RFO step:  Lambda=-1.55461433D-06 EMin= 2.30000000D-03
 Linear search not attempted -- first point.
 Iteration  1 RMS(Cart)=  0.00451662 RMS(Int)=  0.00000520
 Iteration  2 RMS(Cart)=  0.00000874 RMS(Int)=  0.00000017
 Iteration  3 RMS(Cart)=  0.00000000 RMS(Int)=  0.00000017
 Iteration  1 RMS(Cart)=  0.00000003 RMS(Int)=  0.00000000
 Variable       Old X    -DE/DX   Delta X   Delta X   Delta X     New X
                                 (Linear)    (Quad)   (Total)
    R1        3.67647   0.00006   0.00000   0.00029   0.00029   3.67676
    R2        3.69189  -0.00002   0.00000  -0.00012  -0.00012   3.69178
    R3        3.73835  -0.00009   0.00000  -0.00046  -0.00046   3.73789
    R4        3.70232   0.00005   0.00000   0.00025   0.00025   3.70257
    R5        3.11688  -0.00001   0.00000  -0.00003  -0.00003   3.11684
    R6        3.09579  -0.00001   0.00000  -0.00002  -0.00002   3.09577
    R7        3.10213  -0.00000   0.00000  -0.00001  -0.00001   3.10212
    R8        3.09246   0.00001   0.00000   0.00003   0.00003   3.09249
    R9        3.11587  -0.00002   0.00000  -0.00004  -0.00004   3.11583
   R10        3.11989   0.00000   0.00000   0.00000   0.00000   3.11989
   R11        3.14367   0.00000   0.00000   0.00000   0.00000   3.14367
   R12        3.18062  -0.00002   0.00000  -0.00004  -0.00004   3.18058
   R13        3.10924  -0.00000   0.00000  -0.00001  -0.00001   3.10923
   R14        3.09339   0.00003   0.00000   0.00008   0.00008   3.09346
   R15        3.10179  -0.00003   0.00000  -0.00008  -0.00008   3.10171
   R16        3.16373   0.00000   0.00000   0.00001   0.00001   3.16374
   R17        3.09830   0.00003   0.00000   0.00008   0.00008   3.09837
   R18        3.11980   0.00001   0.00000   0.00003   0.00003   3.11983
   R19        3.13204  -0.00002   0.00000  -0.00004  -0.00004   3.13200
   R20        3.11778   0.00002   0.00000   0.00005   0.00005   3.11783
   R21        1.82153   0.00000   0.00000   0.00001   0.00001   1.82153
   R22        1.82107   0.00001   0.00000   0.00002   0.00002   1.82108
   R23        1.82089  -0.00000   0.00000  -0.00000  -0.00000   1.82088
   R24        1.84078   0.00001   0.00000   0.00003   0.00003   1.84081
   R25        1.84565   0.00001   0.00000   0.00003   0.00003   1.84567
   R26        1.82041   0.00000   0.00000   0.00000   0.00000   1.82042
   R27        1.82109   0.00001   0.00000   0.00002   0.00002   1.82111
   R28        1.85910  -0.00000   0.00000  -0.00001  -0.00001   1.85910
   R29        1.82145   0.00000   0.00000   0.00001   0.00001   1.82146
   R30        1.82428  -0.00000   0.00000  -0.00000  -0.00000   1.82428
   R31        1.82168  -0.00001   0.00000  -0.00001  -0.00001   1.82166
   R32        1.85224   0.00000   0.00000   0.00001   0.00001   1.85225
    A1        1.85172  -0.00003   0.00000  -0.00096  -0.00096   1.85076
    A2        1.80155   0.00005   0.00000   0.00035   0.00035   1.80190
    A3        1.96889  -0.00012   0.00000  -0.00116  -0.00116   1.96773
    A4        1.83430  -0.00003   0.00000   0.00059   0.00059   1.83490
    A5        2.01802   0.00004   0.00000   0.00011   0.00011   2.01813
    A6        1.97057   0.00009   0.00000   0.00110   0.00110   1.97167
    A7        2.46524  -0.00005   0.00000  -0.00022  -0.00022   2.46502
    A8        2.58826   0.00002   0.00000   0.00007   0.00007   2.58833
    A9        2.35483   0.00002   0.00000   0.00007   0.00007   2.35490
   A10        2.86714   0.00025   0.00000   0.00000   0.00000   2.86714
   A11        1.91978  -0.00001   0.00000  -0.00003  -0.00003   1.91975
   A12        1.91546  -0.00000   0.00000  -0.00003  -0.00003   1.91543
   A13        1.95201  -0.00000   0.00000  -0.00001  -0.00001   1.95200
   A14        2.00708   0.00000   0.00000   0.00002   0.00002   2.00710
   A15        1.88610   0.00001   0.00000   0.00007   0.00007   1.88618
[...]
 Alpha virt. eigenvalues --    3.47905   3.48558   3.48615   3.51082   3.51099
 Alpha virt. eigenvalues --    3.52945   3.54343   3.60308   3.61084   3.62053
 Alpha virt. eigenvalues --    3.66198   4.29965   4.58877   7.87916  31.29133
          Condensed to atoms (all electrons):
               1          2          3          4          5          6
     1  Zr  15.106881  -0.147751  -0.002627  -0.146818  -0.199354  -0.565185
     2  O   -0.147751   9.076226   0.019692  -0.042257  -0.057504   0.093061
     3  O   -0.002627   0.019692   8.831113   0.014348  -0.041914  -0.005615
     4  O   -0.146818  -0.042257   0.014348   8.815177  -0.058540  -0.673502
     5  O   -0.199354  -0.057504  -0.041914  -0.058540   9.444386  -0.005566
     6  Si  -0.565185   0.093061  -0.005615  -0.673502  -0.005566  13.953230
     7  Si  -0.618859  -0.027561  -0.878055  -0.005423  -0.033227   0.084167
     8  Si  -0.555280  -1.002962  -0.021242   0.074275  -0.013531  -0.029607
     9  Si  -0.328422  -0.042423  -0.027177  -0.034802  -1.273573   0.037654
    10  O   -0.009788   0.001008  -0.002095   0.001214   0.133266  -0.002550
    11  O   -0.059798   0.003860   0.002913   0.001160   0.320440  -0.000946
    12  O    0.036725   0.000085   0.004752   0.002190   0.167465  -0.002651
    13  O   -0.049556   0.190287   0.001724  -0.015741  -0.000653   0.038806
    14  O   -0.027240   0.266492  -0.017146  -0.008855   0.002070   0.031361
    15  O   -0.078545   0.291778  -0.000766   0.001242   0.000551  -0.001163
    16  O   -0.128851   0.004642  -0.000466   0.344946   0.003141  -0.419721
    17  O   -0.080621  -0.040359   0.007380   0.221634   0.001222  -0.456660
    18  O   -0.029023  -0.014014   0.003721   0.199397  -0.000573  -0.450480
    19  O   -0.003124   0.009286   0.262875   0.010017   0.002101  -0.006190
    20  O   -0.146059  -0.000563   0.163838  -0.000895   0.001419   0.008977
    21  O    0.034156   0.010893   0.147816   0.003315   0.000262  -0.011339
    22  H   -0.008968  -0.000019  -0.000023  -0.000010   0.005735   0.000083
    23  H   -0.007631  -0.000013  -0.000007  -0.000056  -0.025273   0.000069
    24  H   -0.005131  -0.000220  -0.000010  -0.000000  -0.005256   0.000043
    25  H    0.018283  -0.020277  -0.000113  -0.000241   0.000019   0.002123
    26  H    0.007309   0.000516   0.000015  -0.000012  -0.000004  -0.000126
    27  H    0.006426  -0.019498   0.000846  -0.001721   0.000008   0.008110
    28  H    0.005163  -0.000011  -0.018544  -0.000015  -0.000016  -0.000283
    29  H    0.004895  -0.007133  -0.020378  -0.000143  -0.000074   0.000087
    30  H    0.000864  -0.000013   0.000158  -0.000449  -0.000008  -0.000742
    31  H   -0.000101   0.000166  -0.000019  -0.018429  -0.000008   0.063689
    32  H    0.001967  -0.000023   0.000038   0.010388   0.000001   0.023127
    33  H   -0.016357   0.001016  -0.010056  -0.009574  -0.000102   0.053499
               7          8          9         10         11         12
     1  Zr  -0.618859  -0.555280  -0.328422  -0.009788  -0.059798   0.036725
     2  O   -0.027561  -1.002962  -0.042423   0.001008   0.003860   0.000085
     3  O   -0.878055  -0.021242  -0.027177  -0.002095   0.002913   0.004752
     4  O   -0.005423   0.074275  -0.034802   0.001214   0.001160   0.002190
     5  O   -0.033227  -0.013531  -1.273573   0.133266   0.320440   0.167465
     6  Si   0.084167  -0.029607   0.037654  -0.002550  -0.000946  -0.002651
     7  Si  13.797931   0.181665   0.020940  -0.000279  -0.000715   0.004274
     8  Si   0.181665  13.785174   0.025279  -0.000844   0.001069  -0.000356
     9  Si   0.020940   0.025279  14.359641  -0.079446  -0.199075  -0.231339
    10  O   -0.000279  -0.000844  -0.079446   8.526173   0.015384   0.033851
    11  O   -0.000715   0.001069  -0.199075   0.015384   8.521833  -0.048653
    12  O    0.004274  -0.000356  -0.231339   0.033851  -0.048653   8.602538
    13  O    0.007698  -0.093549   0.000393   0.000000   0.000018   0.000010
    14  O    0.010240  -0.368890  -0.001412  -0.000002   0.000000   0.000018
    15  O   -0.003002  -0.305291  -0.000756   0.000000  -0.000025  -0.000020
    16  O    0.003889  -0.009667  -0.000961   0.000003  -0.000001  -0.000001
    17  O   -0.000538   0.096942   0.002543  -0.000003   0.000001  -0.000006
    18  O   -0.000514   0.073788   0.004286  -0.000004  -0.000002  -0.000001
    19  O   -0.404897  -0.015391   0.001077   0.000007  -0.000002  -0.000012
    20  O   -0.107722   0.009773   0.003246  -0.000001  -0.000003  -0.000013
    21  O    0.022782  -0.040122  -0.001956   0.000002   0.000001   0.000031
    22  H   -0.000223   0.000083   0.047187  -0.006686  -0.005138   0.220138
    23  H    0.000061   0.000065   0.081030   0.228579  -0.006311   0.006000
    24  H    0.000065  -0.000119   0.037133   0.007267   0.242211  -0.007425
    25  H   -0.000490   0.057309  -0.000218   0.000000  -0.000000  -0.000000
    26  H   -0.000370   0.045989  -0.000042  -0.000000   0.000000  -0.000000
    27  H    0.001078   0.068027  -0.000019   0.000000  -0.000000  -0.000000
    28  H    0.056732  -0.000089  -0.000129  -0.000000  -0.000000  -0.000004
    29  H    0.048037   0.021598  -0.000053   0.000000   0.000000  -0.000001
    30  H    0.040041   0.000083   0.000026   0.000000  -0.000000   0.000000
    31  H    0.000154  -0.001939  -0.000052   0.000000  -0.000000  -0.000000
    32  H   -0.000657   0.000053  -0.000001  -0.000000   0.000000   0.000000
    33  H    0.020634   0.000178   0.000080  -0.000000   0.000000   0.000000
              13         14         15         16         17         18
     1  Zr  -0.049556  -0.027240  -0.078545  -0.128851  -0.080621  -0.029023
     2  O    0.190287   0.266492   0.291778   0.004642  -0.040359  -0.014014
     3  O    0.001724  -0.017146  -0.000766  -0.000466   0.007380   0.003721
     4  O   -0.015741  -0.008855   0.001242   0.344946   0.221634   0.199397
     5  O   -0.000653   0.002070   0.000551   0.003141   0.001222  -0.000573
     6  Si   0.038806   0.031361  -0.001163  -0.419721  -0.456660  -0.450480
     7  Si   0.007698   0.010240  -0.003002   0.003889  -0.000538  -0.000514
     8  Si  -0.093549  -0.368890  -0.305291  -0.009667   0.096942   0.073788
     9  Si   0.000393  -0.001412  -0.000756  -0.000961   0.002543   0.004286
    10  O    0.000000  -0.000002   0.000000   0.000003  -0.000003  -0.000004
    11  O    0.000018   0.000000  -0.000025  -0.000001   0.000001  -0.000002
    12  O    0.000010   0.000018  -0.000020  -0.000001  -0.000006  -0.000001
    13  O    8.630858   0.087638  -0.090846   0.003715  -0.030851  -0.045219
    14  O    0.087638   8.677378   0.055161   0.003676  -0.035944  -0.026793
    15  O   -0.090846   0.055161   8.775470  -0.000174   0.003570   0.001651
    16  O    0.003715   0.003676  -0.000174   8.902310  -0.091359  -0.115844
    17  O   -0.030851  -0.035944   0.003570  -0.091359   8.936413   0.228000
    18  O   -0.045219  -0.026793   0.001651  -0.115844   0.228000   9.014132
    19  O    0.000204  -0.000232   0.000134  -0.001621  -0.030230   0.000190
    20  O    0.000008  -0.000219   0.000039   0.000064  -0.001001   0.000015
    21  O   -0.000246   0.016228  -0.000585  -0.000213  -0.005533   0.000470
    22  H   -0.000000   0.000000  -0.000000   0.000000   0.000000  -0.000000
    23  H    0.000000   0.000000  -0.000000  -0.000000   0.000000  -0.000000
    24  H   -0.000000   0.000000   0.000002   0.000000  -0.000000  -0.000000
    25  H    0.218021  -0.012010   0.008916  -0.000045   0.000621   0.014781
    26  H   -0.005168  -0.010045   0.217274   0.000000  -0.000003   0.000006
    27  H   -0.009868   0.219002   0.004630   0.000184   0.017891  -0.000275
    28  H   -0.000000  -0.000005  -0.000001  -0.000000   0.000004  -0.000000
    29  H    0.000787   0.017610  -0.002560  -0.000004  -0.000395   0.000006
    30  H    0.000001  -0.000003   0.000000   0.000118  -0.000385  -0.000007
    31  H    0.002344   0.000163  -0.000018   0.003817  -0.000763   0.218123
    32  H   -0.000008  -0.000006   0.000000   0.233251  -0.003633   0.003880
    33  H    0.000230   0.002057  -0.000035  -0.000142   0.230975   0.002100
              19         20         21         22         23         24
     1  Zr  -0.003124  -0.146059   0.034156  -0.008968  -0.007631  -0.005131
     2  O    0.009286  -0.000563   0.010893  -0.000019  -0.000013  -0.000220
     3  O    0.262875   0.163838   0.147816  -0.000023  -0.000007  -0.000010
     4  O    0.010017  -0.000895   0.003315  -0.000010  -0.000056  -0.000000
     5  O    0.002101   0.001419   0.000262   0.005735  -0.025273  -0.005256
     6  Si  -0.006190   0.008977  -0.011339   0.000083   0.000069   0.000043
     7  Si  -0.404897  -0.107722   0.022782  -0.000223   0.000061   0.000065
     8  Si  -0.015391   0.009773  -0.040122   0.000083   0.000065  -0.000119
     9  Si   0.001077   0.003246  -0.001956   0.047187   0.081030   0.037133
    10  O    0.000007  -0.000001   0.000002  -0.006686   0.228579   0.007267
    11  O   -0.000002  -0.000003   0.000001  -0.005138  -0.006311   0.242211
    12  O   -0.000012  -0.000013   0.000031   0.220138   0.006000  -0.007425
    13  O    0.000204   0.000008  -0.000246  -0.000000   0.000000  -0.000000
    14  O   -0.000232  -0.000219   0.016228   0.000000   0.000000   0.000000
    15  O    0.000134   0.000039  -0.000585  -0.000000  -0.000000   0.000002
    16  O   -0.001621   0.000064  -0.000213   0.000000  -0.000000   0.000000
    17  O   -0.030230  -0.001001  -0.005533   0.000000   0.000000  -0.000000
    18  O    0.000190   0.000015   0.000470  -0.000000  -0.000000  -0.000000
    19  O    8.871714   0.032346   0.023936  -0.000000   0.000000  -0.000000
    20  O    0.032346   8.655886  -0.050692   0.000001   0.000000  -0.000000
    21  O    0.023936  -0.050692   8.486419  -0.000000   0.000000   0.000000
    22  H   -0.000000   0.000001  -0.000000   0.361549   0.000054   0.000116
    23  H    0.000000   0.000000   0.000000   0.000054   0.351144   0.000015
    24  H   -0.000000  -0.000000   0.000000   0.000116   0.000015   0.365000
    25  H   -0.000025   0.000000  -0.000019   0.000000   0.000000   0.000000
    26  H    0.000001  -0.000000   0.000038  -0.000000  -0.000000  -0.000000
    27  H    0.000019   0.000191  -0.004036  -0.000000  -0.000000   0.000000
    28  H    0.004615   0.229654  -0.002118  -0.000000   0.000000  -0.000000
    29  H   -0.008573   0.007669   0.206463   0.000000   0.000000  -0.000000
    30  H    0.224357  -0.001468  -0.007128   0.000000  -0.000000   0.000000
    31  H    0.000004  -0.000000  -0.000000  -0.000000  -0.000000   0.000000
    32  H    0.000098  -0.000000   0.000001  -0.000000  -0.000000  -0.000000
    33  H    0.014865  -0.000083   0.001453  -0.000000  -0.000000  -0.000000
              25         26         27         28         29         30
     1  Zr   0.018283   0.007309   0.006426   0.005163   0.004895   0.000864
     2  O   -0.020277   0.000516  -0.019498  -0.000011  -0.007133  -0.000013
     3  O   -0.000113   0.000015   0.000846  -0.018544  -0.020378   0.000158
     4  O   -0.000241  -0.000012  -0.001721  -0.000015  -0.000143  -0.000449
     5  O    0.000019  -0.000004   0.000008  -0.000016  -0.000074  -0.000008
     6  Si   0.002123  -0.000126   0.008110  -0.000283   0.000087  -0.000742
     7  Si  -0.000490  -0.000370   0.001078   0.056732   0.048037   0.040041
     8  Si   0.057309   0.045989   0.068027  -0.000089   0.021598   0.000083
     9  Si  -0.000218  -0.000042  -0.000019  -0.000129  -0.000053   0.000026
    10  O    0.000000  -0.000000   0.000000  -0.000000   0.000000   0.000000
    11  O   -0.000000   0.000000  -0.000000  -0.000000   0.000000  -0.000000
    12  O   -0.000000  -0.000000  -0.000000  -0.000004  -0.000001   0.000000
    13  O    0.218021  -0.005168  -0.009868  -0.000000   0.000787   0.000001
    14  O   -0.012010  -0.010045   0.219002  -0.000005   0.017610  -0.000003
    15  O    0.008916   0.217274   0.004630  -0.000001  -0.002560   0.000000
    16  O   -0.000045   0.000000   0.000184  -0.000000  -0.000004   0.000118
    17  O    0.000621  -0.000003   0.017891   0.000004  -0.000395  -0.000385
    18  O    0.014781   0.000006  -0.000275  -0.000000   0.000006  -0.000007
    19  O   -0.000025   0.000001   0.000019   0.004615  -0.008573   0.224357
    20  O    0.000000  -0.000000   0.000191   0.229654   0.007669  -0.001468
    21  O   -0.000019   0.000038  -0.004036  -0.002118   0.206463  -0.007128
    22  H    0.000000  -0.000000  -0.000000  -0.000000   0.000000   0.000000
    23  H    0.000000  -0.000000  -0.000000   0.000000   0.000000  -0.000000
    24  H    0.000000  -0.000000   0.000000  -0.000000  -0.000000   0.000000
    25  H    0.298962  -0.000012   0.000117   0.000000   0.000001   0.000000
    26  H   -0.000012   0.365902   0.000037   0.000000   0.000021  -0.000000
    27  H    0.000117   0.000037   0.283433  -0.000000  -0.001491   0.000010
    28  H    0.000000   0.000000  -0.000000   0.349182  -0.000017  -0.000016
    29  H    0.000001   0.000021  -0.001491  -0.000017   0.285992   0.000154
    30  H    0.000000  -0.000000   0.000010  -0.000016   0.000154   0.334090
    31  H   -0.000499   0.000000   0.000013  -0.000000   0.000000  -0.000000
    32  H   -0.000001   0.000000  -0.000000   0.000000  -0.000000  -0.000000
    33  H    0.000006  -0.000000  -0.002411  -0.000002   0.000100  -0.001148
              31         32         33
     1  Zr  -0.000101   0.001967  -0.016357
     2  O    0.000166  -0.000023   0.001016
     3  O   -0.000019   0.000038  -0.010056
     4  O   -0.018429   0.010388  -0.009574
     5  O   -0.000008   0.000001  -0.000102
     6  Si   0.063689   0.023127   0.053499
     7  Si   0.000154  -0.000657   0.020634
     8  Si  -0.001939   0.000053   0.000178
     9  Si  -0.000052  -0.000001   0.000080
    10  O    0.000000  -0.000000  -0.000000
    11  O   -0.000000   0.000000   0.000000
    12  O   -0.000000   0.000000   0.000000
    13  O    0.002344  -0.000008   0.000230
    14  O    0.000163  -0.000006   0.002057
    15  O   -0.000018   0.000000  -0.000035
    16  O    0.003817   0.233251  -0.000142
    17  O   -0.000763  -0.003633   0.230975
    18  O    0.218123   0.003880   0.002100
    19  O    0.000004   0.000098   0.014865
    20  O   -0.000000  -0.000000  -0.000083
    21  O   -0.000000   0.000001   0.001453
    22  H   -0.000000  -0.000000  -0.000000
    23  H   -0.000000  -0.000000  -0.000000
    24  H    0.000000  -0.000000  -0.000000
    25  H   -0.000499  -0.000001   0.000006
    26  H    0.000000   0.000000  -0.000000
    27  H    0.000013  -0.000000  -0.002411
    28  H   -0.000000   0.000000  -0.000002
    29  H    0.000000  -0.000000   0.000100
    30  H   -0.000000  -0.000000  -0.001148
    31  H    0.331516   0.000000  -0.000038
    32  H    0.000000   0.349912   0.000157
    33  H   -0.000038   0.000157   0.269251
 Mulliken charges:
               1
     1  Zr  -0.007580
     2  O   -0.546408
     3  O   -0.414975
     4  O   -0.681821
     5  O   -0.366912
     6  Si   2.234241
     7  Si   1.782144
     8  Si   2.017530
     9  Si   1.601341
    10  O   -0.845056
    11  O   -0.788219
    12  O   -0.787598
    13  O   -0.841039
    14  O   -0.880292
    15  O   -0.876631
    16  O   -0.734686
    17  O   -0.968911
    18  O   -1.081801
    19  O   -0.987548
    20  O   -0.804408
    21  O   -0.830277
    22  H    0.386123
    23  H    0.372274
    24  H    0.366311
    25  H    0.414790
    26  H    0.378672
    27  H    0.429296
    28  H    0.375899
    29  H    0.447401
    30  H    0.411464
    31  H    0.401877
    32  H    0.381454
    33  H    0.443344
 Sum of Mulliken charges =  -0.00000
 Mulliken charges with hydrogens summed into heavy atoms:
               1
     1  Zr  -0.007580
     2  O   -0.546408
     3  O   -0.414975
     4  O   -0.681821
     5  O   -0.366912
     6  Si   2.234241
     7  Si   1.782144
     8  Si   2.017530
     9  Si   1.601341
    10  O   -0.472782
    11  O   -0.421908
    12  O   -0.401475
    13  O   -0.426249
    14  O   -0.450996
    15  O   -0.497959
    16  O   -0.353232
    17  O   -0.525567
    18  O   -0.679923
    19  O   -0.576085
    20  O   -0.428509
    21  O   -0.382876
 Electronic spatial extent (au):  <R**2>=           9869.9969
 Charge=             -0.0000 electrons
 Dipole moment (field-independent basis, Debye):
    X=              1.0839    Y=             -0.7303    Z=             -2.3194  Tot=              2.6623
 Quadrupole moment (field-independent basis, Debye-Ang):
   XX=           -160.4673   YY=           -154.5032   ZZ=           -157.9578
   XY=             -4.7231   XZ=              2.3196   YZ=              5.7508
 Traceless Quadrupole moment (field-independent basis, Debye-Ang):
   XX=             -2.8245   YY=              3.1396   ZZ=             -0.3150
   XY=             -4.7231   XZ=              2.3196   YZ=              5.7508
 Octapole moment (field-independent basis, Debye-Ang**2):
  XXX=             72.6457  YYY=              6.8223  ZZZ=            -14.4085  XYY=              0.1009
  XXY=             20.6033  XXZ=             18.3231  XZZ=              3.5947  YZZ=            -16.7018
  YYZ=            -18.8880  XYZ=             28.2395
 Hexadecapole moment (field-independent basis, Debye-Ang**3):
 XXXX=          -6041.6504 YYYY=          -2835.0861 ZZZZ=          -2266.9386 XXXY=             62.6377
 XXXZ=            -42.2369 YYYX=              4.1851 YYYZ=            221.9172 ZZZX=           -165.4763
 ZZZY=            -58.5288 XXYY=          -1468.7831 XXZZ=          -1378.3173 YYZZ=           -922.5097
 XXYZ=             -8.7583 YYXZ=            115.6987 ZZXY=            -61.6326
 N-N= 2.832857424653D+03 E-N=-1.137831086739D+04  KE= 2.373154747217D+03
 1\1\GINC-GRA1321\FOpt\RB3LYP\Gen\H12O16Si4Zr1\SARASHS\14-Aug-2020\0\\#
 n B3LYP/Gen Pseudo=cards EmpiricalDispersion=GD3 Opt=modredundant\\Tit
 le\\0,1\Zr,0.658016766,-0.1247925527,-0.0763477877\O,-0.2196610318,-0.
 904882829,1.4748113635\O,0.1019934705,1.7473178185,-0.1244938\O,-0.270
 1503541,-0.9787903955,-1.6003050197\O,2.5925618544,-0.4355408375,-0.08
 35552837\Si,-1.833543002,-1.3329875728,-1.9542693547\Si,-1.116192104,2
 .8418775144,-0.0845207155\Si,-1.7197513429,-1.1519424876,2.114545527\S
 i,4.2178759898,-0.2510619899,-0.0327453116\O,4.9349437366,-0.247805931
 4,-1.519932543\O,4.9116863273,-1.5160993135,0.7827894224\O,4.461517186
 4,1.2238697663,0.6651411369\O,-2.3154308208,-2.6231883867,1.6967316822
 \O,-2.7213161264,0.0657526569,1.5515567017\O,-1.5908621018,-1.01840181
 01,3.7436032546\O,-2.0061493859,-1.5605321502,-3.5781624373\O,-2.82672
 516,-0.1875561079,-1.3007244506\O,-2.3452770018,-2.7148272518,-1.18218
 88266\O,-2.0425805837,2.4386887732,-1.4306597476\O,-0.6366007502,4.400
 3752097,-0.3038975455\O,-1.9647259562,2.7623011362,1.3131340844\H,5.34
 82702955,1.5951196421,0.599430209\H,5.2729079553,-1.0974080744,-1.8250
 522876\H,4.480337403,-1.8105285804,1.5926734507\H,-2.4036851921,-2.808
 9822061,0.7445860037\H,-2.3741602678,-1.2229387298,4.2657212332\H,-3.0
 590018913,-0.0829411755,0.6472502064\H,-0.5257141079,4.9277994396,0.49
 53470816\H,-2.2676066667,1.8707723207,1.5854094785\H,-2.6505791858,3.1
 25852769,-1.7307918471\H,-2.3032730814,-3.5305795925,-1.6938949531\H,-
 1.276493102,-1.2644625655,-4.1337081808\H,-2.6122117684,0.753843494,-1
 .4894807435\\Version=ES64L-G16RevB.01\State=1-A\HF=-2416.9468472\RMSD=
 3.273e-09\RMSF=1.936e-05\Dipole=0.4180068,-0.2853089,-0.9170538\Quadru
 pole=-2.0490233,2.3080318,-0.2590086,-3.4810847,1.7286412,4.3173134\PG
 =C01 [X(H12O16Si4Zr1)]\\@


 NO MATTER HOW THIN YOU SLICE IT, IT'S STILL BALONEY

                                   -- ALFRED E. SMITH
 Job cpu time:       0 days 10 hours 49 minutes 26.3 seconds.
 Elapsed time:       0 days  0 hours 48 minutes 34.1 seconds.
 File lengths (MBytes):  RWF=    167 Int=      0 D2E=      0 Chk=     21 Scr=      1
 Normal termination of Gaussian 16 at Fri Aug 14 03:48:26 2020.
