 Entering Gaussian System, Link 0=g16
 Initial command:
 /opt/software/gaussian/g16.b01/l1.exe "/localscratch/sarashs.37242621.0/Gau-20014.inp" -scrdir="/localscratch/sarashs.37242621.0/"
 Entering Link 1 = /opt/software/gaussian/g16.b01/l1.exe PID=     20015.
  
 Copyright (c) 1988-2017, Gaussian, Inc.  All Rights Reserved.
  
 This is part of the Gaussian(R) 16 program.  It is based on
 the Gaussian(R) 09 system (copyright 2009, Gaussian, Inc.),
 the Gaussian(R) 03 system (copyright 2003, Gaussian, Inc.),
 the Gaussian(R) 98 system (copyright 1998, Gaussian, Inc.),
 the Gaussian(R) 94 system (copyright 1995, Gaussian, Inc.),
 the Gaussian 92(TM) system (copyright 1992, Gaussian, Inc.),
 the Gaussian 90(TM) system (copyright 1990, Gaussian, Inc.),
 the Gaussian 88(TM) system (copyright 1988, Gaussian, Inc.),
 the Gaussian 86(TM) system (copyright 1986, Carnegie Mellon
 University), and the Gaussian 82(TM) system (copyright 1983,
 Carnegie Mellon University). Gaussian is a federally registered
 trademark of Gaussian, Inc.
  
 This software contains proprietary and confidential information,
 including trade secrets, belonging to Gaussian, Inc.
  
 This software is provided under written license and may be
 used, copied, transmitted, or stored only in accord with that
 written license.
  
 The following legend is applicable only to US Government
 contracts under FAR:
  
                    RESTRICTED RIGHTS LEGEND
  
 Use, reproduction and disclosure by the US Government is
 subject to restrictions as set forth in subparagraphs (a)
 and (c) of the Commercial Computer Software - Restricted
 Rights clause in FAR 52.227-19.
  
 Gaussian, Inc.
 340 Quinnipiac St., Bldg. 40, Wallingford CT 06492
  
  
 ---------------------------------------------------------------
 Warning -- This program may not be used in any manner that
 competes with the business of Gaussian, Inc. or will provide
 assistance to any competitor of Gaussian, Inc.  The licensee
 of this program is prohibited from giving any competitor of
 Gaussian, Inc. access to this program.  By using this program,
 the user acknowledges that Gaussian, Inc. is engaged in the
 business of creating and licensing software in the field of
 computational chemistry and represents and warrants to the
 licensee that it is not a competitor of Gaussian, Inc. and that
 it will not use this program in any manner prohibited above.
 ---------------------------------------------------------------
  

 Cite this work as:
 Gaussian 16, Revision B.01,
 M. J. Frisch, G. W. Trucks, H. B. Schlegel, G. E. Scuseria, 
 M. A. Robb, J. R. Cheeseman, G. Scalmani, V. Barone, 
 G. A. Petersson, H. Nakatsuji, X. Li, M. Caricato, A. V. Marenich, 
 J. Bloino, B. G. Janesko, R. Gomperts, B. Mennucci, H. P. Hratchian, 
 J. V. Ortiz, A. F. Izmaylov, J. L. Sonnenberg, D. Williams-Young, 
 F. Ding, F. Lipparini, F. Egidi, J. Goings, B. Peng, A. Petrone, 
 T. Henderson, D. Ranasinghe, V. G. Zakrzewski, J. Gao, N. Rega, 
 G. Zheng, W. Liang, M. Hada, M. Ehara, K. Toyota, R. Fukuda, 
 J. Hasegawa, M. Ishida, T. Nakajima, Y. Honda, O. Kitao, H. Nakai, 
 T. Vreven, K. Throssell, J. A. Montgomery, Jr., J. E. Peralta, 
 F. Ogliaro, M. J. Bearpark, J. J. Heyd, E. N. Brothers, K. N. Kudin, 
 V. N. Staroverov, T. A. Keith, R. Kobayashi, J. Normand, 
 K. Raghavachari, A. P. Rendell, J. C. Burant, S. S. Iyengar, 
 J. Tomasi, M. Cossi, J. M. Millam, M. Klene, C. Adamo, R. Cammi, 
 J. W. Ochterski, R. L. Martin, K. Morokuma, O. Farkas, 
 J. B. Foresman, and D. J. Fox, Gaussian, Inc., Wallingford CT, 2016.
 
 ******************************************
 Gaussian 16:  ES64L-G16RevB.01 20-Dec-2017
                14-Aug-2020 
 ******************************************
 %NProcShared=16
 Will use up to   16 processors via shared memory.
 ------------------------------------------------------------------
 #n B3LYP/Gen Pseudo=cards EmpiricalDispersion=GD3 Opt=modredundant
 ------------------------------------------------------------------
 1/18=120,19=15,26=3,38=1/1,3;
 2/9=110,12=2,17=6,18=5,40=1/2;
 3/5=7,11=2,16=1,17=8,25=1,30=1,71=1,74=-5,124=31/1,2,3;
 4//1;
 5/5=2,38=5/2;
 6/7=2,8=2,9=2,10=2,28=1/1;
 7//1,2,3,16;
 1/18=20,19=15,26=3/3(2);
 2/9=110/2;
 99//99;
 2/9=110/2;
 3/5=7,6=1,11=2,16=1,17=8,25=1,30=1,71=1,74=-5,82=7,124=31/1,2,3;
 4/5=5,16=3,69=1/1;
 5/5=2,38=5/2;
 7//1,2,3,16;
 1/18=20,19=15,26=3/3(-5);
 2/9=110/2;
 6/7=2,8=2,9=2,10=2,19=2,28=1/1;
 99/9=1/99;
 -----
 Title
 -----
 Symbolic Z-matrix:
 Charge =  0 Multiplicity = 1
 Zr                    0.65779  -0.12506  -0.07164 
 O                    -0.22285  -0.90624   1.4773 
 O                     0.10302   1.74748  -0.12299 
 O                    -0.2683   -0.97885  -1.59705 
 O                     2.59206  -0.4363   -0.08284 
 Si                   -1.83119  -1.33244  -1.9536 
 Si                   -1.1155    2.84172  -0.08279 
 Si                   -1.72376  -1.15291   2.11517 
 Si                    4.2153   -0.2683    0.0391 
 O                     4.96912  -0.01777  -1.40816 
 O                     4.89089  -1.65423   0.64718 
 O                     4.43836   1.06685   0.98232 
 O                    -2.31924  -2.624     1.69627 
 O                    -2.72422   0.06508   1.55086 
 O                    -1.59734  -1.01957   3.74439 
 O                    -2.00144  -1.55965  -3.57782 
 O                    -2.82509  -0.18676  -1.30145 
 O                    -2.34448  -2.71439  -1.18277 
 O                    -2.04046   2.43957  -1.43023 
 O                    -0.63565   4.40049  -0.29987 
 O                    -1.96551   2.76086   1.31383 
 H                     5.32568   1.44196   1.00293 
 H                     5.32142  -0.80417  -1.84011 
 H                     4.44818  -2.07172   1.39442 
 H                    -2.40577  -2.80951   0.74392 
 H                    -2.38137  -1.22423   4.26535 
 H                    -3.06034  -0.08306   0.64589 
 H                    -0.52731   4.92728   0.50015 
 H                    -2.26909   1.86932   1.58533 
 H                    -2.64854   3.12676  -1.73014 
 H                    -2.30452  -3.52952  -1.69562 
 H                    -1.27114  -1.26305  -4.13223 
 H                    -2.61026   0.75461  -1.48993 
 
 The following ModRedundant input section has been read:
 A       1       5       9 F                                                   
 D       1       5       9      12 F                                           
 D       3       1       5       9 F                                           
 

 GradGradGradGradGradGradGradGradGradGradGradGradGradGradGradGradGradGrad
 Berny optimization.
 Initialization pass.
                           ----------------------------
                           !    Initial Parameters    !
                           ! (Angstroms and Degrees)  !
 --------------------------                            --------------------------
 ! Name  Definition              Value          Derivative Info.                !
 --------------------------------------------------------------------------------
 ! R1    R(1,2)                  1.9455         estimate D2E/DX2                !
 ! R2    R(1,3)                  1.9537         estimate D2E/DX2                !
 ! R3    R(1,4)                  1.9783         estimate D2E/DX2                !
 ! R4    R(1,5)                  1.9592         estimate D2E/DX2                !
 ! R5    R(2,8)                  1.6494         estimate D2E/DX2                !
 ! R6    R(3,7)                  1.6382         estimate D2E/DX2                !
 ! R7    R(4,6)                  1.6416         estimate D2E/DX2                !
 ! R8    R(5,9)                  1.6365         estimate D2E/DX2                !
 ! R9    R(6,16)                 1.6488         estimate D2E/DX2                !
 ! R10   R(6,17)                 1.651          estimate D2E/DX2                !
 ! R11   R(6,18)                 1.6636         estimate D2E/DX2                !
 ! R12   R(7,19)                 1.6831         estimate D2E/DX2                !
 ! R13   R(7,20)                 1.6453         estimate D2E/DX2                !
 ! R14   R(7,21)                 1.6369         estimate D2E/DX2                !
 ! R15   R(8,13)                 1.6414         estimate D2E/DX2                !
 ! R16   R(8,14)                 1.6742         estimate D2E/DX2                !
 ! R17   R(8,15)                 1.6395         estimate D2E/DX2                !
 ! R18   R(9,10)                 1.6509         estimate D2E/DX2                !
 ! R19   R(9,11)                 1.6574         estimate D2E/DX2                !
 ! R20   R(9,12)                 1.6499         estimate D2E/DX2                !
 ! R21   R(10,23)                0.9639         estimate D2E/DX2                !
 ! R22   R(11,24)                0.9637         estimate D2E/DX2                !
 ! R23   R(12,22)                0.9636         estimate D2E/DX2                !
 ! R24   R(13,25)                0.9741         estimate D2E/DX2                !
 ! R25   R(14,27)                0.9767         estimate D2E/DX2                !
 ! R26   R(15,26)                0.9633         estimate D2E/DX2                !
 ! R27   R(16,32)                0.9637         estimate D2E/DX2                !
 ! R28   R(17,33)                0.9838         estimate D2E/DX2                !
 ! R29   R(18,31)                0.9639         estimate D2E/DX2                !
 ! R30   R(19,30)                0.9654         estimate D2E/DX2                !
 ! R31   R(20,28)                0.964          estimate D2E/DX2                !
 ! R32   R(21,29)                0.9802         estimate D2E/DX2                !
 ! A1    A(2,1,3)              106.0959         estimate D2E/DX2                !
 ! A2    A(2,1,4)              103.2214         estimate D2E/DX2                !
 ! A3    A(2,1,5)              112.8091         estimate D2E/DX2                !
 ! A4    A(3,1,4)              105.0977         estimate D2E/DX2                !
 ! A5    A(3,1,5)              115.6243         estimate D2E/DX2                !
 ! A6    A(4,1,5)              112.9055         estimate D2E/DX2                !
 ! A7    A(1,2,8)              141.2479         estimate D2E/DX2                !
 ! A8    A(1,3,7)              148.2962         estimate D2E/DX2                !
 ! A9    A(1,4,6)              134.9216         estimate D2E/DX2                !
 ! A10   A(1,5,9)              164.275          Frozen                          !
 ! A11   A(4,6,16)             109.9952         estimate D2E/DX2                !
 ! A12   A(4,6,17)             109.7479         estimate D2E/DX2                !
 ! A13   A(4,6,18)             111.8422         estimate D2E/DX2                !
 ! A14   A(16,6,17)            114.9972         estimate D2E/DX2                !
 ! A15   A(16,6,18)            108.0658         estimate D2E/DX2                !
 ! A16   A(17,6,18)            101.9869         estimate D2E/DX2                !
 ! A17   A(3,7,19)             103.269          estimate D2E/DX2                !
 ! A18   A(3,7,20)             114.3706         estimate D2E/DX2                !
 ! A19   A(3,7,21)             111.9733         estimate D2E/DX2                !
 ! A20   A(19,7,20)            106.3205         estimate D2E/DX2                !
 ! A21   A(19,7,21)            112.6973         estimate D2E/DX2                !
 ! A22   A(20,7,21)            108.1076         estimate D2E/DX2                !
 ! A23   A(2,8,13)             111.4365         estimate D2E/DX2                !
 ! A24   A(2,8,14)             107.7362         estimate D2E/DX2                !
 ! A25   A(2,8,15)             107.5759         estimate D2E/DX2                !
 ! A26   A(13,8,14)            110.4391         estimate D2E/DX2                !
 ! A27   A(13,8,15)            110.7606         estimate D2E/DX2                !
 ! A28   A(14,8,15)            108.7751         estimate D2E/DX2                !
 ! A29   A(5,9,10)             113.7766         estimate D2E/DX2                !
 ! A30   A(5,9,11)             110.2318         estimate D2E/DX2                !
 ! A31   A(5,9,12)             105.0573         estimate D2E/DX2                !
 ! A32   A(10,9,11)            105.2125         estimate D2E/DX2                !
 ! A33   A(10,9,12)            108.4593         estimate D2E/DX2                !
 ! A34   A(11,9,12)            114.3205         estimate D2E/DX2                !
 ! A35   A(9,10,23)            115.8438         estimate D2E/DX2                !
 ! A36   A(9,11,24)            117.3547         estimate D2E/DX2                !
 ! A37   A(9,12,22)            116.8568         estimate D2E/DX2                !
 ! A38   A(8,13,25)            116.8991         estimate D2E/DX2                !
 ! A39   A(8,14,27)            114.056          estimate D2E/DX2                !
 ! A40   A(8,15,26)            117.2166         estimate D2E/DX2                !
 ! A41   A(6,16,32)            116.4907         estimate D2E/DX2                !
 ! A42   A(6,17,33)            117.1859         estimate D2E/DX2                !
 ! A43   A(6,18,31)            116.3076         estimate D2E/DX2                !
 ! A44   A(7,19,30)            115.1373         estimate D2E/DX2                !
 ! A45   A(7,20,28)            116.1676         estimate D2E/DX2                !
 ! A46   A(7,21,29)            116.2372         estimate D2E/DX2                !
 ! D1    D(3,1,2,8)             57.7292         estimate D2E/DX2                !
 ! D2    D(4,1,2,8)            -52.5301         estimate D2E/DX2                !
 ! D3    D(5,1,2,8)           -174.7067         estimate D2E/DX2                !
 ! D4    D(2,1,3,7)            -50.098          estimate D2E/DX2                !
 ! D5    D(4,1,3,7)             58.8315         estimate D2E/DX2                !
 ! D6    D(5,1,3,7)           -175.9641         estimate D2E/DX2                !
 ! D7    D(2,1,4,6)             42.7683         estimate D2E/DX2                !
 ! D8    D(3,1,4,6)            -68.2312         estimate D2E/DX2                !
 ! D9    D(5,1,4,6)            164.8802         estimate D2E/DX2                !
 ! D10   D(2,1,5,9)           -103.3631         estimate D2E/DX2                !
 ! D11   D(3,1,5,9)             19.0001         Frozen                          !
 ! D12   D(4,1,5,9)            140.0824         estimate D2E/DX2                !
 ! D13   D(1,2,8,13)            93.5308         estimate D2E/DX2                !
 ! D14   D(1,2,8,14)           -27.7655         estimate D2E/DX2                !
 ! D15   D(1,2,8,15)          -144.8802         estimate D2E/DX2                !
 ! D16   D(1,3,7,19)           -61.1012         estimate D2E/DX2                !
 ! D17   D(1,3,7,20)          -176.1751         estimate D2E/DX2                !
 ! D18   D(1,3,7,21)            60.409          estimate D2E/DX2                !
 ! D19   D(1,4,6,16)           160.167          estimate D2E/DX2                !
 ! D20   D(1,4,6,17)            32.6925         estimate D2E/DX2                !
 ! D21   D(1,4,6,18)           -79.742          estimate D2E/DX2                !
 ! D22   D(1,5,9,10)          -100.1293         estimate D2E/DX2                !
 ! D23   D(1,5,9,11)           141.9684         estimate D2E/DX2                !
 ! D24   D(1,5,9,12)            18.3487         Frozen                          !
 ! D25   D(4,6,16,32)          -14.1998         estimate D2E/DX2                !
 ! D26   D(17,6,16,32)         110.2979         estimate D2E/DX2                !
 ! D27   D(18,6,16,32)        -136.5531         estimate D2E/DX2                !
 ! D28   D(4,6,17,33)           51.0095         estimate D2E/DX2                !
 ! D29   D(16,6,17,33)         -73.6179         estimate D2E/DX2                !
 ! D30   D(18,6,17,33)         169.7166         estimate D2E/DX2                !
 ! D31   D(4,6,18,31)          -96.4424         estimate D2E/DX2                !
 ! D32   D(16,6,18,31)          24.7715         estimate D2E/DX2                !
 ! D33   D(17,6,18,31)         146.349          estimate D2E/DX2                !
 ! D34   D(3,7,19,30)         -162.1837         estimate D2E/DX2                !
 ! D35   D(20,7,19,30)         -41.4662         estimate D2E/DX2                !
 ! D36   D(21,7,19,30)          76.796          estimate D2E/DX2                !
 ! D37   D(3,7,20,28)          -98.427          estimate D2E/DX2                !
 ! D38   D(19,7,20,28)         148.2947         estimate D2E/DX2                !
 ! D39   D(21,7,20,28)          27.0455         estimate D2E/DX2                !
 ! D40   D(3,7,21,29)          -49.8995         estimate D2E/DX2                !
 ! D41   D(19,7,21,29)          66.0156         estimate D2E/DX2                !
 ! D42   D(20,7,21,29)        -176.7753         estimate D2E/DX2                !
 ! D43   D(2,8,13,25)          -58.468          estimate D2E/DX2                !
 ! D44   D(14,8,13,25)          61.2404         estimate D2E/DX2                !
 ! D45   D(15,8,13,25)        -178.1888         estimate D2E/DX2                !
 ! D46   D(2,8,14,27)           80.2918         estimate D2E/DX2                !
 ! D47   D(13,8,14,27)         -41.6247         estimate D2E/DX2                !
 ! D48   D(15,8,14,27)        -163.3756         estimate D2E/DX2                !
 ! D49   D(2,8,15,26)         -174.1994         estimate D2E/DX2                !
 ! D50   D(13,8,15,26)         -52.1897         estimate D2E/DX2                !
 ! D51   D(14,8,15,26)          69.3652         estimate D2E/DX2                !
 ! D52   D(5,9,10,23)          -94.8506         estimate D2E/DX2                !
 ! D53   D(11,9,10,23)          25.9078         estimate D2E/DX2                !
 ! D54   D(12,9,10,23)         148.6403         estimate D2E/DX2                !
 ! D55   D(5,9,11,24)          -43.821          estimate D2E/DX2                !
 ! D56   D(10,9,11,24)        -166.8803         estimate D2E/DX2                !
 ! D57   D(12,9,11,24)          74.2393         estimate D2E/DX2                !
 ! D58   D(5,9,12,22)         -166.4773         estimate D2E/DX2                !
 ! D59   D(10,9,12,22)         -44.475          estimate D2E/DX2                !
 ! D60   D(11,9,12,22)          72.5537         estimate D2E/DX2                !
 --------------------------------------------------------------------------------
 Trust Radius=3.00D-01 FncErr=1.00D-07 GrdErr=1.00D-06 EigMax=2.50D+02 EigMin=1.00D-04
 Number of steps in this run=    148 maximum allowed number of steps=    198.
 GradGradGradGradGradGradGradGradGradGradGradGradGradGradGradGradGradGrad

                          Input orientation:                          
 ---------------------------------------------------------------------
 Center     Atomic      Atomic             Coordinates (Angstroms)
 Number     Number       Type             X           Y           Z
 ---------------------------------------------------------------------
      1         40           0        0.657790   -0.125060   -0.071640
      2          8           0       -0.222850   -0.906240    1.477300
      3          8           0        0.103020    1.747480   -0.122990
      4          8           0       -0.268300   -0.978850   -1.597050
      5          8           0        2.592060   -0.436300   -0.082840
      6         14           0       -1.831190   -1.332440   -1.953600
      7         14           0       -1.115500    2.841720   -0.082790
      8         14           0       -1.723760   -1.152910    2.115170
      9         14           0        4.215300   -0.268300    0.039100
     10          8           0        4.969120   -0.017770   -1.408160
     11          8           0        4.890890   -1.654230    0.647180
     12          8           0        4.438360    1.066850    0.982320
     13          8           0       -2.319240   -2.624000    1.696270
     14          8           0       -2.724220    0.065080    1.550860
     15          8           0       -1.597340   -1.019570    3.744390
     16          8           0       -2.001440   -1.559650   -3.577820
     17          8           0       -2.825090   -0.186760   -1.301450
     18          8           0       -2.344480   -2.714390   -1.182770
     19          8           0       -2.040460    2.439570   -1.430230
     20          8           0       -0.635650    4.400490   -0.299870
     21          8           0       -1.965510    2.760860    1.313830
     22          1           0        5.325680    1.441960    1.002930
     23          1           0        5.321420   -0.804170   -1.840110
     24          1           0        4.448180   -2.071720    1.394420
     25          1           0       -2.405770   -2.809510    0.743920
     26          1           0       -2.381370   -1.224230    4.265350
     27          1           0       -3.060340   -0.083060    0.645890
     28          1           0       -0.527310    4.927280    0.500150
     29          1           0       -2.269090    1.869320    1.585330
     30          1           0       -2.648540    3.126760   -1.730140
     31          1           0       -2.304520   -3.529520   -1.695620
     32          1           0       -1.271140   -1.263050   -4.132230
     33          1           0       -2.610260    0.754610   -1.489930
 ---------------------------------------------------------------------
                    Distance matrix (angstroms):
                    1          2          3          4          5
     1  Zr   0.000000
     2  O    1.945504   0.000000
     3  O    1.953666   3.115983   0.000000
     4  O    1.978251   3.075543   3.121475   0.000000
     5  O    1.959183   3.252476   3.311469   3.281593   0.000000
     6  Si   3.345827   3.813067   4.071635   1.641578   4.885484
     7  Si   3.456366   4.156670   1.638221   4.196128   4.948880
     8  Si   3.392697   1.649380   4.093745   3.991145   4.896027
     9  Si   3.562114   4.708775   4.582629   4.825405   1.636460
    10  O    4.515015   6.005981   5.333545   5.328219   2.753553
    11  O    4.557872   5.234398   5.923554   5.666564   2.702018
    12  O    4.101730   5.085761   4.525499   5.743752   2.608227
    13  O    4.270002   2.719099   5.318542   4.214123   5.663226
    14  O    3.755882   2.684348   3.691278   4.126823   5.584191
    15  O    4.521929   2.653632   5.050190   5.504452   5.704294
    16  O    4.628483   5.398571   5.225104   2.695283   5.880225
    17  O    3.694143   3.874372   3.701875   2.692947   5.558129
    18  O    4.117386   3.853141   5.198238   2.737563   5.546978
    19  O    3.962783   4.790812   2.604299   3.854086   5.616612
    20  O    4.712290   5.611606   2.759598   5.545712   5.818913
    21  O    4.138812   4.063399   2.714813   5.033803   5.739683
    22  H    5.039787   6.043613   5.351375   6.626676   3.489905
    23  H    5.033699   6.461777   6.057319   5.597728   3.266915
    24  H    4.506204   4.814949   5.980739   5.691084   2.881333
    25  H    4.154132   2.987545   5.273682   3.660633   5.594101
    26  H    5.408711   3.540275   5.853271   6.236426   6.653014
    27  H    3.786965   3.069237   3.734823   3.691708   5.710118
    28  H    5.220876   5.922624   3.301022   6.272775   6.232041
    29  H    3.910208   3.450000   2.925766   4.716225   5.632890
    30  H    4.925117   5.695325   3.472237   4.747556   6.547739
    31  H    4.796138   4.613282   6.009671   3.265245   6.012118
    32  H    4.637260   5.717784   5.198616   2.741094   5.657331
    33  H    3.669539   4.154829   3.196280   2.915671   5.519266
                    6          7          8          9         10
     6  Si   0.000000
     7  Si   4.629876   0.000000
     8  Si   4.074145   4.599791   0.000000
     9  Si   6.454711   6.172885   6.353348   0.000000
    10  O    6.947667   6.852437   7.648336   1.650930   0.000000
    11  O    7.214843   7.538113   6.794109   1.657403   2.628411
    12  O    7.326901   5.927055   6.646985   1.649862   2.678153
    13  O    3.902290   5.872660   1.641396   7.141131   8.339671
    14  O    3.877087   3.600906   1.674176   7.110098   8.243188
    15  O    5.711363   5.457933   1.639549   6.934001   8.406591
    16  O    1.648848   5.689656   5.714252   7.307363   7.461469
    17  O    1.650975   3.685040   3.717481   7.167344   7.796772
    18  O    1.663560   5.795749   3.701340   7.106830   7.798160
    19  O    3.813892   1.683113   5.057279   6.973236   7.427868
    20  O    6.085279   1.645340   6.152776   6.741233   7.222380
    21  O    5.239203   1.636949   4.002272   7.000226   7.951044
    22  H    8.225518   6.680338   7.593750   2.255416   2.841004
    23  H    7.172990   7.603593   8.087053   2.245459   0.963909
    24  H    7.154457   7.568261   6.281444   2.267917   3.513480
    25  H    3.128657   5.855309   2.256056   7.126927   8.173999
    26  H    6.244177   6.086107   2.249625   7.892468   9.363438
    27  H    3.135141   3.587160   2.256060   7.303249   8.288282
    28  H    6.848729   2.243958   6.403787   7.049750   7.635831
    29  H    4.792395   2.249212   3.116406   7.000540   8.056909
    30  H    4.538993   2.268308   5.827281   7.859322   8.247453
    31  H    2.262246   6.678899   4.528540   7.493521   8.082132
    32  H    2.250533   5.768130   6.264743   6.963515   6.921858
    33  H    2.275460   2.927521   4.173878   7.069126   7.619072
                   11         12         13         14         15
    11  O    0.000000
    12  O    2.778737   0.000000
    13  O    7.350307   7.732869   0.000000
    14  O    7.858916   7.254608   2.723289   0.000000
    15  O    7.217523   6.957863   2.700024   2.694049   0.000000
    16  O    8.084787   8.316514   5.389792   5.428215   7.353213
    17  O    8.092402   7.716531   3.896453   2.865182   5.259415
    18  O    7.538119   8.061781   2.880569   3.916936   5.263795
    19  O    8.313750   7.048395   5.957555   3.872032   6.240088
    20  O    8.252223   6.205058   7.494165   5.155881   6.830662
    21  O    8.182155   6.632429   5.410000   2.810526   4.509415
    22  H    3.146743   0.963571   8.686631   8.185164   7.842381
    23  H    2.663563   3.499517   8.613794   8.774201   8.893946
    24  H    0.963669   3.165524   6.796624   7.485567   6.570973
    25  H    7.388185   7.869251   0.974101   3.002637   3.586121
    26  H    8.133992   7.907974   2.926327   3.024619   0.963321
    27  H    8.104976   7.593812   2.847614   0.976674   3.552200
    28  H    8.526124   6.308192   7.852614   5.437959   6.858213
    29  H    8.034976   6.782143   4.494969   1.861079   3.668579
    30  H    9.238643   7.862876   6.702236   4.488271   6.947485
    31  H    7.796111   8.588621   3.510712   4.861783   6.032716
    32  H    7.808098   8.011582   6.076357   6.014390   7.887131
    33  H    8.163149   7.476133   4.653125   3.120071   5.618881
                   16         17         18         19         20
    16  O    0.000000
    17  O    2.783000   0.000000
    18  O    2.680926   2.575652   0.000000
    19  O    4.539540   2.744055   5.168846   0.000000
    20  O    6.937839   5.180702   7.370287   2.663909   0.000000
    21  O    6.526587   4.033241   6.029510   2.763822   2.657243
    22  H    9.147657   8.625424   8.993547   7.821478   6.781419
    23  H    7.564038   8.187611   7.927614   8.055255   8.059002
    24  H    8.159840   7.982559   7.293501   8.392427   8.402705
    25  H    4.516976   3.352340   1.930010   5.693261   7.497128
    26  H    7.859527   5.680008   5.648358   6.780802   7.451594
    27  H    4.597968   1.964238   3.283344   3.422586   5.184188
    28  H    7.802766   5.888884   8.033022   3.493521   0.963990
    29  H    6.203837   3.587492   5.355227   3.077509   3.553720
    30  H    5.078888   3.345797   5.874615   0.965369   2.778450
    31  H    2.741336   3.405937   0.963872   5.980819   8.223035
    32  H    0.963680   3.403891   3.458000   4.647801   6.867788
    33  H    3.175806   0.983796   3.492699   1.779698   4.313672
                   21         22         23         24         25
    21  O    0.000000
    22  H    7.416037   0.000000
    23  H    8.703799   3.623257   0.000000
    24  H    8.030924   3.642694   3.582097   0.000000
    25  H    5.616729   8.827083   8.390951   6.924169   0.000000
    26  H    4.976480   8.783540   9.837991   7.456757   3.861888
    27  H    3.119724   8.531031   8.772348   7.803393   2.805637
    28  H    2.724678   6.830647   8.516688   8.633726   7.965297
    29  H    0.980162   7.629047   8.746258   7.790376   4.755849
    30  H    3.141045   8.596302   8.887326   9.335443   6.435776
    31  H    6.981447   9.498302   8.099591   7.567859   2.545589
    32  H    6.806877   8.786637   6.994729   7.994275   5.239825
    33  H    3.507394   8.346613   8.090981   8.131986   4.211277
                   26         27         28         29         30
    26  H    0.000000
    27  H    3.855355   0.000000
    28  H    7.446835   5.616136   0.000000
    29  H    4.094529   2.306602   3.682734   0.000000
    30  H    7.412718   4.014728   3.565906   3.566157   0.000000
    31  H    6.391669   4.234622   8.916129   6.317702   6.665254
    32  H    8.470742   5.236797   7.767394   6.595312   5.190154
    33  H    6.090275   2.337946   5.070530   3.288799   2.384588
                   31         32         33
    31  H    0.000000
    32  H    3.484513   0.000000
    33  H    4.299948   3.584124   0.000000
 Stoichiometry    H12O16Si4Zr
 Framework group  C1[X(H12O16Si4Zr)]
 Deg. of freedom    93
 Full point group                 C1      NOp   1
 Largest Abelian subgroup         C1      NOp   1
 Largest concise Abelian subgroup C1      NOp   1
                         Standard orientation:                         
 ---------------------------------------------------------------------
 Center     Atomic      Atomic             Coordinates (Angstroms)
 Number     Number       Type             X           Y           Z
 ---------------------------------------------------------------------
      1         40           0        0.657755   -0.122117   -0.081417
      2          8           0       -0.211605   -0.906372    1.472334
      3          8           0        0.099014    1.749376   -0.127626
      4          8           0       -0.276232   -0.976391   -1.601733
      5          8           0        2.592521   -0.429554   -0.105044
      6         14           0       -1.840637   -1.332733   -1.948770
      7         14           0       -1.121366    2.841190   -0.078804
      8         14           0       -1.707992   -1.156540    2.119402
      9         14           0        4.216164   -0.258479    0.006844
     10          8           0        4.960383   -0.005210   -1.444901
     11          8           0        4.898270   -1.643611    0.609442
     12          8           0        4.442536    1.076283    0.949824
     13          8           0       -2.303215   -2.628428    1.702951
     14          8           0       -2.714357    0.059978    1.562466
     15          8           0       -1.571597   -1.024372    3.747913
     16          8           0       -2.020646   -1.558861   -3.572088
     17          8           0       -2.832657   -0.189573   -1.289376
     18          8           0       -2.346371   -2.716358   -1.175952
     19          8           0       -2.053988    2.438402   -1.420761
     20          8           0       -0.645938    4.401086   -0.297516
     21          8           0       -1.962423    2.757446    1.323057
     22          1           0        5.329233    1.453114    0.965190
     23          1           0        5.311498   -0.790541   -1.879751
     24          1           0        4.461081   -2.062620    1.359079
     25          1           0       -2.395366   -2.813277    0.751000
     26          1           0       -2.351936   -1.231023    4.273607
     27          1           0       -3.055867   -0.088032    0.659494
     28          1           0       -0.533603    4.927390    0.502273
     29          1           0       -2.262548    1.865076    1.595670
     30          1           0       -2.665283    3.124660   -1.716237
     31          1           0       -2.308041   -3.530961   -1.689763
     32          1           0       -1.294426   -1.260346   -4.130813
     33          1           0       -2.620857    0.752381   -1.478370
 ---------------------------------------------------------------------
 Rotational constants (GHZ):           0.2123721           0.1338642           0.1240821
 General basis read from cards:  (5D, 7F)
 ======================================================================================================
                                       Pseudopotential Parameters
 ======================================================================================================
  Center     Atomic      Valence      Angular      Power
  Number     Number     Electrons     Momentum     of R      Exponent        Coefficient   SO-Coeffient
 ======================================================================================================
    1         40           12
                                      G and up 
                                                     2        1.0000000        0.00000000    0.00000000
                                      S - G
                                                     2        8.6365280      150.24299400    0.00000000
                                                     2        3.7176390       18.78003600    0.00000000
                                      P - G
                                                     2        7.6267280       33.19279100    0.00000000
                                                     2        7.4532070       66.38903900    0.00000000
                                                     2        3.3583890        4.62072600    0.00000000
                                                     2        3.2297380        9.26027000    0.00000000
                                      D - G
                                                     2        5.9380860       13.99338300    0.00000000
                                                     2        5.8255440       20.99588200    0.00000000
                                                     2        2.2050190        2.28516600    0.00000000
                                                     2        2.2062920        3.44126000    0.00000000
                                      F - G
                                                     2        4.8002150       -5.23932000    0.00000000
                                                     2        4.7989920       -6.98742400    0.00000000
    2          8
                                   No pseudopotential on this center.
    3          8
                                   No pseudopotential on this center.
    4          8
                                   No pseudopotential on this center.
    5          8
                                   No pseudopotential on this center.
    6         14
                                   No pseudopotential on this center.
    7         14
                                   No pseudopotential on this center.
    8         14
                                   No pseudopotential on this center.
    9         14
                                   No pseudopotential on this center.
   10          8
                                   No pseudopotential on this center.
   11          8
                                   No pseudopotential on this center.
   12          8
                                   No pseudopotential on this center.
   13          8
                                   No pseudopotential on this center.
   14          8
                                   No pseudopotential on this center.
   15          8
                                   No pseudopotential on this center.
   16          8
                                   No pseudopotential on this center.
   17          8
                                   No pseudopotential on this center.
   18          8
                                   No pseudopotential on this center.
   19          8
                                   No pseudopotential on this center.
   20          8
                                   No pseudopotential on this center.
   21          8
                                   No pseudopotential on this center.
   22          1
                                   No pseudopotential on this center.
   23          1
                                   No pseudopotential on this center.
   24          1
                                   No pseudopotential on this center.
   25          1
                                   No pseudopotential on this center.
   26          1
                                   No pseudopotential on this center.
   27          1
                                   No pseudopotential on this center.
   28          1
                                   No pseudopotential on this center.
   29          1
                                   No pseudopotential on this center.
   30          1
                                   No pseudopotential on this center.
   31          1
                                   No pseudopotential on this center.
   32          1
                                   No pseudopotential on this center.
   33          1
                                   No pseudopotential on this center.
 ======================================================================================================
 There are   570 symmetry adapted cartesian basis functions of A   symmetry.
 There are   524 symmetry adapted basis functions of A   symmetry.
   524 basis functions,  1074 primitive gaussians,   570 cartesian basis functions
   104 alpha electrons      104 beta electrons
       nuclear repulsion energy      2832.9027492238 Hartrees.
 NAtoms=   33 NActive=   33 NUniq=   33 SFac= 1.00D+00 NAtFMM=   60 NAOKFM=F Big=F
 Integral buffers will be    131072 words long.
 Raffenetti 2 integral format.
 Two-electron integral symmetry is turned on.
 Nuclear repulsion after empirical dispersion term =     2832.8619470021 Hartrees.
 One-electron integrals computed using PRISM.
 PrsmSu:  requested number of processors reduced to:   4 ShMem   1 Linda.
   1 Symmetry operations used in ECPInt.
 ECPInt:  NShTT=   13203 NPrTT=   78401 LenC2=   11522 LenP2D=   44634.
 LDataN:  DoStor=T MaxTD1= 8 Len=  415
 Number of processors reduced to  13 by ecpmxn.
 NBasis=   524 RedAO= T EigKep=  3.18D-05  NBF=   524
 NBsUse=   524 1.00D-06 EigRej= -1.00D+00 NBFU=   524
 Defaulting to unpruned grid for atomic number  40.
 ExpMin= 1.01D-02 ExpMax= 1.61D+04 ExpMxC= 2.43D+03 IAcc=3 IRadAn=         5 AccDes= 0.00D+00
 Harris functional with IExCor=  402 and IRadAn=       5 diagonalized for initial guess.
 HarFok:  IExCor=  402 AccDes= 0.00D+00 IRadAn=         5 IDoV= 1 UseB2=F ITyADJ=14
 ICtDFT=  3500011 ScaDFX=  1.000000  1.000000  1.000000  1.000000
 Defaulting to unpruned grid for atomic number  40.
 FoFCou: FMM=F IPFlag=           0 FMFlag=      100000 FMFlg1=           0
         NFxFlg=           0 DoJE=T BraDBF=F KetDBF=T FulRan=T
         wScrn=  0.000000 ICntrl=       500 IOpCl=  0 I1Cent=   200000004 NGrid=           0
         NMat0=    1 NMatS0=      1 NMatT0=    0 NMatD0=    1 NMtDS0=    0 NMtDT0=    0
 Petite list used in FoFCou.
 Requested convergence on RMS density matrix=1.00D-08 within 128 cycles.
 Requested convergence on MAX density matrix=1.00D-06.
 Requested convergence on             energy=1.00D-06.
 No special actions if energy rises.
 Defaulting to unpruned grid for atomic number  40.
 Defaulting to unpruned grid for atomic number  40.
 Defaulting to unpruned grid for atomic number  40.
 Defaulting to unpruned grid for atomic number  40.
 Defaulting to unpruned grid for atomic number  40.
 Defaulting to unpruned grid for atomic number  40.
 Defaulting to unpruned grid for atomic number  40.
 Defaulting to unpruned grid for atomic number  40.
 Defaulting to unpruned grid for atomic number  40.
 Defaulting to unpruned grid for atomic number  40.
 Defaulting to unpruned grid for atomic number  40.
 Defaulting to unpruned grid for atomic number  40.
 Defaulting to unpruned grid for atomic number  40.
 Defaulting to unpruned grid for atomic number  40.
 Defaulting to unpruned grid for atomic number  40.
 Defaulting to unpruned grid for atomic number  40.
 SCF Done:  E(RB3LYP) =  -2416.94685260     A.U. after   14 cycles
            NFock= 14  Conv=0.26D-08     -V/T= 2.0185

 **********************************************************************

            Population analysis using the SCF Density.

 **********************************************************************

 Orbital symmetries:
       Occupied  (A) (A) (A) (A) (A) (A) (A) (A) (A) (A) (A) (A)
                 (A) (A) (A) (A) (A) (A) (A) (A) (A) (A) (A) (A)
                 (A) (A) (A) (A) (A) (A) (A) (A) (A) (A) (A) (A)
                 (A) (A) (A) (A) (A) (A) (A) (A) (A) (A) (A) (A)
                 (A) (A) (A) (A) (A) (A) (A) (A) (A) (A) (A) (A)
                 (A) (A) (A) (A) (A) (A) (A) (A) (A) (A) (A) (A)
                 (A) (A) (A) (A) (A) (A) (A) (A) (A) (A) (A) (A)
                 (A) (A) (A) (A) (A) (A) (A) (A) (A) (A) (A) (A)
                 (A) (A) (A) (A) (A) (A) (A) (A)
       Virtual   (A) (A) (A) (A) (A) (A) (A) (A) (A) (A) (A) (A)
                 (A) (A) (A) (A) (A) (A) (A) (A) (A) (A) (A) (A)
                 (A) (A) (A) (A) (A) (A) (A) (A) (A) (A) (A) (A)
                 (A) (A) (A) (A) (A) (A) (A) (A) (A) (A) (A) (A)
                 (A) (A) (A) (A) (A) (A) (A) (A) (A) (A) (A) (A)
                 (A) (A) (A) (A) (A) (A) (A) (A) (A) (A) (A) (A)
                 (A) (A) (A) (A) (A) (A) (A) (A) (A) (A) (A) (A)
                 (A) (A) (A) (A) (A) (A) (A) (A) (A) (A) (A) (A)
                 (A) (A) (A) (A) (A) (A) (A) (A) (A) (A) (A) (A)
                 (A) (A) (A) (A) (A) (A) (A) (A) (A) (A) (A) (A)
                 (A) (A) (A) (A) (A) (A) (A) (A) (A) (A) (A) (A)
                 (A) (A) (A) (A) (A) (A) (A) (A) (A) (A) (A) (A)
                 (A) (A) (A) (A) (A) (A) (A) (A) (A) (A) (A) (A)
                 (A) (A) (A) (A) (A) (A) (A) (A) (A) (A) (A) (A)
                 (A) (A) (A) (A) (A) (A) (A) (A) (A) (A) (A) (A)
                 (A) (A) (A) (A) (A) (A) (A) (A) (A) (A) (A) (A)
                 (A) (A) (A) (A) (A) (A) (A) (A) (A) (A) (A) (A)
                 (A) (A) (A) (A) (A) (A) (A) (A) (A) (A) (A) (A)
                 (A) (A) (A) (A) (A) (A) (A) (A) (A) (A) (A) (A)
                 (A) (A) (A) (A) (A) (A) (A) (A) (A) (A) (A) (A)
                 (A) (A) (A) (A) (A) (A) (A) (A) (A) (A) (A) (A)
                 (A) (A) (A) (A) (A) (A) (A) (A) (A) (A) (A) (A)
                 (A) (A) (A) (A) (A) (A) (A) (A) (A) (A) (A) (A)
                 (A) (A) (A) (A) (A) (A) (A) (A) (A) (A) (A) (A)
                 (A) (A) (A) (A) (A) (A) (A) (A) (A) (A) (A) (A)
                 (A) (A) (A) (A) (A) (A) (A) (A) (A) (A) (A) (A)
                 (A) (A) (A) (A) (A) (A) (A) (A) (A) (A) (A) (A)
                 (A) (A) (A) (A) (A) (A) (A) (A) (A) (A) (A) (A)
                 (A) (A) (A) (A) (A) (A) (A) (A) (A) (A) (A) (A)
                 (A) (A) (A) (A) (A) (A) (A) (A) (A) (A) (A) (A)
                 (A) (A) (A) (A) (A) (A) (A) (A) (A) (A) (A) (A)
                 (A) (A) (A) (A) (A) (A) (A) (A) (A) (A) (A) (A)
                 (A) (A) (A) (A) (A) (A) (A) (A) (A) (A) (A) (A)
                 (A) (A) (A) (A) (A) (A) (A) (A) (A) (A) (A) (A)
                 (A) (A) (A) (A) (A) (A) (A) (A) (A) (A) (A) (A)
 The electronic state is 1-A.
 Alpha  occ. eigenvalues --  -66.22810 -66.21756 -66.21490 -66.21034 -19.18595
 Alpha  occ. eigenvalues --  -19.18353 -19.17795 -19.17030 -19.16735 -19.16541
 Alpha  occ. eigenvalues --  -19.16437 -19.16218 -19.16182 -19.16017 -19.15989
 Alpha  occ. eigenvalues --  -19.15503 -19.15333 -19.15251 -19.14894 -19.14707
 Alpha  occ. eigenvalues --   -5.36870  -5.35837  -5.35565  -5.35094  -3.72854
 Alpha  occ. eigenvalues --   -3.72827  -3.72781  -3.71828  -3.71781  -3.71746
 Alpha  occ. eigenvalues --   -3.71534  -3.71526  -3.71486  -3.71059  -3.71050
 Alpha  occ. eigenvalues --   -3.71025  -2.13365  -1.29608  -1.29523  -1.29366
 Alpha  occ. eigenvalues --   -1.05686  -1.04778  -1.04151  -1.03493  -1.02571
 Alpha  occ. eigenvalues --   -1.02173  -1.01474  -1.00920  -1.00761  -1.00661
 Alpha  occ. eigenvalues --   -0.99830  -0.99305  -0.97374  -0.96285  -0.95725
 Alpha  occ. eigenvalues --   -0.95402  -0.60996  -0.59161  -0.58974  -0.58486
 Alpha  occ. eigenvalues --   -0.55547  -0.54534  -0.53867  -0.53040  -0.52986
 Alpha  occ. eigenvalues --   -0.52491  -0.52144  -0.51711  -0.48784  -0.47602
 Alpha  occ. eigenvalues --   -0.47204  -0.46718  -0.43379  -0.42651  -0.41865
 Alpha  occ. eigenvalues --   -0.41399  -0.41111  -0.40528  -0.39837  -0.39324
 Alpha  occ. eigenvalues --   -0.38810  -0.38684  -0.38649  -0.38141  -0.38016
 Alpha  occ. eigenvalues --   -0.37625  -0.37493  -0.37173  -0.36528  -0.36416
 Alpha  occ. eigenvalues --   -0.36098  -0.35637  -0.35458  -0.35088  -0.34906
 Alpha  occ. eigenvalues --   -0.34607  -0.33994  -0.33703  -0.33470  -0.33269
 Alpha  occ. eigenvalues --   -0.32808  -0.32178  -0.32053  -0.31302
 Alpha virt. eigenvalues --   -0.04331  -0.03156  -0.03038  -0.02755  -0.02095
 Alpha virt. eigenvalues --   -0.01172  -0.00559  -0.00146   0.00132   0.00290
 Alpha virt. eigenvalues --    0.00765   0.00936   0.01021   0.01950   0.02344
 Alpha virt. eigenvalues --    0.03214   0.03335   0.03849   0.03937   0.04078
 Alpha virt. eigenvalues --    0.04148   0.04753   0.05593   0.05839   0.06152
 Alpha virt. eigenvalues --    0.06475   0.07094   0.07451   0.07716   0.08662
 Alpha virt. eigenvalues --    0.08792   0.09028   0.09183   0.09677   0.09966
 Alpha virt. eigenvalues --    0.10396   0.10642   0.10849   0.11212   0.11693
 Alpha virt. eigenvalues --    0.11824   0.12544   0.13266   0.13333   0.13724
 Alpha virt. eigenvalues --    0.14040   0.14369   0.14885   0.15119   0.15308
 Alpha virt. eigenvalues --    0.15389   0.15753   0.16170   0.16722   0.16932
 Alpha virt. eigenvalues --    0.17397   0.17503   0.17671   0.18091   0.18348
 Alpha virt. eigenvalues --    0.18533   0.18738   0.19212   0.19658   0.19739
 Alpha virt. eigenvalues --    0.20108   0.20374   0.20661   0.21016   0.21188
 Alpha virt. eigenvalues --    0.21750   0.21877   0.22285   0.22484   0.22789
 Alpha virt. eigenvalues --    0.23373   0.23782   0.24036   0.24167   0.24475
 Alpha virt. eigenvalues --    0.24920   0.25109   0.25554   0.25804   0.26160
 Alpha virt. eigenvalues --    0.26525   0.26706   0.26909   0.27279   0.27399
 Alpha virt. eigenvalues --    0.27949   0.28215   0.28513   0.28863   0.29026
 Alpha virt. eigenvalues --    0.29453   0.29686   0.30011   0.30418   0.30615
 Alpha virt. eigenvalues --    0.30858   0.31333   0.31463   0.31524   0.32192
 Alpha virt. eigenvalues --    0.32374   0.32828   0.33100   0.33555   0.34036
 Alpha virt. eigenvalues --    0.34416   0.34638   0.35328   0.35776   0.36268
 Alpha virt. eigenvalues --    0.36972   0.37547   0.37999   0.38413   0.38830
 Alpha virt. eigenvalues --    0.39278   0.39941   0.40017   0.41154   0.41610
 Alpha virt. eigenvalues --    0.42576   0.43196   0.43892   0.44348   0.44947
 Alpha virt. eigenvalues --    0.45230   0.45737   0.45951   0.46690   0.47474
 Alpha virt. eigenvalues --    0.47868   0.48465   0.48871   0.49465   0.49595
 Alpha virt. eigenvalues --    0.49997   0.50769   0.51115   0.51332   0.53184
 Alpha virt. eigenvalues --    0.54068   0.54454   0.55209   0.56865   0.57278
 Alpha virt. eigenvalues --    0.58250   0.58729   0.59095   0.59447   0.60337
 Alpha virt. eigenvalues --    0.61186   0.61691   0.62120   0.64070   0.65898
 Alpha virt. eigenvalues --    0.66814   0.67852   0.68407   0.68959   0.69467
 Alpha virt. eigenvalues --    0.70160   0.70422   0.72934   0.74386   0.75166
 Alpha virt. eigenvalues --    0.75497   0.77383   0.78559   0.79015   0.80443
 Alpha virt. eigenvalues --    0.81148   0.81525   0.82604   0.84116   0.85447
 Alpha virt. eigenvalues --    0.86780   0.87643   0.89943   0.90578   0.91173
 Alpha virt. eigenvalues --    0.94262   0.95715   0.96299   0.96888   0.97462
 Alpha virt. eigenvalues --    0.98161   0.98824   0.99278   0.99808   1.00313
 Alpha virt. eigenvalues --    1.00686   1.01431   1.02022   1.03224   1.04076
 Alpha virt. eigenvalues --    1.04269   1.05598   1.06352   1.06704   1.07925
 Alpha virt. eigenvalues --    1.09788   1.12341   1.15236   1.16183   1.16438
 Alpha virt. eigenvalues --    1.18714   1.19037   1.19885   1.20621   1.21014
 Alpha virt. eigenvalues --    1.21361   1.21790   1.22331   1.22775   1.22966
 Alpha virt. eigenvalues --    1.23492   1.24010   1.24232   1.25231   1.25705
 Alpha virt. eigenvalues --    1.25980   1.27140   1.27569   1.28091   1.28446
 Alpha virt. eigenvalues --    1.28967   1.29804   1.30121   1.30943   1.31407
 Alpha virt. eigenvalues --    1.32429   1.32622   1.33008   1.33383   1.34474
 Alpha virt. eigenvalues --    1.35205   1.36080   1.36487   1.36872   1.37820
 Alpha virt. eigenvalues --    1.39160   1.39746   1.40223   1.41246   1.41509
 Alpha virt. eigenvalues --    1.42726   1.43614   1.44209   1.45219   1.46373
 Alpha virt. eigenvalues --    1.46958   1.48905   1.51208   1.51454   1.52756
 Alpha virt. eigenvalues --    1.56759   1.57337   1.57811   1.59302   1.59721
 Alpha virt. eigenvalues --    1.60066   1.61176   1.61939   1.62530   1.63046
 Alpha virt. eigenvalues --    1.63234   1.63794   1.65224   1.65397   1.66554
 Alpha virt. eigenvalues --    1.67393   1.68030   1.69259   1.69481   1.70082
 Alpha virt. eigenvalues --    1.71344   1.71507   1.71731   1.72694   1.73168
 Alpha virt. eigenvalues --    1.74062   1.75017   1.75655   1.76099   1.76524
 Alpha virt. eigenvalues --    1.77165   1.77335   1.78492   1.78859   1.79705
 Alpha virt. eigenvalues --    1.80491   1.81429   1.82162   1.82595   1.83034
 Alpha virt. eigenvalues --    1.83323   1.84796   1.85065   1.85891   1.86559
 Alpha virt. eigenvalues --    1.87193   1.88105   1.88713   1.89759   1.90486
 Alpha virt. eigenvalues --    1.91232   1.91448   1.92559   1.92780   1.93951
 Alpha virt. eigenvalues --    1.94748   1.95035   1.95893   1.97235   1.98347
 Alpha virt. eigenvalues --    1.98815   2.00445   2.01127   2.02804   2.03693
 Alpha virt. eigenvalues --    2.05864   2.06532   2.07713   2.09822   2.10398
 Alpha virt. eigenvalues --    2.11295   2.13000   2.14355   2.16159   2.16287
 Alpha virt. eigenvalues --    2.17773   2.18857   2.19056   2.20847   2.26576
 Alpha virt. eigenvalues --    2.32459   2.33436   2.35523   2.39474   2.40444
 Alpha virt. eigenvalues --    2.41173   2.41360   2.41693   2.42753   2.43744
 Alpha virt. eigenvalues --    2.44021   2.45644   2.46682   2.47631   2.49038
 Alpha virt. eigenvalues --    2.50215   2.50311   2.51673   2.52709   2.53302
 Alpha virt. eigenvalues --    2.55428   2.58466   2.59160   2.60058   2.60690
 Alpha virt. eigenvalues --    2.61131   2.61790   2.62093   2.62485   2.62791
 Alpha virt. eigenvalues --    2.63178   2.64026   2.64646   2.64992   2.65957
 Alpha virt. eigenvalues --    2.66305   2.66629   2.67317   2.67570   2.69375
 Alpha virt. eigenvalues --    2.69701   2.70304   2.71219   2.71684   2.72386
 Alpha virt. eigenvalues --    2.72881   2.74370   2.75559   2.76758   2.77478
 Alpha virt. eigenvalues --    2.78944   2.80571   2.81453   2.82451   2.83506
 Alpha virt. eigenvalues --    2.83723   2.84698   2.86672   2.87789   2.88141
 Alpha virt. eigenvalues --    3.14907   3.20543   3.35856   3.41134   3.46787
 Alpha virt. eigenvalues --    3.47835   3.48605   3.48638   3.51080   3.51114
 Alpha virt. eigenvalues --    3.52864   3.54000   3.60307   3.61074   3.62062
 Alpha virt. eigenvalues --    3.66190   4.34309   4.60066   7.91144  31.29296
          Condensed to atoms (all electrons):
               1          2          3          4          5          6
     1  Zr  15.074652  -0.110207  -0.001890  -0.130236  -0.188442  -0.615197
     2  O   -0.110207   9.056705   0.019330  -0.042498  -0.057187   0.085378
     3  O   -0.001890   0.019330   8.828113   0.016603  -0.044913  -0.003151
     4  O   -0.130236  -0.042498   0.016603   8.810124  -0.060953  -0.676817
     5  O   -0.188442  -0.057187  -0.044913  -0.060953   9.422628  -0.007876
     6  Si  -0.615197   0.085378  -0.003151  -0.676817  -0.007876  14.008524
     7  Si  -0.611750  -0.029040  -0.874901  -0.007924  -0.034274   0.083668
     8  Si  -0.611281  -0.998174  -0.019648   0.070165  -0.014713  -0.009462
     9  Si  -0.316455  -0.040276  -0.026487  -0.032104  -1.216424   0.039136
    10  O   -0.016694   0.001038  -0.001920   0.000819   0.128981  -0.002266
    11  O   -0.067174   0.003230   0.003026   0.001304   0.313785  -0.000731
    12  O    0.045710   0.000045   0.004624   0.002003   0.146836  -0.003098
    13  O   -0.029375   0.184249   0.001620  -0.015470  -0.000676   0.033689
    14  O   -0.012030   0.261363  -0.017873  -0.008750   0.001806   0.027697
    15  O   -0.085189   0.293249  -0.000663   0.001226   0.000601   0.000437
    16  O   -0.123626   0.004694  -0.000509   0.345633   0.003232  -0.425839
    17  O   -0.081352  -0.039594   0.008453   0.216640   0.001369  -0.451118
    18  O   -0.025301  -0.014699   0.003747   0.197783  -0.000625  -0.451688
    19  O    0.003709   0.008820   0.266078   0.010410   0.002153  -0.008162
    20  O   -0.145712  -0.000581   0.163798  -0.000843   0.001503   0.009135
    21  O    0.036715   0.010000   0.145946   0.003470   0.000184  -0.012099
    22  H   -0.009040  -0.000016  -0.000009  -0.000008   0.005874   0.000088
    23  H   -0.007742  -0.000012  -0.000005  -0.000054  -0.025294   0.000095
    24  H   -0.005256  -0.000178  -0.000012   0.000005  -0.005138   0.000087
    25  H    0.016319  -0.019859  -0.000110  -0.000350   0.000018   0.002891
    26  H    0.007232   0.000677   0.000014  -0.000011  -0.000004  -0.000158
    27  H    0.002948  -0.018977   0.000841  -0.001718   0.000012   0.009232
    28  H    0.005021  -0.000011  -0.018379  -0.000014  -0.000015  -0.000280
    29  H    0.003797  -0.007012  -0.020251  -0.000139  -0.000073   0.000167
    30  H    0.000662  -0.000012   0.000028  -0.000457  -0.000008  -0.000624
    31  H   -0.000133   0.000179  -0.000020  -0.018452  -0.000010   0.063812
    32  H    0.002169  -0.000024   0.000041   0.010474   0.000001   0.022627
    33  H   -0.015786   0.001016  -0.010140  -0.009607  -0.000101   0.053109
               7          8          9         10         11         12
     1  Zr  -0.611750  -0.611281  -0.316455  -0.016694  -0.067174   0.045710
     2  O   -0.029040  -0.998174  -0.040276   0.001038   0.003230   0.000045
     3  O   -0.874901  -0.019648  -0.026487  -0.001920   0.003026   0.004624
     4  O   -0.007924   0.070165  -0.032104   0.000819   0.001304   0.002003
     5  O   -0.034274  -0.014713  -1.216424   0.128981   0.313785   0.146836
     6  Si   0.083668  -0.009462   0.039136  -0.002266  -0.000731  -0.003098
     7  Si  13.794820   0.182967   0.019482  -0.000185  -0.000945   0.003776
     8  Si   0.182967  13.819276   0.026739  -0.001066   0.001263  -0.001089
     9  Si   0.019482   0.026739  14.217512  -0.063980  -0.178199  -0.203142
    10  O   -0.000185  -0.001066  -0.063980   8.524147   0.014292   0.030608
    11  O   -0.000945   0.001263  -0.178199   0.014292   8.516941  -0.050736
    12  O    0.003776  -0.001089  -0.203142   0.030608  -0.050736   8.599129
    13  O    0.007103  -0.096327   0.000141   0.000000   0.000019   0.000007
    14  O    0.008940  -0.367471  -0.001528  -0.000002   0.000002   0.000016
    15  O   -0.002442  -0.304973  -0.000564  -0.000000  -0.000023  -0.000013
    16  O    0.003787  -0.010573  -0.001055   0.000005  -0.000003  -0.000001
    17  O   -0.000907   0.096553   0.002560  -0.000001   0.000002  -0.000006
    18  O   -0.000834   0.075335   0.004101  -0.000001   0.000001  -0.000001
    19  O   -0.412071  -0.016335   0.001020   0.000007  -0.000002  -0.000027
    20  O   -0.109214   0.009603   0.003093   0.000005  -0.000003  -0.000034
    21  O    0.024897  -0.040014  -0.001722   0.000001   0.000001   0.000020
    22  H   -0.000162   0.000094   0.047251  -0.006407  -0.005036   0.219478
    23  H    0.000058   0.000061   0.081138   0.228621  -0.006070   0.005853
    24  H    0.000049  -0.000070   0.036643   0.007357   0.242654  -0.007368
    25  H   -0.000447   0.057426  -0.000207   0.000000  -0.000000  -0.000000
    26  H   -0.000385   0.046194  -0.000044  -0.000000   0.000000  -0.000000
    27  H    0.001480   0.068634  -0.000001   0.000000  -0.000000  -0.000000
    28  H    0.056616  -0.000054  -0.000138  -0.000000  -0.000000  -0.000003
    29  H    0.048223   0.022041  -0.000058   0.000000   0.000000  -0.000001
    30  H    0.040412   0.000117   0.000021  -0.000000   0.000000   0.000000
    31  H    0.000155  -0.002009  -0.000052   0.000000  -0.000000   0.000000
    32  H   -0.000663   0.000055   0.000013  -0.000000   0.000000  -0.000000
    33  H    0.020646   0.000059   0.000077  -0.000000   0.000000   0.000000
              13         14         15         16         17         18
     1  Zr  -0.029375  -0.012030  -0.085189  -0.123626  -0.081352  -0.025301
     2  O    0.184249   0.261363   0.293249   0.004694  -0.039594  -0.014699
     3  O    0.001620  -0.017873  -0.000663  -0.000509   0.008453   0.003747
     4  O   -0.015470  -0.008750   0.001226   0.345633   0.216640   0.197783
     5  O   -0.000676   0.001806   0.000601   0.003232   0.001369  -0.000625
     6  Si   0.033689   0.027697   0.000437  -0.425839  -0.451118  -0.451688
     7  Si   0.007103   0.008940  -0.002442   0.003787  -0.000907  -0.000834
     8  Si  -0.096327  -0.367471  -0.304973  -0.010573   0.096553   0.075335
     9  Si   0.000141  -0.001528  -0.000564  -0.001055   0.002560   0.004101
    10  O    0.000000  -0.000002  -0.000000   0.000005  -0.000001  -0.000001
    11  O    0.000019   0.000002  -0.000023  -0.000003   0.000002   0.000001
    12  O    0.000007   0.000016  -0.000013  -0.000001  -0.000006  -0.000001
    13  O    8.627101   0.086841  -0.090530   0.003746  -0.030904  -0.045739
    14  O    0.086841   8.672783   0.055691   0.003656  -0.035810  -0.026881
    15  O   -0.090530   0.055691   8.778091  -0.000175   0.003612   0.001682
    16  O    0.003746   0.003656  -0.000175   8.902388  -0.091830  -0.114672
    17  O   -0.030904  -0.035810   0.003612  -0.091830   8.935146   0.227442
    18  O   -0.045739  -0.026881   0.001682  -0.114672   0.227442   9.012378
    19  O    0.000169  -0.000508   0.000144  -0.001503  -0.029907   0.000152
    20  O    0.000008  -0.000262   0.000038   0.000066  -0.000972   0.000015
    21  O   -0.000255   0.015844  -0.000626  -0.000213  -0.005574   0.000479
    22  H   -0.000000  -0.000000   0.000000   0.000000   0.000000  -0.000000
    23  H    0.000000   0.000000  -0.000000  -0.000000   0.000000  -0.000000
    24  H   -0.000000   0.000000   0.000002   0.000000  -0.000000  -0.000000
    25  H    0.218577  -0.011924   0.008912  -0.000056   0.000633   0.014984
    26  H   -0.005095  -0.010105   0.216858   0.000000  -0.000003   0.000006
    27  H   -0.009664   0.219518   0.004633   0.000183   0.017960  -0.000244
    28  H    0.000000  -0.000006  -0.000001  -0.000000   0.000004  -0.000000
    29  H    0.000800   0.017587  -0.002572  -0.000004  -0.000396   0.000006
    30  H    0.000001   0.000001   0.000000   0.000114  -0.000404  -0.000007
    31  H    0.002365   0.000168  -0.000018   0.003742  -0.000743   0.218152
    32  H   -0.000008  -0.000006   0.000000   0.233503  -0.003632   0.003879
    33  H    0.000229   0.002098  -0.000035  -0.000093   0.231012   0.002099
              19         20         21         22         23         24
     1  Zr   0.003709  -0.145712   0.036715  -0.009040  -0.007742  -0.005256
     2  O    0.008820  -0.000581   0.010000  -0.000016  -0.000012  -0.000178
     3  O    0.266078   0.163798   0.145946  -0.000009  -0.000005  -0.000012
     4  O    0.010410  -0.000843   0.003470  -0.000008  -0.000054   0.000005
     5  O    0.002153   0.001503   0.000184   0.005874  -0.025294  -0.005138
     6  Si  -0.008162   0.009135  -0.012099   0.000088   0.000095   0.000087
     7  Si  -0.412071  -0.109214   0.024897  -0.000162   0.000058   0.000049
     8  Si  -0.016335   0.009603  -0.040014   0.000094   0.000061  -0.000070
     9  Si   0.001020   0.003093  -0.001722   0.047251   0.081138   0.036643
    10  O    0.000007   0.000005   0.000001  -0.006407   0.228621   0.007357
    11  O   -0.000002  -0.000003   0.000001  -0.005036  -0.006070   0.242654
    12  O   -0.000027  -0.000034   0.000020   0.219478   0.005853  -0.007368
    13  O    0.000169   0.000008  -0.000255  -0.000000   0.000000  -0.000000
    14  O   -0.000508  -0.000262   0.015844  -0.000000   0.000000   0.000000
    15  O    0.000144   0.000038  -0.000626   0.000000  -0.000000   0.000002
    16  O   -0.001503   0.000066  -0.000213   0.000000  -0.000000   0.000000
    17  O   -0.029907  -0.000972  -0.005574   0.000000   0.000000  -0.000000
    18  O    0.000152   0.000015   0.000479  -0.000000  -0.000000  -0.000000
    19  O    8.873449   0.032317   0.023270  -0.000000   0.000000  -0.000000
    20  O    0.032317   8.657513  -0.050497   0.000000   0.000000  -0.000000
    21  O    0.023270  -0.050497   8.485284  -0.000000   0.000000   0.000000
    22  H   -0.000000   0.000000  -0.000000   0.361881   0.000057   0.000122
    23  H    0.000000   0.000000   0.000000   0.000057   0.351020   0.000015
    24  H   -0.000000  -0.000000   0.000000   0.000122   0.000015   0.365272
    25  H   -0.000024   0.000000  -0.000019   0.000000   0.000000   0.000000
    26  H    0.000001  -0.000000   0.000040  -0.000000  -0.000000  -0.000000
    27  H    0.000041   0.000192  -0.004003  -0.000000  -0.000000   0.000000
    28  H    0.004623   0.229577  -0.002053  -0.000000   0.000000  -0.000000
    29  H   -0.008577   0.007670   0.206482   0.000000   0.000000  -0.000000
    30  H    0.224104  -0.001487  -0.007151   0.000000   0.000000  -0.000000
    31  H    0.000004  -0.000000  -0.000000  -0.000000  -0.000000   0.000000
    32  H    0.000097  -0.000000   0.000001  -0.000000  -0.000000  -0.000000
    33  H    0.014802  -0.000082   0.001480  -0.000000  -0.000000  -0.000000
              25         26         27         28         29         30
     1  Zr   0.016319   0.007232   0.002948   0.005021   0.003797   0.000662
     2  O   -0.019859   0.000677  -0.018977  -0.000011  -0.007012  -0.000012
     3  O   -0.000110   0.000014   0.000841  -0.018379  -0.020251   0.000028
     4  O   -0.000350  -0.000011  -0.001718  -0.000014  -0.000139  -0.000457
     5  O    0.000018  -0.000004   0.000012  -0.000015  -0.000073  -0.000008
     6  Si   0.002891  -0.000158   0.009232  -0.000280   0.000167  -0.000624
     7  Si  -0.000447  -0.000385   0.001480   0.056616   0.048223   0.040412
     8  Si   0.057426   0.046194   0.068634  -0.000054   0.022041   0.000117
     9  Si  -0.000207  -0.000044  -0.000001  -0.000138  -0.000058   0.000021
    10  O    0.000000  -0.000000   0.000000  -0.000000   0.000000  -0.000000
    11  O   -0.000000   0.000000  -0.000000  -0.000000   0.000000   0.000000
    12  O   -0.000000  -0.000000  -0.000000  -0.000003  -0.000001   0.000000
    13  O    0.218577  -0.005095  -0.009664   0.000000   0.000800   0.000001
    14  O   -0.011924  -0.010105   0.219518  -0.000006   0.017587   0.000001
    15  O    0.008912   0.216858   0.004633  -0.000001  -0.002572   0.000000
    16  O   -0.000056   0.000000   0.000183  -0.000000  -0.000004   0.000114
    17  O    0.000633  -0.000003   0.017960   0.000004  -0.000396  -0.000404
    18  O    0.014984   0.000006  -0.000244  -0.000000   0.000006  -0.000007
    19  O   -0.000024   0.000001   0.000041   0.004623  -0.008577   0.224104
    20  O    0.000000  -0.000000   0.000192   0.229577   0.007670  -0.001487
    21  O   -0.000019   0.000040  -0.004003  -0.002053   0.206482  -0.007151
    22  H    0.000000  -0.000000  -0.000000  -0.000000   0.000000   0.000000
    23  H    0.000000  -0.000000  -0.000000   0.000000   0.000000   0.000000
    24  H    0.000000  -0.000000   0.000000  -0.000000  -0.000000  -0.000000
    25  H    0.298868  -0.000012   0.000111   0.000000   0.000001   0.000000
    26  H   -0.000012   0.366076   0.000035   0.000000   0.000021  -0.000000
    27  H    0.000111   0.000035   0.283349  -0.000000  -0.001498   0.000009
    28  H    0.000000   0.000000  -0.000000   0.349146  -0.000017  -0.000016
    29  H    0.000001   0.000021  -0.001498  -0.000017   0.285931   0.000156
    30  H    0.000000  -0.000000   0.000009  -0.000016   0.000156   0.334278
    31  H   -0.000496   0.000000   0.000013  -0.000000   0.000000  -0.000000
    32  H   -0.000001   0.000000  -0.000000   0.000000  -0.000000  -0.000000
    33  H    0.000006  -0.000000  -0.002412  -0.000002   0.000099  -0.001160
              31         32         33
     1  Zr  -0.000133   0.002169  -0.015786
     2  O    0.000179  -0.000024   0.001016
     3  O   -0.000020   0.000041  -0.010140
     4  O   -0.018452   0.010474  -0.009607
     5  O   -0.000010   0.000001  -0.000101
     6  Si   0.063812   0.022627   0.053109
     7  Si   0.000155  -0.000663   0.020646
     8  Si  -0.002009   0.000055   0.000059
     9  Si  -0.000052   0.000013   0.000077
    10  O    0.000000  -0.000000  -0.000000
    11  O   -0.000000   0.000000   0.000000
    12  O    0.000000  -0.000000   0.000000
    13  O    0.002365  -0.000008   0.000229
    14  O    0.000168  -0.000006   0.002098
    15  O   -0.000018   0.000000  -0.000035
    16  O    0.003742   0.233503  -0.000093
    17  O   -0.000743  -0.003632   0.231012
    18  O    0.218152   0.003879   0.002099
    19  O    0.000004   0.000097   0.014802
    20  O   -0.000000  -0.000000  -0.000082
    21  O   -0.000000   0.000001   0.001480
    22  H   -0.000000  -0.000000  -0.000000
    23  H   -0.000000  -0.000000  -0.000000
    24  H    0.000000  -0.000000  -0.000000
    25  H   -0.000496  -0.000001   0.000006
    26  H    0.000000   0.000000  -0.000000
    27  H    0.000013  -0.000000  -0.002412
    28  H   -0.000000   0.000000  -0.000002
    29  H    0.000000  -0.000000   0.000099
    30  H   -0.000000  -0.000000  -0.001160
    31  H    0.331417   0.000001  -0.000038
    32  H    0.000001   0.350003   0.000157
    33  H   -0.000038   0.000157   0.269264
 Mulliken charges:
               1
     1  Zr   0.010935
     2  O   -0.551617
     3  O   -0.421384
     4  O   -0.680252
     5  O   -0.372257
     6  Si   2.228793
     7  Si   1.789065
     8  Si   2.016675
     9  Si   1.603509
    10  O   -0.843357
    11  O   -0.787599
    12  O   -0.792588
    13  O   -0.842623
    14  O   -0.880857
    15  O   -0.877351
    16  O   -0.734597
    17  O   -0.968232
    18  O   -1.081547
    19  O   -0.988254
    20  O   -0.804847
    21  O   -0.829888
    22  H    0.385832
    23  H    0.372260
    24  H    0.365817
    25  H    0.414757
    26  H    0.378662
    27  H    0.429325
    28  H    0.376002
    29  H    0.447616
    30  H    0.411424
    31  H    0.401963
    32  H    0.381313
    33  H    0.443302
 Sum of Mulliken charges =  -0.00000
 Mulliken charges with hydrogens summed into heavy atoms:
               1
     1  Zr   0.010935
     2  O   -0.551617
     3  O   -0.421384
     4  O   -0.680252
     5  O   -0.372257
     6  Si   2.228793
     7  Si   1.789065
     8  Si   2.016675
     9  Si   1.603509
    10  O   -0.471097
    11  O   -0.421782
    12  O   -0.406756
    13  O   -0.427866
    14  O   -0.451532
    15  O   -0.498689
    16  O   -0.353283
    17  O   -0.524931
    18  O   -0.679584
    19  O   -0.576831
    20  O   -0.428844
    21  O   -0.382272
 Electronic spatial extent (au):  <R**2>=           9868.3417
 Charge=              0.0000 electrons
 Dipole moment (field-independent basis, Debye):
    X=              1.0577    Y=             -0.8085    Z=             -2.4821  Tot=              2.8166
 Quadrupole moment (field-independent basis, Debye-Ang):
   XX=           -160.2050   YY=           -154.6885   ZZ=           -157.7298
   XY=             -5.0383   XZ=              2.1033   YZ=              5.7093
 Traceless Quadrupole moment (field-independent basis, Debye-Ang):
   XX=             -2.6639   YY=              2.8526   ZZ=             -0.1887
   XY=             -5.0383   XZ=              2.1033   YZ=              5.7093
 Octapole moment (field-independent basis, Debye-Ang**2):
  XXX=             74.3534  YYY=              6.1015  ZZZ=            -21.0871  XYY=             -3.2181
  XXY=             20.0859  XXZ=             19.1589  XZZ=              6.1336  YZZ=            -17.0835
  YYZ=            -13.9289  XYZ=             27.9449
 Hexadecapole moment (field-independent basis, Debye-Ang**3):
 XXXX=          -6031.2936 YYYY=          -2833.6937 ZZZZ=          -2256.7327 XXXY=             53.2103
 XXXZ=            -15.6081 YYYX=              2.4355 YYYZ=            215.6550 ZZZX=           -194.0871
 ZZZY=            -53.3429 XXYY=          -1490.4845 XXZZ=          -1354.7945 YYZZ=           -926.8406
 XXYZ=             -7.9378 YYXZ=            137.6247 ZZXY=            -56.7109
 N-N= 2.832861947002D+03 E-N=-1.137832453899D+04  KE= 2.373155040486D+03
 PrsmSu:  requested number of processors reduced to:   2 ShMem   1 Linda.
 PrsmSu:  requested number of processors reduced to:  10 ShMem   1 Linda.
   1 Symmetry operations used in ECPInt.
 ECPInt:  NShTT=   13203 NPrTT=   78401 LenC2=   11522 LenP2D=   44634.
 LDataN:  DoStor=T MaxTD1= 9 Len=  602
 Number of processors reduced to  14 by ecpmxn.
 Calling FoFJK, ICntrl=      2127 FMM=F ISym2X=0 I1Cent= 0 IOpClX= 0 NMat=1 NMatS=1 NMatT=0.
 CoulSu:  requested number of processors reduced to:  10 ShMem   1 Linda.
 Defaulting to unpruned grid for atomic number  40.
 Defaulting to unpruned grid for atomic number  40.
 Defaulting to unpruned grid for atomic number  40.
 Defaulting to unpruned grid for atomic number  40.
 Defaulting to unpruned grid for atomic number  40.
 Defaulting to unpruned grid for atomic number  40.
 Defaulting to unpruned grid for atomic number  40.
 Defaulting to unpruned grid for atomic number  40.
 Defaulting to unpruned grid for atomic number  40.
 Defaulting to unpruned grid for atomic number  40.
 Defaulting to unpruned grid for atomic number  40.
 Defaulting to unpruned grid for atomic number  40.
 Defaulting to unpruned grid for atomic number  40.
 Defaulting to unpruned grid for atomic number  40.
 Defaulting to unpruned grid for atomic number  40.
 Defaulting to unpruned grid for atomic number  40.
 ***** Axes restored to original set *****
 -------------------------------------------------------------------
 Center     Atomic                   Forces (Hartrees/Bohr)
 Number     Number              X              Y              Z
 -------------------------------------------------------------------
      1       40           0.000022185    0.000008364    0.000197997
      2        8          -0.000029625   -0.000003023   -0.000095816
      3        8           0.000029722    0.000037229   -0.000021308
      4        8           0.000016977   -0.000036978   -0.000037009
      5        8          -0.000005471   -0.000046614   -0.000071503
      6       14          -0.000028473    0.000026249    0.000020358
      7       14          -0.000008351   -0.000010223    0.000032514
      8       14           0.000017572    0.000027434    0.000066286
      9       14          -0.000011673    0.000089560    0.000001353
     10        8           0.000011447   -0.000022377    0.000003461
     11        8          -0.000001064   -0.000065396   -0.000013382
     12        8          -0.000026450   -0.000013503   -0.000015861
     13        8          -0.000004847   -0.000016438   -0.000014894
     14        8          -0.000002321   -0.000004787   -0.000014174
     15        8          -0.000015913   -0.000012972   -0.000034861
     16        8           0.000008261   -0.000004462   -0.000013259
     17        8           0.000014479   -0.000009018   -0.000014530
     18        8          -0.000000697   -0.000001043   -0.000001828
     19        8           0.000000394    0.000000775   -0.000010245
     20        8           0.000011749    0.000002381   -0.000003425
     21        8          -0.000003520    0.000005735   -0.000021807
     22        1           0.000001316    0.000000976    0.000002702
     23        1          -0.000003723   -0.000000356    0.000000047
     24        1           0.000015623    0.000034956    0.000021557
     25        1          -0.000001501    0.000004008    0.000004445
     26        1           0.000002111    0.000005485    0.000004882
     27        1          -0.000003382    0.000002683    0.000005115
     28        1          -0.000001123    0.000000775    0.000002464
     29        1           0.000007796   -0.000000719    0.000009282
     30        1           0.000000300    0.000001181    0.000002683
     31        1           0.000000527   -0.000003102   -0.000003214
     32        1          -0.000011481    0.000000584    0.000003896
     33        1          -0.000000843    0.000002637    0.000008074
 -------------------------------------------------------------------
 Cartesian Forces:  Max     0.000197997 RMS     0.000030538

 GradGradGradGradGradGradGradGradGradGradGradGradGradGradGradGradGradGrad
 Berny optimization.
 FormGI is forming the generalized inverse of G from B-inverse, IUseBI=4.
 Internal  Forces:  Max     0.000148283 RMS     0.000024304
 Search for a local minimum.
 Step number   1 out of a maximum of  148
 All quantities printed in internal units (Hartrees-Bohrs-Radians)
 Mixed Optimization -- En-DIIS/RFO-DIIS
 Second derivative matrix not updated -- first step.
 ITU=  0
     Eigenvalues ---    0.00230   0.00230   0.00230   0.03240   0.03358
     Eigenvalues ---    0.03498   0.03580   0.03665   0.03665   0.03680
     Eigenvalues ---    0.03686   0.03693   0.03739   0.03789   0.03792
     Eigenvalues ---    0.03816   0.03834   0.03850   0.05521   0.09402
     Eigenvalues ---    0.09687   0.11077   0.11224   0.11833   0.11884
     Eigenvalues ---    0.11890   0.12177   0.12239   0.12299   0.12782
     Eigenvalues ---    0.12895   0.13099   0.13313   0.16000   0.16000
     Eigenvalues ---    0.16000   0.16000   0.16000   0.16000   0.16000
     Eigenvalues ---    0.16000   0.16000   0.16000   0.16000   0.16000
     Eigenvalues ---    0.19173   0.19314   0.19332   0.20013   0.20203
     Eigenvalues ---    0.20204   0.20208   0.20515   0.20653   0.20795
     Eigenvalues ---    0.20989   0.21175   0.21186   0.21227   0.25000
     Eigenvalues ---    0.25000   0.25000   0.38002   0.39187   0.40659
     Eigenvalues ---    0.41547   0.42502   0.42509   0.42670   0.42743
     Eigenvalues ---    0.42824   0.43363   0.43951   0.43980   0.44273
     Eigenvalues ---    0.44485   0.44689   0.44768   0.50655   0.51353
     Eigenvalues ---    0.52036   0.52548   0.54334   0.54624   0.54641
     Eigenvalues ---    0.54649   0.54689   0.54692   0.54712   0.54765
     Eigenvalues --- 1000.000001000.000001000.000001000.000001000.00000
     Eigenvalues --- 1000.000001000.000001000.000001000.000001000.00000
     Eigenvalues --- 1000.000001000.000001000.000001000.000001000.00000
     Eigenvalues --- 1000.000001000.000001000.000001000.000001000.00000
     Eigenvalues --- 1000.000001000.000001000.000001000.000001000.00000
     Eigenvalues --- 1000.000001000.000001000.000001000.000001000.00000
     Eigenvalues --- 1000.000001000.000001000.000001000.000001000.00000
     Eigenvalues --- 1000.000001000.000001000.000001000.000001000.00000
     Eigenvalues --- 1000.000001000.000001000.000001000.000001000.00000
     Eigenvalues --- 1000.000001000.000001000.00000
 RFO step:  Lambda=-5.59696020D-07 EMin= 2.30000000D-03
 Linear search not attempted -- first point.
 Iteration  1 RMS(Cart)=  0.00206594 RMS(Int)=  0.00000071
 Iteration  2 RMS(Cart)=  0.00000128 RMS(Int)=  0.00000006
 Iteration  3 RMS(Cart)=  0.00000000 RMS(Int)=  0.00000006
 Iteration  1 RMS(Cart)=  0.00000004 RMS(Int)=  0.00000001
 Variable       Old X    -DE/DX   Delta X   Delta X   Delta X     New X
                                 (Linear)    (Quad)   (Total)
    R1        3.67647  -0.00005   0.00000  -0.00022  -0.00022   3.67625
    R2        3.69189   0.00002   0.00000   0.00012   0.00012   3.69201
    R3        3.73835   0.00004   0.00000   0.00021   0.00021   3.73856
    R4        3.70232  -0.00002   0.00000  -0.00008  -0.00008   3.70223
    R5        3.11688   0.00001   0.00000   0.00002   0.00002   3.11690
    R6        3.09579  -0.00000   0.00000  -0.00000  -0.00000   3.09579
    R7        3.10213   0.00001   0.00000   0.00003   0.00003   3.10216
    R8        3.09246  -0.00001   0.00000  -0.00002  -0.00002   3.09244
    R9        3.11587   0.00001   0.00000   0.00002   0.00002   3.11589
   R10        3.11989  -0.00002   0.00000  -0.00004  -0.00004   3.11985
   R11        3.14367   0.00000   0.00000   0.00001   0.00001   3.14368
   R12        3.18062   0.00001   0.00000   0.00002   0.00002   3.18064
   R13        3.10924   0.00000   0.00000   0.00001   0.00001   3.10925
   R14        3.09339  -0.00001   0.00000  -0.00003  -0.00003   3.09336
   R15        3.10179   0.00002   0.00000   0.00004   0.00004   3.10183
   R16        3.16373   0.00000   0.00000   0.00001   0.00001   3.16374
   R17        3.09830  -0.00003   0.00000  -0.00007  -0.00007   3.09823
   R18        3.11981  -0.00000   0.00000  -0.00000  -0.00000   3.11980
   R19        3.13204   0.00003   0.00000   0.00008   0.00008   3.13211
   R20        3.11779  -0.00002   0.00000  -0.00004  -0.00004   3.11775
   R21        1.82152  -0.00000   0.00000  -0.00000  -0.00000   1.82152
   R22        1.82107  -0.00001   0.00000  -0.00001  -0.00001   1.82106
   R23        1.82089   0.00000   0.00000   0.00000   0.00000   1.82089
   R24        1.84078  -0.00001   0.00000  -0.00001  -0.00001   1.84077
   R25        1.84565  -0.00000   0.00000  -0.00001  -0.00001   1.84564
   R26        1.82041  -0.00000   0.00000  -0.00000  -0.00000   1.82041
   R27        1.82109  -0.00001   0.00000  -0.00002  -0.00002   1.82107
   R28        1.85910  -0.00000   0.00000  -0.00000  -0.00000   1.85910
   R29        1.82145   0.00001   0.00000   0.00001   0.00001   1.82146
   R30        1.82428  -0.00000   0.00000  -0.00000  -0.00000   1.82428
   R31        1.82168   0.00000   0.00000   0.00000   0.00000   1.82168
   R32        1.85224   0.00000   0.00000   0.00000   0.00000   1.85224
    A1        1.85172   0.00002   0.00000   0.00054   0.00054   1.85226
    A2        1.80155  -0.00006   0.00000  -0.00028  -0.00028   1.80127
    A3        1.96889   0.00010   0.00000   0.00084   0.00084   1.96973
    A4        1.83430   0.00004   0.00000  -0.00025  -0.00025   1.83405
    A5        2.01802  -0.00006   0.00000  -0.00031  -0.00031   2.01771
    A6        1.97057  -0.00004   0.00000  -0.00055  -0.00055   1.97002
    A7        2.46524   0.00002   0.00000   0.00010   0.00010   2.46534
    A8        2.58826  -0.00001   0.00000  -0.00003  -0.00003   2.58823
    A9        2.35483  -0.00002   0.00000  -0.00010  -0.00010   2.35473
   A10        2.86714  -0.00015   0.00000   0.00000  -0.00000   2.86714
   A11        1.91978   0.00000   0.00000   0.00002   0.00002   1.91980
   A12        1.91546  -0.00000   0.00000  -0.00001  -0.00001   1.91546
   A13        1.95201  -0.00000   0.00000  -0.00002  -0.00002   1.95199
   A14        2.00708   0.00000   0.00000   0.00002   0.00002   2.00710
   A15        1.88610  -0.00001   0.00000  -0.00005  -0.00005   1.88606
[...]
 Alpha virt. eigenvalues --    3.14907   3.20533   3.35859   3.41129   3.46785
 Alpha virt. eigenvalues --    3.47829   3.48608   3.48636   3.51083   3.51108
 Alpha virt. eigenvalues --    3.52849   3.54001   3.60299   3.61086   3.62058
 Alpha virt. eigenvalues --    3.66196   4.34141   4.60133   7.91064  31.29297
          Condensed to atoms (all electrons):
               1          2          3          4          5          6
     1  Zr  15.075817  -0.114483  -0.001255  -0.129246  -0.189652  -0.614354
     2  O   -0.114483   9.057665   0.019395  -0.042569  -0.057244   0.086251
     3  O   -0.001255   0.019395   8.827563   0.016527  -0.044902  -0.003313
     4  O   -0.129246  -0.042569   0.016527   8.810018  -0.060787  -0.677568
     5  O   -0.189652  -0.057244  -0.044902  -0.060787   9.422338  -0.007910
     6  Si  -0.614354   0.086251  -0.003313  -0.677568  -0.007910  14.008108
     7  Si  -0.611340  -0.028501  -0.874492  -0.007992  -0.034201   0.083920
     8  Si  -0.607144  -0.996789  -0.019716   0.070080  -0.014645  -0.010382
     9  Si  -0.316128  -0.039816  -0.026564  -0.032470  -1.214881   0.039085
    10  O   -0.016763   0.001027  -0.001922   0.000825   0.128657  -0.002279
    11  O   -0.066879   0.003211   0.003028   0.001308   0.312662  -0.000736
    12  O    0.045380   0.000020   0.004641   0.002022   0.147027  -0.003095
    13  O   -0.030174   0.184390   0.001619  -0.015470  -0.000679   0.033883
    14  O   -0.013162   0.261399  -0.017867  -0.008742   0.001815   0.027889
    15  O   -0.085230   0.293204  -0.000655   0.001225   0.000594   0.000445
    16  O   -0.123558   0.004711  -0.000511   0.345568   0.003259  -0.425771
    17  O   -0.080983  -0.039730   0.008329   0.216789   0.001352  -0.451507
    18  O   -0.025819  -0.014654   0.003739   0.197935  -0.000628  -0.451229
    19  O    0.002959   0.008828   0.266053   0.010394   0.002146  -0.007983
    20  O   -0.145832  -0.000578   0.163693  -0.000841   0.001510   0.009110
    21  O    0.036733   0.010021   0.145801   0.003468   0.000186  -0.012065
    22  H   -0.008997  -0.000016  -0.000009  -0.000008   0.005864   0.000088
    23  H   -0.007687  -0.000012  -0.000005  -0.000055  -0.025279   0.000094
    24  H   -0.005268  -0.000176  -0.000012   0.000005  -0.005236   0.000086
    25  H    0.016461  -0.019884  -0.000109  -0.000344   0.000018   0.002839
    26  H    0.007239   0.000666   0.000014  -0.000011  -0.000004  -0.000158
    27  H    0.003084  -0.019003   0.000837  -0.001720   0.000012   0.009216
    28  H    0.005046  -0.000011  -0.018372  -0.000014  -0.000015  -0.000280
    29  H    0.003849  -0.007035  -0.020237  -0.000140  -0.000073   0.000163
    30  H    0.000694  -0.000012   0.000029  -0.000457  -0.000009  -0.000637
    31  H   -0.000096   0.000177  -0.000020  -0.018462  -0.000010   0.063797
    32  H    0.002158  -0.000024   0.000041   0.010457   0.000001   0.022662
    33  H   -0.015752   0.001023  -0.010134  -0.009585  -0.000101   0.053074
               7          8          9         10         11         12
     1  Zr  -0.611340  -0.607144  -0.316128  -0.016763  -0.066879   0.045380
     2  O   -0.028501  -0.996789  -0.039816   0.001027   0.003211   0.000020
     3  O   -0.874492  -0.019716  -0.026564  -0.001922   0.003028   0.004641
     4  O   -0.007992   0.070080  -0.032470   0.000825   0.001308   0.002022
     5  O   -0.034201  -0.014645  -1.214881   0.128657   0.312662   0.147027
     6  Si   0.083920  -0.010382   0.039085  -0.002279  -0.000736  -0.003095
     7  Si  13.793254   0.182271   0.019463  -0.000185  -0.000948   0.003789
     8  Si   0.182271  13.814044   0.026752  -0.001058   0.001242  -0.001072
     9  Si   0.019463   0.026752  14.214310  -0.063414  -0.176379  -0.203002
    10  O   -0.000185  -0.001058  -0.063414   8.523752   0.014362   0.030551
    11  O   -0.000948   0.001242  -0.176379   0.014362   8.516016  -0.051015
    12  O    0.003789  -0.001072  -0.203002   0.030551  -0.051015   8.599240
    13  O    0.007124  -0.096185   0.000167   0.000000   0.000018   0.000007
    14  O    0.009086  -0.366707  -0.001515  -0.000002   0.000002   0.000016
    15  O   -0.002386  -0.304960  -0.000579  -0.000000  -0.000023  -0.000013
    16  O    0.003767  -0.010583  -0.001045   0.000005  -0.000003  -0.000001
    17  O   -0.000743   0.096649   0.002534  -0.000001   0.000002  -0.000006
    18  O   -0.000833   0.075345   0.004105  -0.000001   0.000001  -0.000001
    19  O   -0.411180  -0.016236   0.001030   0.000007  -0.000002  -0.000027
    20  O   -0.109172   0.009622   0.003113   0.000005  -0.000003  -0.000034
    21  O    0.024989  -0.040063  -0.001724   0.000001   0.000001   0.000020
    22  H   -0.000162   0.000093   0.047190  -0.006427  -0.005044   0.219558
    23  H    0.000058   0.000061   0.081050   0.228658  -0.006074   0.005851
    24  H    0.000049  -0.000067   0.036834   0.007381   0.242617  -0.007407
    25  H   -0.000447   0.057408  -0.000207   0.000000  -0.000000  -0.000000
    26  H   -0.000386   0.046192  -0.000044  -0.000000   0.000000  -0.000000
    27  H    0.001467   0.068552  -0.000002   0.000000  -0.000000  -0.000000
    28  H    0.056596  -0.000057  -0.000139  -0.000000  -0.000000  -0.000003
    29  H    0.048186   0.022039  -0.000059   0.000000   0.000000  -0.000001
    30  H    0.040358   0.000117   0.000021  -0.000000   0.000000   0.000000
    31  H    0.000154  -0.002010  -0.000052   0.000000  -0.000000   0.000000
    32  H   -0.000666   0.000055   0.000013  -0.000000   0.000000  -0.000000
    33  H    0.020597   0.000062   0.000077  -0.000000   0.000000   0.000000
              13         14         15         16         17         18
     1  Zr  -0.030174  -0.013162  -0.085230  -0.123558  -0.080983  -0.025819
     2  O    0.184390   0.261399   0.293204   0.004711  -0.039730  -0.014654
     3  O    0.001619  -0.017867  -0.000655  -0.000511   0.008329   0.003739
     4  O   -0.015470  -0.008742   0.001225   0.345568   0.216789   0.197935
     5  O   -0.000679   0.001815   0.000594   0.003259   0.001352  -0.000628
     6  Si   0.033883   0.027889   0.000445  -0.425771  -0.451507  -0.451229
     7  Si   0.007124   0.009086  -0.002386   0.003767  -0.000743  -0.000833
     8  Si  -0.096185  -0.366707  -0.304960  -0.010583   0.096649   0.075345
     9  Si   0.000167  -0.001515  -0.000579  -0.001045   0.002534   0.004105
    10  O    0.000000  -0.000002  -0.000000   0.000005  -0.000001  -0.000001
    11  O    0.000018   0.000002  -0.000023  -0.000003   0.000002   0.000001
    12  O    0.000007   0.000016  -0.000013  -0.000001  -0.000006  -0.000001
    13  O    8.627332   0.086807  -0.090731   0.003741  -0.030902  -0.045674
    14  O    0.086807   8.672629   0.055673   0.003662  -0.035855  -0.026869
    15  O   -0.090731   0.055673   8.778455  -0.000175   0.003605   0.001681
    16  O    0.003741   0.003662  -0.000175   8.902407  -0.091818  -0.114728
    17  O   -0.030902  -0.035855   0.003605  -0.091818   8.935542   0.227384
    18  O   -0.045674  -0.026869   0.001681  -0.114728   0.227384   9.012294
    19  O    0.000171  -0.000547   0.000142  -0.001495  -0.029976   0.000147
    20  O    0.000008  -0.000256   0.000038   0.000066  -0.000963   0.000015
    21  O   -0.000251   0.015848  -0.000628  -0.000214  -0.005604   0.000481
    22  H   -0.000000  -0.000000   0.000000   0.000000   0.000000  -0.000000
    23  H    0.000000   0.000000  -0.000000  -0.000000   0.000000  -0.000000
    24  H   -0.000000   0.000000   0.000002   0.000000  -0.000000  -0.000000
    25  H    0.218528  -0.011929   0.008915  -0.000056   0.000636   0.014985
    26  H   -0.005092  -0.010101   0.216870   0.000000  -0.000003   0.000006
    27  H   -0.009666   0.219561   0.004634   0.000183   0.017932  -0.000253
    28  H    0.000000  -0.000006  -0.000001  -0.000000   0.000004  -0.000000
    29  H    0.000800   0.017573  -0.002577  -0.000004  -0.000396   0.000006
    30  H    0.000001   0.000003   0.000000   0.000114  -0.000400  -0.000007
    31  H    0.002360   0.000168  -0.000018   0.003741  -0.000739   0.218141
    32  H   -0.000008  -0.000006   0.000000   0.233494  -0.003637   0.003886
    33  H    0.000230   0.002098  -0.000035  -0.000087   0.230984   0.002099
              19         20         21         22         23         24
     1  Zr   0.002959  -0.145832   0.036733  -0.008997  -0.007687  -0.005268
     2  O    0.008828  -0.000578   0.010021  -0.000016  -0.000012  -0.000176
     3  O    0.266053   0.163693   0.145801  -0.000009  -0.000005  -0.000012
     4  O    0.010394  -0.000841   0.003468  -0.000008  -0.000055   0.000005
     5  O    0.002146   0.001510   0.000186   0.005864  -0.025279  -0.005236
     6  Si  -0.007983   0.009110  -0.012065   0.000088   0.000094   0.000086
     7  Si  -0.411180  -0.109172   0.024989  -0.000162   0.000058   0.000049
     8  Si  -0.016236   0.009622  -0.040063   0.000093   0.000061  -0.000067
     9  Si   0.001030   0.003113  -0.001724   0.047190   0.081050   0.036834
    10  O    0.000007   0.000005   0.000001  -0.006427   0.228658   0.007381
    11  O   -0.000002  -0.000003   0.000001  -0.005044  -0.006074   0.242617
    12  O   -0.000027  -0.000034   0.000020   0.219558   0.005851  -0.007407
    13  O    0.000171   0.000008  -0.000251  -0.000000   0.000000  -0.000000
    14  O   -0.000547  -0.000256   0.015848  -0.000000   0.000000   0.000000
    15  O    0.000142   0.000038  -0.000628   0.000000  -0.000000   0.000002
    16  O   -0.001495   0.000066  -0.000214   0.000000  -0.000000   0.000000
    17  O   -0.029976  -0.000963  -0.005604   0.000000   0.000000  -0.000000
    18  O    0.000147   0.000015   0.000481  -0.000000  -0.000000  -0.000000
    19  O    8.873198   0.032201   0.023210  -0.000000   0.000000  -0.000000
    20  O    0.032201   8.657663  -0.050416   0.000000   0.000000  -0.000000
    21  O    0.023210  -0.050416   8.485340  -0.000000   0.000000   0.000000
    22  H   -0.000000   0.000000  -0.000000   0.361817   0.000057   0.000124
    23  H    0.000000   0.000000   0.000000   0.000057   0.350983   0.000014
    24  H   -0.000000  -0.000000   0.000000   0.000124   0.000014   0.365355
    25  H   -0.000024   0.000000  -0.000019   0.000000   0.000000   0.000000
    26  H    0.000001  -0.000000   0.000040  -0.000000  -0.000000  -0.000000
    27  H    0.000036   0.000192  -0.004004  -0.000000  -0.000000   0.000000
    28  H    0.004620   0.229568  -0.002051  -0.000000   0.000000  -0.000000
    29  H   -0.008566   0.007668   0.206474   0.000000   0.000000  -0.000000
    30  H    0.224157  -0.001489  -0.007153   0.000000   0.000000  -0.000000
    31  H    0.000004  -0.000000  -0.000000  -0.000000  -0.000000   0.000000
    32  H    0.000097  -0.000000   0.000001  -0.000000  -0.000000  -0.000000
    33  H    0.014816  -0.000084   0.001489  -0.000000  -0.000000  -0.000000
              25         26         27         28         29         30
     1  Zr   0.016461   0.007239   0.003084   0.005046   0.003849   0.000694
     2  O   -0.019884   0.000666  -0.019003  -0.000011  -0.007035  -0.000012
     3  O   -0.000109   0.000014   0.000837  -0.018372  -0.020237   0.000029
     4  O   -0.000344  -0.000011  -0.001720  -0.000014  -0.000140  -0.000457
     5  O    0.000018  -0.000004   0.000012  -0.000015  -0.000073  -0.000009
     6  Si   0.002839  -0.000158   0.009216  -0.000280   0.000163  -0.000637
     7  Si  -0.000447  -0.000386   0.001467   0.056596   0.048186   0.040358
     8  Si   0.057408   0.046192   0.068552  -0.000057   0.022039   0.000117
     9  Si  -0.000207  -0.000044  -0.000002  -0.000139  -0.000059   0.000021
    10  O    0.000000  -0.000000   0.000000  -0.000000   0.000000  -0.000000
    11  O   -0.000000   0.000000  -0.000000  -0.000000   0.000000   0.000000
    12  O   -0.000000  -0.000000  -0.000000  -0.000003  -0.000001   0.000000
    13  O    0.218528  -0.005092  -0.009666   0.000000   0.000800   0.000001
    14  O   -0.011929  -0.010101   0.219561  -0.000006   0.017573   0.000003
    15  O    0.008915   0.216870   0.004634  -0.000001  -0.002577   0.000000
    16  O   -0.000056   0.000000   0.000183  -0.000000  -0.000004   0.000114
    17  O    0.000636  -0.000003   0.017932   0.000004  -0.000396  -0.000400
    18  O    0.014985   0.000006  -0.000253  -0.000000   0.000006  -0.000007
    19  O   -0.000024   0.000001   0.000036   0.004620  -0.008566   0.224157
    20  O    0.000000  -0.000000   0.000192   0.229568   0.007668  -0.001489
    21  O   -0.000019   0.000040  -0.004004  -0.002051   0.206474  -0.007153
    22  H    0.000000  -0.000000  -0.000000  -0.000000   0.000000   0.000000
    23  H    0.000000  -0.000000  -0.000000   0.000000   0.000000   0.000000
    24  H    0.000000  -0.000000   0.000000  -0.000000  -0.000000  -0.000000
    25  H    0.298897  -0.000012   0.000111   0.000000   0.000001   0.000000
    26  H   -0.000012   0.366046   0.000035   0.000000   0.000021  -0.000000
    27  H    0.000111   0.000035   0.283321  -0.000000  -0.001496   0.000009
    28  H    0.000000   0.000000  -0.000000   0.349155  -0.000016  -0.000016
    29  H    0.000001   0.000021  -0.001496  -0.000016   0.285923   0.000156
    30  H    0.000000  -0.000000   0.000009  -0.000016   0.000156   0.334285
    31  H   -0.000495   0.000000   0.000013  -0.000000   0.000000  -0.000000
    32  H   -0.000001   0.000000  -0.000000   0.000000  -0.000000  -0.000000
    33  H    0.000005  -0.000000  -0.002408  -0.000002   0.000099  -0.001167
              31         32         33
     1  Zr  -0.000096   0.002158  -0.015752
     2  O    0.000177  -0.000024   0.001023
     3  O   -0.000020   0.000041  -0.010134
     4  O   -0.018462   0.010457  -0.009585
     5  O   -0.000010   0.000001  -0.000101
     6  Si   0.063797   0.022662   0.053074
     7  Si   0.000154  -0.000666   0.020597
     8  Si  -0.002010   0.000055   0.000062
     9  Si  -0.000052   0.000013   0.000077
    10  O    0.000000  -0.000000  -0.000000
    11  O   -0.000000   0.000000   0.000000
    12  O    0.000000  -0.000000   0.000000
    13  O    0.002360  -0.000008   0.000230
    14  O    0.000168  -0.000006   0.002098
    15  O   -0.000018   0.000000  -0.000035
    16  O    0.003741   0.233494  -0.000087
    17  O   -0.000739  -0.003637   0.230984
    18  O    0.218141   0.003886   0.002099
    19  O    0.000004   0.000097   0.014816
    20  O   -0.000000  -0.000000  -0.000084
    21  O   -0.000000   0.000001   0.001489
    22  H   -0.000000  -0.000000  -0.000000
    23  H   -0.000000  -0.000000  -0.000000
    24  H    0.000000  -0.000000  -0.000000
    25  H   -0.000495  -0.000001   0.000005
    26  H    0.000000   0.000000  -0.000000
    27  H    0.000013  -0.000000  -0.002408
    28  H   -0.000000   0.000000  -0.000002
    29  H    0.000000  -0.000000   0.000099
    30  H   -0.000000  -0.000000  -0.001167
    31  H    0.331434   0.000001  -0.000038
    32  H    0.000001   0.350016   0.000156
    33  H   -0.000038   0.000156   0.269220
 Mulliken charges:
               1
     1  Zr   0.010382
     2  O   -0.551453
     3  O   -0.421217
     4  O   -0.680139
     5  O   -0.371184
     6  Si   2.228555
     7  Si   1.788507
     8  Si   2.017090
     9  Si   1.602275
    10  O   -0.843177
    11  O   -0.787364
    12  O   -0.792447
    13  O   -0.842354
    14  O   -0.880667
    15  O   -0.877473
    16  O   -0.734667
    17  O   -0.968481
    18  O   -1.081552
    19  O   -0.988182
    20  O   -0.804804
    21  O   -0.829912
    22  H    0.385874
    23  H    0.372285
    24  H    0.365699
    25  H    0.414722
    26  H    0.378679
    27  H    0.429354
    28  H    0.375994
    29  H    0.447640
    30  H    0.411402
    31  H    0.401949
    32  H    0.381304
    33  H    0.443361
 Sum of Mulliken charges =  -0.00000
 Mulliken charges with hydrogens summed into heavy atoms:
               1
     1  Zr   0.010382
     2  O   -0.551453
     3  O   -0.421217
     4  O   -0.680139
     5  O   -0.371184
     6  Si   2.228555
     7  Si   1.788507
     8  Si   2.017090
     9  Si   1.602275
    10  O   -0.470892
    11  O   -0.421665
    12  O   -0.406573
    13  O   -0.427633
    14  O   -0.451313
    15  O   -0.498793
    16  O   -0.353363
    17  O   -0.525120
    18  O   -0.679603
    19  O   -0.576780
    20  O   -0.428810
    21  O   -0.382272
 Electronic spatial extent (au):  <R**2>=           9868.5363
 Charge=             -0.0000 electrons
 Dipole moment (field-independent basis, Debye):
    X=              1.0672    Y=             -0.8012    Z=             -2.4653  Tot=              2.8033
 Quadrupole moment (field-independent basis, Debye-Ang):
   XX=           -160.1826   YY=           -154.7117   ZZ=           -157.7139
   XY=             -5.0350   XZ=              2.1308   YZ=              5.7078
 Traceless Quadrupole moment (field-independent basis, Debye-Ang):
   XX=             -2.6465   YY=              2.8244   ZZ=             -0.1779
   XY=             -5.0350   XZ=              2.1308   YZ=              5.7078
 Octapole moment (field-independent basis, Debye-Ang**2):
  XXX=             74.4504  YYY=              6.2235  ZZZ=            -20.9107  XYY=             -3.2299
  XXY=             19.9901  XXZ=             19.4529  XZZ=              6.2835  YZZ=            -17.0008
  YYZ=            -14.0039  XYZ=             27.9191
 Hexadecapole moment (field-independent basis, Debye-Ang**3):
 XXXX=          -6031.0843 YYYY=          -2834.0071 ZZZZ=          -2258.4277 XXXY=             54.0131
 XXXZ=            -15.5328 YYYX=              2.1227 YYYZ=            215.6284 ZZZX=           -194.0677
 ZZZY=            -53.4172 XXYY=          -1490.8740 XXZZ=          -1354.0030 YYZZ=           -925.9951
 XXYZ=             -7.9207 YYXZ=            137.8617 ZZXY=            -56.9412
 N-N= 2.832856980606D+03 E-N=-1.137831515074D+04  KE= 2.373155025887D+03
 1\1\GINC-GRA340\FOpt\RB3LYP\Gen\H12O16Si4Zr1\SARASHS\14-Aug-2020\0\\#n
  B3LYP/Gen Pseudo=cards EmpiricalDispersion=GD3 Opt=modredundant\\Titl
 e\\0,1\Zr,0.6576025272,-0.1262117658,-0.0681771722\O,-0.2253632107,-0.
 9079356172,1.4793510743\O,0.1040286203,1.7466362684,-0.1210749271\O,-0
 .2669899203,-0.9795652661,-1.5945421328\O,2.5919930052,-0.4366147465,-
 0.0821952432\Si,-1.8296468392,-1.3322371332,-1.9528814051\Si,-1.114359
 0375,2.8410636327,-0.0819251533\Si,-1.7269486298,-1.1537741674,2.11602
 97293\Si,4.2153612721,-0.2677417382,0.0368238418\O,4.9666671355,-0.019
 5370421,-1.4120449454\O,4.8928518899,-1.6523179618,0.6461936202\O,4.43
 90245189,1.0687730539,0.9779730355\O,-2.3228841075,-2.624443522,1.6963
 624253\O,-2.7260211646,0.0649402109,1.550782212\O,-1.6019331719,-1.020
 6516642,3.7453075762\O,-1.9982539451,-1.5588548388,-3.5773821492\O,-2.
 8237028086,-0.1863374822,-1.3014092232\O,-2.3444643454,-2.7142955343,-
 1.1832169467\O,-2.0379695374,2.4393611057,-1.4304285706\O,-0.633898971
 8,4.3997800545,-0.2981452687\O,-1.9660588712,2.7602923613,1.313666107\
 H,5.3260923682,1.4445570607,0.9970650957\H,5.318493105,-0.8065986815,-
 1.8431777714\H,4.4533776536,-2.0665011749,1.3971938761\H,-2.4084557658
 ,-2.8097666434,0.7438851605\H,-2.3865087132,-1.2245536491,4.2657283669
 \H,-3.0617067457,-0.0829895891,0.6456111927\H,-0.52656468,4.9264310247
 ,0.5021010475\H,-2.2698839066,1.8688365484,1.5851630224\H,-2.645627652
 7,3.1267419542,-1.7307475849\H,-2.3041226975,-3.5291856465,-1.69641597
 38\H,-1.2674025272,-1.2620515425,-4.1309549781\H,-2.608274846,0.755002
 1314,-1.4893479378\\Version=ES64L-G16RevB.01\State=1-A\HF=-2416.946853
 5\RMSD=3.533e-09\RMSF=1.987e-05\Dipole=0.4243714,-0.3169575,-0.9673865
 \Quadrupole=-1.994465,2.1205877,-0.1261227,-3.7574118,1.5851582,4.2194
 726\PG=C01 [X(H12O16Si4Zr1)]\\@


 IF YOU GIVE A BOY AND A PIG EVERYTHING THEY WANT,
 YOU'LL GET A BAD BOY AND A GOOD PIG.
 Job cpu time:       0 days  9 hours 52 minutes 11.3 seconds.
 Elapsed time:       0 days  0 hours 44 minutes 41.0 seconds.
 File lengths (MBytes):  RWF=    167 Int=      0 D2E=      0 Chk=     21 Scr=      1
 Normal termination of Gaussian 16 at Fri Aug 14 03:38:28 2020.
