 Entering Gaussian System, Link 0=g16
 Initial command:
 /opt/software/gaussian/g16.b01/l1.exe "/localscratch/sarashs.37242624.0/Gau-6320.inp" -scrdir="/localscratch/sarashs.37242624.0/"
 Entering Link 1 = /opt/software/gaussian/g16.b01/l1.exe PID=      6326.
  
 Copyright (c) 1988-2017, Gaussian, Inc.  All Rights Reserved.
  
 This is part of the Gaussian(R) 16 program.  It is based on
 the Gaussian(R) 09 system (copyright 2009, Gaussian, Inc.),
 the Gaussian(R) 03 system (copyright 2003, Gaussian, Inc.),
 the Gaussian(R) 98 system (copyright 1998, Gaussian, Inc.),
 the Gaussian(R) 94 system (copyright 1995, Gaussian, Inc.),
 the Gaussian 92(TM) system (copyright 1992, Gaussian, Inc.),
 the Gaussian 90(TM) system (copyright 1990, Gaussian, Inc.),
 the Gaussian 88(TM) system (copyright 1988, Gaussian, Inc.),
 the Gaussian 86(TM) system (copyright 1986, Carnegie Mellon
 University), and the Gaussian 82(TM) system (copyright 1983,
 Carnegie Mellon University). Gaussian is a federally registered
 trademark of Gaussian, Inc.
  
 This software contains proprietary and confidential information,
 including trade secrets, belonging to Gaussian, Inc.
  
 This software is provided under written license and may be
 used, copied, transmitted, or stored only in accord with that
 written license.
  
 The following legend is applicable only to US Government
 contracts under FAR:
  
                    RESTRICTED RIGHTS LEGEND
  
 Use, reproduction and disclosure by the US Government is
 subject to restrictions as set forth in subparagraphs (a)
 and (c) of the Commercial Computer Software - Restricted
 Rights clause in FAR 52.227-19.
  
 Gaussian, Inc.
 340 Quinnipiac St., Bldg. 40, Wallingford CT 06492
  
  
 ---------------------------------------------------------------
 Warning -- This program may not be used in any manner that
 competes with the business of Gaussian, Inc. or will provide
 assistance to any competitor of Gaussian, Inc.  The licensee
 of this program is prohibited from giving any competitor of
 Gaussian, Inc. access to this program.  By using this program,
 the user acknowledges that Gaussian, Inc. is engaged in the
 business of creating and licensing software in the field of
 computational chemistry and represents and warrants to the
 licensee that it is not a competitor of Gaussian, Inc. and that
 it will not use this program in any manner prohibited above.
 ---------------------------------------------------------------
  

 Cite this work as:
 Gaussian 16, Revision B.01,
 M. J. Frisch, G. W. Trucks, H. B. Schlegel, G. E. Scuseria, 
 M. A. Robb, J. R. Cheeseman, G. Scalmani, V. Barone, 
 G. A. Petersson, H. Nakatsuji, X. Li, M. Caricato, A. V. Marenich, 
 J. Bloino, B. G. Janesko, R. Gomperts, B. Mennucci, H. P. Hratchian, 
 J. V. Ortiz, A. F. Izmaylov, J. L. Sonnenberg, D. Williams-Young, 
 F. Ding, F. Lipparini, F. Egidi, J. Goings, B. Peng, A. Petrone, 
 T. Henderson, D. Ranasinghe, V. G. Zakrzewski, J. Gao, N. Rega, 
 G. Zheng, W. Liang, M. Hada, M. Ehara, K. Toyota, R. Fukuda, 
 J. Hasegawa, M. Ishida, T. Nakajima, Y. Honda, O. Kitao, H. Nakai, 
 T. Vreven, K. Throssell, J. A. Montgomery, Jr., J. E. Peralta, 
 F. Ogliaro, M. J. Bearpark, J. J. Heyd, E. N. Brothers, K. N. Kudin, 
 V. N. Staroverov, T. A. Keith, R. Kobayashi, J. Normand, 
 K. Raghavachari, A. P. Rendell, J. C. Burant, S. S. Iyengar, 
 J. Tomasi, M. Cossi, J. M. Millam, M. Klene, C. Adamo, R. Cammi, 
 J. W. Ochterski, R. L. Martin, K. Morokuma, O. Farkas, 
 J. B. Foresman, and D. J. Fox, Gaussian, Inc., Wallingford CT, 2016.
 
 ******************************************
 Gaussian 16:  ES64L-G16RevB.01 20-Dec-2017
                14-Aug-2020 
 ******************************************
 %NProcShared=16
 Will use up to   16 processors via shared memory.
 ------------------------------------------------------------------
 #n B3LYP/Gen Pseudo=cards EmpiricalDispersion=GD3 Opt=modredundant
 ------------------------------------------------------------------
 1/18=120,19=15,26=3,38=1/1,3;
 2/9=110,12=2,17=6,18=5,40=1/2;
 3/5=7,11=2,16=1,17=8,25=1,30=1,71=1,74=-5,124=31/1,2,3;
 4//1;
 5/5=2,38=5/2;
 6/7=2,8=2,9=2,10=2,28=1/1;
 7//1,2,3,16;
 1/18=20,19=15,26=3/3(2);
 2/9=110/2;
 99//99;
 2/9=110/2;
 3/5=7,6=1,11=2,16=1,17=8,25=1,30=1,71=1,74=-5,82=7,124=31/1,2,3;
 4/5=5,16=3,69=1/1;
 5/5=2,38=5/2;
 7//1,2,3,16;
 1/18=20,19=15,26=3/3(-5);
 2/9=110/2;
 6/7=2,8=2,9=2,10=2,19=2,28=1/1;
 99/9=1/99;
 -----
 Title
 -----
 Symbolic Z-matrix:
 Charge =  0 Multiplicity = 1
 Zr                    0.65779  -0.12506  -0.07164 
 O                    -0.22285  -0.90624   1.4773 
 O                     0.10302   1.74748  -0.12299 
 O                    -0.2683   -0.97885  -1.59705 
 O                     2.59206  -0.4363   -0.08284 
 Si                   -1.83119  -1.33244  -1.9536 
 Si                   -1.1155    2.84172  -0.08279 
 Si                   -1.72376  -1.15291   2.11517 
 Si                    4.21685  -0.25703  -0.00591 
 O                     4.94621  -0.15741  -1.48364 
 O                     4.90445  -1.57298   0.73062 
 O                     4.45357   1.16827   0.79066 
 O                    -2.31924  -2.624     1.69627 
 O                    -2.72422   0.06508   1.55086 
 O                    -1.59734  -1.01957   3.74439 
 O                    -2.00144  -1.55965  -3.57782 
 O                    -2.82509  -0.18676  -1.30145 
 O                    -2.34448  -2.71439  -1.18277 
 O                    -2.04046   2.43957  -1.43023 
 O                    -0.63565   4.40049  -0.29987 
 O                    -1.96551   2.76086   1.31383 
 H                     5.34056   1.54327   0.75768 
 H                     5.29245  -0.98428  -1.83793 
 H                     4.47479  -1.91101   1.52422 
 H                    -2.40577  -2.80951   0.74392 
 H                    -2.38137  -1.22423   4.26535 
 H                    -3.06034  -0.08306   0.64589 
 H                    -0.52731   4.92728   0.50015 
 H                    -2.26909   1.86932   1.58533 
 H                    -2.64854   3.12676  -1.73014 
 H                    -2.30452  -3.52952  -1.69562 
 H                    -1.27114  -1.26305  -4.13223 
 H                    -2.61026   0.75461  -1.48993 
 
 The following ModRedundant input section has been read:
 A       1       5       9 F                                                   
 D       1       5       9      12 F                                           
 D       3       1       5       9 F                                           
 

 GradGradGradGradGradGradGradGradGradGradGradGradGradGradGradGradGradGrad
 Berny optimization.
 Initialization pass.
                           ----------------------------
                           !    Initial Parameters    !
                           ! (Angstroms and Degrees)  !
 --------------------------                            --------------------------
 ! Name  Definition              Value          Derivative Info.                !
 --------------------------------------------------------------------------------
 ! R1    R(1,2)                  1.9455         estimate D2E/DX2                !
 ! R2    R(1,3)                  1.9537         estimate D2E/DX2                !
 ! R3    R(1,4)                  1.9783         estimate D2E/DX2                !
 ! R4    R(1,5)                  1.9592         estimate D2E/DX2                !
 ! R5    R(2,8)                  1.6494         estimate D2E/DX2                !
 ! R6    R(3,7)                  1.6382         estimate D2E/DX2                !
 ! R7    R(4,6)                  1.6416         estimate D2E/DX2                !
 ! R8    R(5,9)                  1.6365         estimate D2E/DX2                !
 ! R9    R(6,16)                 1.6488         estimate D2E/DX2                !
 ! R10   R(6,17)                 1.651          estimate D2E/DX2                !
 ! R11   R(6,18)                 1.6636         estimate D2E/DX2                !
 ! R12   R(7,19)                 1.6831         estimate D2E/DX2                !
 ! R13   R(7,20)                 1.6453         estimate D2E/DX2                !
 ! R14   R(7,21)                 1.6369         estimate D2E/DX2                !
 ! R15   R(8,13)                 1.6414         estimate D2E/DX2                !
 ! R16   R(8,14)                 1.6742         estimate D2E/DX2                !
 ! R17   R(8,15)                 1.6395         estimate D2E/DX2                !
 ! R18   R(9,10)                 1.6509         estimate D2E/DX2                !
 ! R19   R(9,11)                 1.6574         estimate D2E/DX2                !
 ! R20   R(9,12)                 1.6499         estimate D2E/DX2                !
 ! R21   R(10,23)                0.9639         estimate D2E/DX2                !
 ! R22   R(11,24)                0.9637         estimate D2E/DX2                !
 ! R23   R(12,22)                0.9636         estimate D2E/DX2                !
 ! R24   R(13,25)                0.9741         estimate D2E/DX2                !
 ! R25   R(14,27)                0.9767         estimate D2E/DX2                !
 ! R26   R(15,26)                0.9633         estimate D2E/DX2                !
 ! R27   R(16,32)                0.9637         estimate D2E/DX2                !
 ! R28   R(17,33)                0.9838         estimate D2E/DX2                !
 ! R29   R(18,31)                0.9639         estimate D2E/DX2                !
 ! R30   R(19,30)                0.9654         estimate D2E/DX2                !
 ! R31   R(20,28)                0.964          estimate D2E/DX2                !
 ! R32   R(21,29)                0.9802         estimate D2E/DX2                !
 ! A1    A(2,1,3)              106.0959         estimate D2E/DX2                !
 ! A2    A(2,1,4)              103.2214         estimate D2E/DX2                !
 ! A3    A(2,1,5)              112.8091         estimate D2E/DX2                !
 ! A4    A(3,1,4)              105.0977         estimate D2E/DX2                !
 ! A5    A(3,1,5)              115.6243         estimate D2E/DX2                !
 ! A6    A(4,1,5)              112.9055         estimate D2E/DX2                !
 ! A7    A(1,2,8)              141.2479         estimate D2E/DX2                !
 ! A8    A(1,3,7)              148.2962         estimate D2E/DX2                !
 ! A9    A(1,4,6)              134.9216         estimate D2E/DX2                !
 ! A10   A(1,5,9)              164.2748         Frozen                          !
 ! A11   A(4,6,16)             109.9952         estimate D2E/DX2                !
 ! A12   A(4,6,17)             109.7479         estimate D2E/DX2                !
 ! A13   A(4,6,18)             111.8422         estimate D2E/DX2                !
 ! A14   A(16,6,17)            114.9972         estimate D2E/DX2                !
 ! A15   A(16,6,18)            108.0658         estimate D2E/DX2                !
 ! A16   A(17,6,18)            101.9869         estimate D2E/DX2                !
 ! A17   A(3,7,19)             103.269          estimate D2E/DX2                !
 ! A18   A(3,7,20)             114.3706         estimate D2E/DX2                !
 ! A19   A(3,7,21)             111.9733         estimate D2E/DX2                !
 ! A20   A(19,7,20)            106.3205         estimate D2E/DX2                !
 ! A21   A(19,7,21)            112.6973         estimate D2E/DX2                !
 ! A22   A(20,7,21)            108.1076         estimate D2E/DX2                !
 ! A23   A(2,8,13)             111.4365         estimate D2E/DX2                !
 ! A24   A(2,8,14)             107.7362         estimate D2E/DX2                !
 ! A25   A(2,8,15)             107.5759         estimate D2E/DX2                !
 ! A26   A(13,8,14)            110.4391         estimate D2E/DX2                !
 ! A27   A(13,8,15)            110.7606         estimate D2E/DX2                !
 ! A28   A(14,8,15)            108.7751         estimate D2E/DX2                !
 ! A29   A(5,9,10)             113.7764         estimate D2E/DX2                !
 ! A30   A(5,9,11)             110.2318         estimate D2E/DX2                !
 ! A31   A(5,9,12)             105.0576         estimate D2E/DX2                !
 ! A32   A(10,9,11)            105.2122         estimate D2E/DX2                !
 ! A33   A(10,9,12)            108.46           estimate D2E/DX2                !
 ! A34   A(11,9,12)            114.3201         estimate D2E/DX2                !
 ! A35   A(9,10,23)            115.8441         estimate D2E/DX2                !
 ! A36   A(9,11,24)            117.3545         estimate D2E/DX2                !
 ! A37   A(9,12,22)            116.8566         estimate D2E/DX2                !
 ! A38   A(8,13,25)            116.8991         estimate D2E/DX2                !
 ! A39   A(8,14,27)            114.056          estimate D2E/DX2                !
 ! A40   A(8,15,26)            117.2166         estimate D2E/DX2                !
 ! A41   A(6,16,32)            116.4907         estimate D2E/DX2                !
 ! A42   A(6,17,33)            117.1859         estimate D2E/DX2                !
 ! A43   A(6,18,31)            116.3076         estimate D2E/DX2                !
 ! A44   A(7,19,30)            115.1373         estimate D2E/DX2                !
 ! A45   A(7,20,28)            116.1676         estimate D2E/DX2                !
 ! A46   A(7,21,29)            116.2372         estimate D2E/DX2                !
 ! D1    D(3,1,2,8)             57.7292         estimate D2E/DX2                !
 ! D2    D(4,1,2,8)            -52.5301         estimate D2E/DX2                !
 ! D3    D(5,1,2,8)           -174.7067         estimate D2E/DX2                !
 ! D4    D(2,1,3,7)            -50.098          estimate D2E/DX2                !
 ! D5    D(4,1,3,7)             58.8315         estimate D2E/DX2                !
 ! D6    D(5,1,3,7)           -175.9641         estimate D2E/DX2                !
 ! D7    D(2,1,4,6)             42.7683         estimate D2E/DX2                !
 ! D8    D(3,1,4,6)            -68.2312         estimate D2E/DX2                !
 ! D9    D(5,1,4,6)            164.8802         estimate D2E/DX2                !
 ! D10   D(2,1,5,9)           -109.3633         estimate D2E/DX2                !
 ! D11   D(3,1,5,9)             12.9999         Frozen                          !
 ! D12   D(4,1,5,9)            134.0822         estimate D2E/DX2                !
 ! D13   D(1,2,8,13)            93.5308         estimate D2E/DX2                !
 ! D14   D(1,2,8,14)           -27.7655         estimate D2E/DX2                !
 ! D15   D(1,2,8,15)          -144.8802         estimate D2E/DX2                !
 ! D16   D(1,3,7,19)           -61.1012         estimate D2E/DX2                !
 ! D17   D(1,3,7,20)          -176.1751         estimate D2E/DX2                !
 ! D18   D(1,3,7,21)            60.409          estimate D2E/DX2                !
 ! D19   D(1,4,6,16)           160.167          estimate D2E/DX2                !
 ! D20   D(1,4,6,17)            32.6925         estimate D2E/DX2                !
 ! D21   D(1,4,6,18)           -79.742          estimate D2E/DX2                !
 ! D22   D(1,5,9,10)          -100.1296         estimate D2E/DX2                !
 ! D23   D(1,5,9,11)           141.9686         estimate D2E/DX2                !
 ! D24   D(1,5,9,12)            18.3493         Frozen                          !
 ! D25   D(4,6,16,32)          -14.1998         estimate D2E/DX2                !
 ! D26   D(17,6,16,32)         110.2979         estimate D2E/DX2                !
 ! D27   D(18,6,16,32)        -136.5531         estimate D2E/DX2                !
 ! D28   D(4,6,17,33)           51.0095         estimate D2E/DX2                !
 ! D29   D(16,6,17,33)         -73.6179         estimate D2E/DX2                !
 ! D30   D(18,6,17,33)         169.7166         estimate D2E/DX2                !
 ! D31   D(4,6,18,31)          -96.4424         estimate D2E/DX2                !
 ! D32   D(16,6,18,31)          24.7715         estimate D2E/DX2                !
 ! D33   D(17,6,18,31)         146.349          estimate D2E/DX2                !
 ! D34   D(3,7,19,30)         -162.1837         estimate D2E/DX2                !
 ! D35   D(20,7,19,30)         -41.4662         estimate D2E/DX2                !
 ! D36   D(21,7,19,30)          76.796          estimate D2E/DX2                !
 ! D37   D(3,7,20,28)          -98.427          estimate D2E/DX2                !
 ! D38   D(19,7,20,28)         148.2947         estimate D2E/DX2                !
 ! D39   D(21,7,20,28)          27.0455         estimate D2E/DX2                !
 ! D40   D(3,7,21,29)          -49.8995         estimate D2E/DX2                !
 ! D41   D(19,7,21,29)          66.0156         estimate D2E/DX2                !
 ! D42   D(20,7,21,29)        -176.7753         estimate D2E/DX2                !
 ! D43   D(2,8,13,25)          -58.468          estimate D2E/DX2                !
 ! D44   D(14,8,13,25)          61.2404         estimate D2E/DX2                !
 ! D45   D(15,8,13,25)        -178.1888         estimate D2E/DX2                !
 ! D46   D(2,8,14,27)           80.2918         estimate D2E/DX2                !
 ! D47   D(13,8,14,27)         -41.6247         estimate D2E/DX2                !
 ! D48   D(15,8,14,27)        -163.3756         estimate D2E/DX2                !
 ! D49   D(2,8,15,26)         -174.1994         estimate D2E/DX2                !
 ! D50   D(13,8,15,26)         -52.1897         estimate D2E/DX2                !
 ! D51   D(14,8,15,26)          69.3652         estimate D2E/DX2                !
 ! D52   D(5,9,10,23)          -94.8505         estimate D2E/DX2                !
 ! D53   D(11,9,10,23)          25.9074         estimate D2E/DX2                !
 ! D54   D(12,9,10,23)         148.6397         estimate D2E/DX2                !
 ! D55   D(5,9,11,24)          -43.821          estimate D2E/DX2                !
 ! D56   D(10,9,11,24)        -166.8798         estimate D2E/DX2                !
 ! D57   D(12,9,11,24)          74.2394         estimate D2E/DX2                !
 ! D58   D(5,9,12,22)         -166.477          estimate D2E/DX2                !
 ! D59   D(10,9,12,22)         -44.4744         estimate D2E/DX2                !
 ! D60   D(11,9,12,22)          72.554          estimate D2E/DX2                !
 --------------------------------------------------------------------------------
 Trust Radius=3.00D-01 FncErr=1.00D-07 GrdErr=1.00D-06 EigMax=2.50D+02 EigMin=1.00D-04
 Number of steps in this run=    148 maximum allowed number of steps=    198.
 GradGradGradGradGradGradGradGradGradGradGradGradGradGradGradGradGradGrad

                          Input orientation:                          
 ---------------------------------------------------------------------
 Center     Atomic      Atomic             Coordinates (Angstroms)
 Number     Number       Type             X           Y           Z
 ---------------------------------------------------------------------
      1         40           0        0.657790   -0.125060   -0.071640
      2          8           0       -0.222850   -0.906240    1.477300
      3          8           0        0.103020    1.747480   -0.122990
      4          8           0       -0.268300   -0.978850   -1.597050
      5          8           0        2.592060   -0.436300   -0.082840
      6         14           0       -1.831190   -1.332440   -1.953600
      7         14           0       -1.115500    2.841720   -0.082790
      8         14           0       -1.723760   -1.152910    2.115170
      9         14           0        4.216850   -0.257030   -0.005910
     10          8           0        4.946210   -0.157410   -1.483640
     11          8           0        4.904450   -1.572980    0.730620
     12          8           0        4.453570    1.168270    0.790660
     13          8           0       -2.319240   -2.624000    1.696270
     14          8           0       -2.724220    0.065080    1.550860
     15          8           0       -1.597340   -1.019570    3.744390
     16          8           0       -2.001440   -1.559650   -3.577820
     17          8           0       -2.825090   -0.186760   -1.301450
     18          8           0       -2.344480   -2.714390   -1.182770
     19          8           0       -2.040460    2.439570   -1.430230
     20          8           0       -0.635650    4.400490   -0.299870
     21          8           0       -1.965510    2.760860    1.313830
     22          1           0        5.340560    1.543270    0.757680
     23          1           0        5.292450   -0.984280   -1.837930
     24          1           0        4.474790   -1.911010    1.524220
     25          1           0       -2.405770   -2.809510    0.743920
     26          1           0       -2.381370   -1.224230    4.265350
     27          1           0       -3.060340   -0.083060    0.645890
     28          1           0       -0.527310    4.927280    0.500150
     29          1           0       -2.269090    1.869320    1.585330
     30          1           0       -2.648540    3.126760   -1.730140
     31          1           0       -2.304520   -3.529520   -1.695620
     32          1           0       -1.271140   -1.263050   -4.132230
     33          1           0       -2.610260    0.754610   -1.489930
 ---------------------------------------------------------------------
                    Distance matrix (angstroms):
                    1          2          3          4          5
     1  Zr   0.000000
     2  O    1.945504   0.000000
     3  O    1.953666   3.115983   0.000000
     4  O    1.978251   3.075543   3.121475   0.000000
     5  O    1.959183   3.252476   3.311469   3.281593   0.000000
     6  Si   3.345827   3.813067   4.071635   1.641578   4.885484
     7  Si   3.456366   4.156670   1.638221   4.196128   4.948880
     8  Si   3.392697   1.649380   4.093745   3.991145   4.896027
     9  Si   3.562112   4.725709   4.577703   4.813452   1.636459
    10  O    4.515012   6.003923   5.379262   5.280032   2.753551
    11  O    4.557874   5.224106   5.899816   5.703366   2.702019
    12  O    4.101733   5.161780   4.483026   5.710284   2.608231
    13  O    4.270002   2.719099   5.318542   4.214123   5.663226
    14  O    3.755882   2.684348   3.691278   4.126823   5.584191
    15  O    4.521929   2.653632   5.050190   5.504452   5.704294
    16  O    4.628483   5.398571   5.225104   2.695283   5.880225
    17  O    3.694143   3.874372   3.701875   2.692947   5.558129
    18  O    4.117386   3.853141   5.198238   2.737563   5.546978
    19  O    3.962783   4.790812   2.604299   3.854086   5.616612
    20  O    4.712290   5.611606   2.759598   5.545712   5.818913
    21  O    4.138812   4.063399   2.714813   5.033803   5.739683
    22  H    5.039785   6.121232   5.314989   6.585222   3.489903
    23  H    5.033698   6.435478   6.110132   5.565967   3.266914
    24  H    4.506204   4.804122   5.933820   5.753968   2.881334
    25  H    4.154132   2.987545   5.273682   3.660633   5.594101
    26  H    5.408711   3.540275   5.853271   6.236426   6.653014
    27  H    3.786965   3.069237   3.734823   3.691708   5.710118
    28  H    5.220876   5.922624   3.301022   6.272775   6.232041
    29  H    3.910208   3.450000   2.925766   4.716225   5.632890
    30  H    4.925117   5.695325   3.472237   4.747556   6.547739
    31  H    4.796138   4.613282   6.009671   3.265245   6.012118
    32  H    4.637260   5.717784   5.198616   2.741094   5.657331
    33  H    3.669539   4.154829   3.196280   2.915671   5.519266
                    6          7          8          9         10
     6  Si   0.000000
     7  Si   4.629876   0.000000
     8  Si   4.074145   4.599791   0.000000
     9  Si   6.444284   6.167829   6.371219   0.000000
    10  O    6.894542   6.906626   7.644014   1.650932   0.000000
    11  O    7.254774   7.509395   6.784291   1.657406   2.628408
    12  O    7.299501   5.880297   6.730647   1.649861   2.678164
    13  O    3.902290   5.872660   1.641396   7.156845   8.305580
    14  O    3.877087   3.600906   1.674176   7.120796   8.251860
    15  O    5.711363   5.457933   1.639549   6.960677   8.419838
    16  O    1.648848   5.689656   5.714252   7.288518   7.390650
    17  O    1.650975   3.685040   3.717481   7.160467   7.773491
    18  O    1.663560   5.795749   3.701340   7.104553   7.731936
    19  O    3.813892   1.683113   5.057279   6.960910   7.453906
    20  O    6.085279   1.645340   6.152776   6.732434   7.302939
    21  O    5.239203   1.636949   4.002272   7.005066   8.007123
    22  H    8.188696   6.638755   7.682238   2.255410   2.841010
    23  H    7.133081   7.666852   8.054976   2.245463   0.963907
    24  H    7.224636   7.511476   6.272636   2.267924   3.513484
    25  H    3.128657   5.855309   2.256056   7.136981   8.126947
    26  H    6.244177   6.086107   2.249625   7.919321   9.374562
    27  H    3.135141   3.587160   2.256060   7.308393   8.285244
    28  H    6.848729   2.243958   6.403787   7.045582   7.729742
    29  H    4.792395   2.249212   3.116406   7.008625   8.098566
    30  H    4.538993   2.268308   5.827281   7.845800   8.278089
    31  H    2.262246   6.678899   4.528540   7.489498   7.999322
    32  H    2.250533   5.768130   6.264743   6.939498   6.847840
    33  H    2.275460   2.927521   4.173878   7.059402   7.611311
                   11         12         13         14         15
    11  O    0.000000
    12  O    2.778732   0.000000
    13  O    7.363343   7.814883   0.000000
    14  O    7.845549   7.301753   2.723289   0.000000
    15  O    7.187652   7.079878   2.700024   2.694049   0.000000
    16  O    8.139665   8.257864   5.389792   5.428215   7.353213
    17  O    8.111517   7.693629   3.896453   2.865182   5.259415
    18  O    7.583592   8.073596   2.880569   3.916936   5.263795
    19  O    8.306720   6.980042   5.957555   3.872032   6.240088
    20  O    8.212001   6.126717   7.494165   5.155881   6.830662
    21  O    8.143627   6.634353   5.410000   2.810526   4.509415
    22  H    3.146735   0.963568   8.770383   8.237406   7.976405
    23  H    2.663562   3.499525   8.550852   8.766530   8.867511
    24  H    0.963677   3.165521   6.833506   7.465346   6.526453
    25  H    7.414074   7.929405   0.974101   3.002637   3.586121
    26  H    8.105499   8.032057   2.926327   3.024619   0.963321
    27  H    8.103389   7.618768   2.847614   0.976674   3.552200
    28  H    8.474108   6.246897   7.852614   5.437959   6.858213
    29  H    8.002477   6.805669   4.494969   1.861079   3.668579
    30  H    9.229873   7.786532   6.702236   4.488271   6.947485
    31  H    7.853912   8.597825   3.510712   4.861783   6.032716
    32  H    7.866465   7.932116   6.076357   6.014390   7.887131
    33  H    8.174312   7.434373   4.653125   3.120071   5.618881
                   16         17         18         19         20
    16  O    0.000000
    17  O    2.783000   0.000000
    18  O    2.680926   2.575652   0.000000
    19  O    4.539540   2.744055   5.168846   0.000000
    20  O    6.937839   5.180702   7.370287   2.663909   0.000000
    21  O    6.526587   4.033241   6.029510   2.763822   2.657243
    22  H    9.073568   8.597143   8.997380   7.750468   6.707996
    23  H    7.520578   8.174246   7.857812   8.103119   8.154983
    24  H    8.252019   8.015341   7.380763   8.372861   8.323397
    25  H    4.516976   3.352340   1.930010   5.693261   7.497128
    26  H    7.859527   5.680008   5.648358   6.780802   7.451594
    27  H    4.597968   1.964238   3.283344   3.422586   5.184188
    28  H    7.802766   5.888884   8.033022   3.493521   0.963990
    29  H    6.203837   3.587492   5.355227   3.077509   3.553720
    30  H    5.078888   3.345797   5.874615   0.965369   2.778450
    31  H    2.741336   3.405937   0.963872   5.980819   8.223035
    32  H    0.963680   3.403891   3.458000   4.647801   6.867788
    33  H    3.175806   0.983796   3.492699   1.779698   4.313672
                   21         22         23         24         25
    21  O    0.000000
    22  H    7.427684   0.000000
    23  H    8.754293   3.623260   0.000000
    24  H    7.959152   3.642690   3.582101   0.000000
    25  H    5.616729   8.885523   8.322260   6.982713   0.000000
    26  H    4.976480   8.921379   9.807911   7.415685   3.861888
    27  H    3.119724   8.557603   8.760745   7.803272   2.805637
    28  H    2.724678   6.778624   8.618745   8.534163   7.965297
    29  H    0.980162   7.661468   8.777165   7.731400   4.755849
    30  H    3.141045   8.516009   8.942684   9.311918   6.435776
    31  H    6.981447   9.497322   8.013267   7.677629   2.545589
    32  H    6.806877   8.689144   6.958609   8.088942   5.239825
    33  H    3.507394   8.299956   8.099239   8.147918   4.211277
                   26         27         28         29         30
    26  H    0.000000
    27  H    3.855355   0.000000
    28  H    7.446835   5.616136   0.000000
    29  H    4.094529   2.306602   3.682734   0.000000
    30  H    7.412718   4.014728   3.565906   3.566157   0.000000
    31  H    6.391669   4.234622   8.916129   6.317702   6.665254
    32  H    8.470742   5.236797   7.767394   6.595312   5.190154
    33  H    6.090275   2.337946   5.070530   3.288799   2.384588
                   31         32         33
    31  H    0.000000
    32  H    3.484513   0.000000
    33  H    4.299948   3.584124   0.000000
 Stoichiometry    H12O16Si4Zr
 Framework group  C1[X(H12O16Si4Zr)]
 Deg. of freedom    93
 Full point group                 C1      NOp   1
 Largest Abelian subgroup         C1      NOp   1
 Largest concise Abelian subgroup C1      NOp   1
                         Standard orientation:                         
 ---------------------------------------------------------------------
 Center     Atomic      Atomic             Coordinates (Angstroms)
 Number     Number       Type             X           Y           Z
 ---------------------------------------------------------------------
      1         40           0        0.657824   -0.126690   -0.064856
      2          8           0       -0.230385   -0.905973    1.480714
      3          8           0        0.105279    1.746407   -0.119774
      4          8           0       -0.262525   -0.980440   -1.593759
      5          8           0        2.591791   -0.439993   -0.067441
      6         14           0       -1.824223   -1.332589   -1.956895
      7         14           0       -1.112238    2.841966   -0.085554
      8         14           0       -1.734320   -1.150652    2.112193
      9         14           0        4.216421   -0.262403    0.016455
     10          8           0        4.952315   -0.164474   -1.458146
     11          8           0        4.899404   -1.578626    0.756782
     12          8           0        4.451189    1.163138    0.813171
     13          8           0       -2.329538   -2.621367    1.691609
     14          8           0       -2.731015    0.068051    1.542782
     15          8           0       -1.614854   -1.016436    3.741866
     16          8           0       -1.987641   -1.560625   -3.581701
     17          8           0       -2.819732   -0.185449   -1.309785
     18          8           0       -2.342338   -2.713515   -1.187458
     19          8           0       -2.031750    2.439965   -1.436762
     20          8           0       -0.629786    4.400090   -0.301501
     21          8           0       -1.968407    2.762876    1.307400
     22          1           0        5.338713    1.537174    0.783824
     23          1           0        5.299213   -0.991931   -1.810416
     24          1           0        4.465933   -1.915707    1.548711
     25          1           0       -2.412118   -2.807375    0.739005
     26          1           0       -2.401363   -1.219940    4.259532
     27          1           0       -3.063349   -0.080292    0.636448
     28          1           0       -0.524369    4.927261    0.498659
     29          1           0       -2.274117    1.871827    1.578124
     30          1           0       -2.637785    3.127615   -1.739740
     31          1           0       -2.301014   -3.529004   -1.699627
     32          1           0       -1.254618   -1.265145   -4.133108
     33          1           0       -2.603080    0.755575   -1.497907
 ---------------------------------------------------------------------
 Rotational constants (GHZ):           0.2124221           0.1338315           0.1240594
 General basis read from cards:  (5D, 7F)
 ======================================================================================================
                                       Pseudopotential Parameters
 ======================================================================================================
  Center     Atomic      Valence      Angular      Power
  Number     Number     Electrons     Momentum     of R      Exponent        Coefficient   SO-Coeffient
 ======================================================================================================
    1         40           12
                                      G and up 
                                                     2        1.0000000        0.00000000    0.00000000
                                      S - G
                                                     2        8.6365280      150.24299400    0.00000000
                                                     2        3.7176390       18.78003600    0.00000000
                                      P - G
                                                     2        7.6267280       33.19279100    0.00000000
                                                     2        7.4532070       66.38903900    0.00000000
                                                     2        3.3583890        4.62072600    0.00000000
                                                     2        3.2297380        9.26027000    0.00000000
                                      D - G
                                                     2        5.9380860       13.99338300    0.00000000
                                                     2        5.8255440       20.99588200    0.00000000
                                                     2        2.2050190        2.28516600    0.00000000
                                                     2        2.2062920        3.44126000    0.00000000
                                      F - G
                                                     2        4.8002150       -5.23932000    0.00000000
                                                     2        4.7989920       -6.98742400    0.00000000
    2          8
                                   No pseudopotential on this center.
    3          8
                                   No pseudopotential on this center.
    4          8
                                   No pseudopotential on this center.
    5          8
                                   No pseudopotential on this center.
    6         14
                                   No pseudopotential on this center.
    7         14
                                   No pseudopotential on this center.
    8         14
                                   No pseudopotential on this center.
    9         14
                                   No pseudopotential on this center.
   10          8
                                   No pseudopotential on this center.
   11          8
                                   No pseudopotential on this center.
   12          8
                                   No pseudopotential on this center.
   13          8
                                   No pseudopotential on this center.
   14          8
                                   No pseudopotential on this center.
   15          8
                                   No pseudopotential on this center.
   16          8
                                   No pseudopotential on this center.
   17          8
                                   No pseudopotential on this center.
   18          8
                                   No pseudopotential on this center.
   19          8
                                   No pseudopotential on this center.
   20          8
                                   No pseudopotential on this center.
   21          8
                                   No pseudopotential on this center.
   22          1
                                   No pseudopotential on this center.
   23          1
                                   No pseudopotential on this center.
   24          1
                                   No pseudopotential on this center.
   25          1
                                   No pseudopotential on this center.
   26          1
                                   No pseudopotential on this center.
   27          1
                                   No pseudopotential on this center.
   28          1
                                   No pseudopotential on this center.
   29          1
                                   No pseudopotential on this center.
   30          1
                                   No pseudopotential on this center.
   31          1
                                   No pseudopotential on this center.
   32          1
                                   No pseudopotential on this center.
   33          1
                                   No pseudopotential on this center.
 ======================================================================================================
 There are   570 symmetry adapted cartesian basis functions of A   symmetry.
 There are   524 symmetry adapted basis functions of A   symmetry.
   524 basis functions,  1074 primitive gaussians,   570 cartesian basis functions
   104 alpha electrons      104 beta electrons
       nuclear repulsion energy      2832.8907602799 Hartrees.
 NAtoms=   33 NActive=   33 NUniq=   33 SFac= 1.00D+00 NAtFMM=   60 NAOKFM=F Big=F
 Integral buffers will be    131072 words long.
 Raffenetti 2 integral format.
 Two-electron integral symmetry is turned on.
 Nuclear repulsion after empirical dispersion term =     2832.8499558288 Hartrees.
 One-electron integrals computed using PRISM.
 PrsmSu:  requested number of processors reduced to:   4 ShMem   1 Linda.
   1 Symmetry operations used in ECPInt.
 ECPInt:  NShTT=   13203 NPrTT=   78401 LenC2=   11527 LenP2D=   44635.
 LDataN:  DoStor=T MaxTD1= 8 Len=  415
 Number of processors reduced to  13 by ecpmxn.
 NBasis=   524 RedAO= T EigKep=  3.15D-05  NBF=   524
 NBsUse=   524 1.00D-06 EigRej= -1.00D+00 NBFU=   524
 Defaulting to unpruned grid for atomic number  40.
 ExpMin= 1.01D-02 ExpMax= 1.61D+04 ExpMxC= 2.43D+03 IAcc=3 IRadAn=         5 AccDes= 0.00D+00
 Harris functional with IExCor=  402 and IRadAn=       5 diagonalized for initial guess.
 HarFok:  IExCor=  402 AccDes= 0.00D+00 IRadAn=         5 IDoV= 1 UseB2=F ITyADJ=14
 ICtDFT=  3500011 ScaDFX=  1.000000  1.000000  1.000000  1.000000
 Defaulting to unpruned grid for atomic number  40.
 FoFCou: FMM=F IPFlag=           0 FMFlag=      100000 FMFlg1=           0
         NFxFlg=           0 DoJE=T BraDBF=F KetDBF=T FulRan=T
         wScrn=  0.000000 ICntrl=       500 IOpCl=  0 I1Cent=   200000004 NGrid=           0
         NMat0=    1 NMatS0=      1 NMatT0=    0 NMatD0=    1 NMtDS0=    0 NMtDT0=    0
 Petite list used in FoFCou.
 Requested convergence on RMS density matrix=1.00D-08 within 128 cycles.
 Requested convergence on MAX density matrix=1.00D-06.
 Requested convergence on             energy=1.00D-06.
 No special actions if energy rises.
 Defaulting to unpruned grid for atomic number  40.
 Defaulting to unpruned grid for atomic number  40.
 Defaulting to unpruned grid for atomic number  40.
 Defaulting to unpruned grid for atomic number  40.
 Defaulting to unpruned grid for atomic number  40.
 Defaulting to unpruned grid for atomic number  40.
 Defaulting to unpruned grid for atomic number  40.
 Defaulting to unpruned grid for atomic number  40.
 Defaulting to unpruned grid for atomic number  40.
 Defaulting to unpruned grid for atomic number  40.
 Defaulting to unpruned grid for atomic number  40.
 Defaulting to unpruned grid for atomic number  40.
 Defaulting to unpruned grid for atomic number  40.
 Defaulting to unpruned grid for atomic number  40.
 Defaulting to unpruned grid for atomic number  40.
 Defaulting to unpruned grid for atomic number  40.
 SCF Done:  E(RB3LYP) =  -2416.94685532     A.U. after   14 cycles
            NFock= 14  Conv=0.25D-08     -V/T= 2.0185

 **********************************************************************

            Population analysis using the SCF Density.

 **********************************************************************

 Orbital symmetries:
       Occupied  (A) (A) (A) (A) (A) (A) (A) (A) (A) (A) (A) (A)
                 (A) (A) (A) (A) (A) (A) (A) (A) (A) (A) (A) (A)
                 (A) (A) (A) (A) (A) (A) (A) (A) (A) (A) (A) (A)
                 (A) (A) (A) (A) (A) (A) (A) (A) (A) (A) (A) (A)
                 (A) (A) (A) (A) (A) (A) (A) (A) (A) (A) (A) (A)
                 (A) (A) (A) (A) (A) (A) (A) (A) (A) (A) (A) (A)
                 (A) (A) (A) (A) (A) (A) (A) (A) (A) (A) (A) (A)
                 (A) (A) (A) (A) (A) (A) (A) (A) (A) (A) (A) (A)
                 (A) (A) (A) (A) (A) (A) (A) (A)
       Virtual   (A) (A) (A) (A) (A) (A) (A) (A) (A) (A) (A) (A)
                 (A) (A) (A) (A) (A) (A) (A) (A) (A) (A) (A) (A)
                 (A) (A) (A) (A) (A) (A) (A) (A) (A) (A) (A) (A)
                 (A) (A) (A) (A) (A) (A) (A) (A) (A) (A) (A) (A)
                 (A) (A) (A) (A) (A) (A) (A) (A) (A) (A) (A) (A)
                 (A) (A) (A) (A) (A) (A) (A) (A) (A) (A) (A) (A)
                 (A) (A) (A) (A) (A) (A) (A) (A) (A) (A) (A) (A)
                 (A) (A) (A) (A) (A) (A) (A) (A) (A) (A) (A) (A)
                 (A) (A) (A) (A) (A) (A) (A) (A) (A) (A) (A) (A)
                 (A) (A) (A) (A) (A) (A) (A) (A) (A) (A) (A) (A)
                 (A) (A) (A) (A) (A) (A) (A) (A) (A) (A) (A) (A)
                 (A) (A) (A) (A) (A) (A) (A) (A) (A) (A) (A) (A)
                 (A) (A) (A) (A) (A) (A) (A) (A) (A) (A) (A) (A)
                 (A) (A) (A) (A) (A) (A) (A) (A) (A) (A) (A) (A)
                 (A) (A) (A) (A) (A) (A) (A) (A) (A) (A) (A) (A)
                 (A) (A) (A) (A) (A) (A) (A) (A) (A) (A) (A) (A)
                 (A) (A) (A) (A) (A) (A) (A) (A) (A) (A) (A) (A)
                 (A) (A) (A) (A) (A) (A) (A) (A) (A) (A) (A) (A)
                 (A) (A) (A) (A) (A) (A) (A) (A) (A) (A) (A) (A)
                 (A) (A) (A) (A) (A) (A) (A) (A) (A) (A) (A) (A)
                 (A) (A) (A) (A) (A) (A) (A) (A) (A) (A) (A) (A)
                 (A) (A) (A) (A) (A) (A) (A) (A) (A) (A) (A) (A)
                 (A) (A) (A) (A) (A) (A) (A) (A) (A) (A) (A) (A)
                 (A) (A) (A) (A) (A) (A) (A) (A) (A) (A) (A) (A)
                 (A) (A) (A) (A) (A) (A) (A) (A) (A) (A) (A) (A)
                 (A) (A) (A) (A) (A) (A) (A) (A) (A) (A) (A) (A)
                 (A) (A) (A) (A) (A) (A) (A) (A) (A) (A) (A) (A)
                 (A) (A) (A) (A) (A) (A) (A) (A) (A) (A) (A) (A)
                 (A) (A) (A) (A) (A) (A) (A) (A) (A) (A) (A) (A)
                 (A) (A) (A) (A) (A) (A) (A) (A) (A) (A) (A) (A)
                 (A) (A) (A) (A) (A) (A) (A) (A) (A) (A) (A) (A)
                 (A) (A) (A) (A) (A) (A) (A) (A) (A) (A) (A) (A)
                 (A) (A) (A) (A) (A) (A) (A) (A) (A) (A) (A) (A)
                 (A) (A) (A) (A) (A) (A) (A) (A) (A) (A) (A) (A)
                 (A) (A) (A) (A) (A) (A) (A) (A) (A) (A) (A) (A)
 The electronic state is 1-A.
 Alpha  occ. eigenvalues --  -66.22802 -66.21755 -66.21492 -66.21040 -19.18587
 Alpha  occ. eigenvalues --  -19.18350 -19.17783 -19.17024 -19.16732 -19.16535
 Alpha  occ. eigenvalues --  -19.16444 -19.16224 -19.16186 -19.16010 -19.16002
 Alpha  occ. eigenvalues --  -19.15501 -19.15334 -19.15256 -19.14898 -19.14707
 Alpha  occ. eigenvalues --   -5.36862  -5.35836  -5.35567  -5.35100  -3.72846
 Alpha  occ. eigenvalues --   -3.72819  -3.72773  -3.71827  -3.71780  -3.71745
 Alpha  occ. eigenvalues --   -3.71536  -3.71528  -3.71488  -3.71065  -3.71056
 Alpha  occ. eigenvalues --   -3.71030  -2.13364  -1.29606  -1.29522  -1.29366
 Alpha  occ. eigenvalues --   -1.05678  -1.04775  -1.04153  -1.03499  -1.02562
 Alpha  occ. eigenvalues --   -1.02169  -1.01471  -1.00920  -1.00764  -1.00667
 Alpha  occ. eigenvalues --   -0.99834  -0.99306  -0.97370  -0.96281  -0.95726
 Alpha  occ. eigenvalues --   -0.95404  -0.60988  -0.59160  -0.58975  -0.58492
 Alpha  occ. eigenvalues --   -0.55538  -0.54531  -0.53865  -0.53042  -0.52992
 Alpha  occ. eigenvalues --   -0.52493  -0.52151  -0.51707  -0.48776  -0.47604
 Alpha  occ. eigenvalues --   -0.47202  -0.46721  -0.43374  -0.42652  -0.41860
 Alpha  occ. eigenvalues --   -0.41393  -0.41111  -0.40526  -0.39827  -0.39337
 Alpha  occ. eigenvalues --   -0.38804  -0.38675  -0.38653  -0.38145  -0.38019
 Alpha  occ. eigenvalues --   -0.37627  -0.37481  -0.37195  -0.36541  -0.36408
 Alpha  occ. eigenvalues --   -0.36075  -0.35626  -0.35477  -0.35092  -0.34896
 Alpha  occ. eigenvalues --   -0.34605  -0.34004  -0.33692  -0.33486  -0.33257
 Alpha  occ. eigenvalues --   -0.32819  -0.32177  -0.32054  -0.31302
 Alpha virt. eigenvalues --   -0.04325  -0.03162  -0.03039  -0.02753  -0.02092
 Alpha virt. eigenvalues --   -0.01172  -0.00553  -0.00122   0.00122   0.00285
 Alpha virt. eigenvalues --    0.00760   0.00927   0.01030   0.01949   0.02345
 Alpha virt. eigenvalues --    0.03257   0.03332   0.03853   0.03947   0.04058
 Alpha virt. eigenvalues --    0.04160   0.04696   0.05549   0.05852   0.06198
 Alpha virt. eigenvalues --    0.06479   0.07091   0.07464   0.07713   0.08663
 Alpha virt. eigenvalues --    0.08797   0.09059   0.09190   0.09680   0.09952
 Alpha virt. eigenvalues --    0.10352   0.10668   0.10865   0.11268   0.11691
 Alpha virt. eigenvalues --    0.11819   0.12565   0.13274   0.13333   0.13581
 Alpha virt. eigenvalues --    0.14032   0.14452   0.14876   0.15046   0.15275
 Alpha virt. eigenvalues --    0.15348   0.15736   0.16197   0.16702   0.16935
 Alpha virt. eigenvalues --    0.17371   0.17519   0.17708   0.18154   0.18457
 Alpha virt. eigenvalues --    0.18484   0.18797   0.19216   0.19708   0.19758
 Alpha virt. eigenvalues --    0.20137   0.20278   0.20627   0.20926   0.21213
 Alpha virt. eigenvalues --    0.21752   0.22005   0.22322   0.22410   0.22756
 Alpha virt. eigenvalues --    0.23318   0.23741   0.24044   0.24163   0.24486
 Alpha virt. eigenvalues --    0.24821   0.25083   0.25619   0.25834   0.26145
 Alpha virt. eigenvalues --    0.26633   0.26672   0.26907   0.27207   0.27470
 Alpha virt. eigenvalues --    0.27939   0.28295   0.28549   0.28797   0.29039
 Alpha virt. eigenvalues --    0.29463   0.29734   0.30081   0.30388   0.30659
 Alpha virt. eigenvalues --    0.30794   0.31365   0.31483   0.31633   0.32083
 Alpha virt. eigenvalues --    0.32347   0.32756   0.33077   0.33575   0.34032
 Alpha virt. eigenvalues --    0.34468   0.34673   0.35341   0.35660   0.36280
 Alpha virt. eigenvalues --    0.36963   0.37551   0.38032   0.38470   0.38798
 Alpha virt. eigenvalues --    0.39382   0.39907   0.40070   0.41096   0.41591
 Alpha virt. eigenvalues --    0.42780   0.43087   0.43894   0.44299   0.44890
 Alpha virt. eigenvalues --    0.45381   0.45607   0.45937   0.46624   0.47446
 Alpha virt. eigenvalues --    0.47909   0.48654   0.48841   0.49338   0.49545
 Alpha virt. eigenvalues --    0.50045   0.50877   0.51068   0.51346   0.53106
 Alpha virt. eigenvalues --    0.54165   0.54416   0.55131   0.56709   0.57303
 Alpha virt. eigenvalues --    0.58222   0.58684   0.59088   0.59307   0.60356
 Alpha virt. eigenvalues --    0.61233   0.61700   0.62143   0.64116   0.65875
 Alpha virt. eigenvalues --    0.66987   0.68035   0.68468   0.68684   0.69474
 Alpha virt. eigenvalues --    0.70029   0.70595   0.73007   0.74464   0.75109
 Alpha virt. eigenvalues --    0.75473   0.77376   0.78584   0.78981   0.80340
 Alpha virt. eigenvalues --    0.81123   0.81477   0.82582   0.84149   0.85387
 Alpha virt. eigenvalues --    0.86645   0.87685   0.89721   0.90593   0.91223
 Alpha virt. eigenvalues --    0.94442   0.95709   0.96266   0.96882   0.97502
 Alpha virt. eigenvalues --    0.98090   0.98768   0.99217   0.99773   1.00404
 Alpha virt. eigenvalues --    1.00772   1.01495   1.02142   1.03228   1.04052
 Alpha virt. eigenvalues --    1.04299   1.05537   1.06401   1.06703   1.07961
 Alpha virt. eigenvalues --    1.09743   1.12339   1.15237   1.16199   1.16471
 Alpha virt. eigenvalues --    1.18702   1.19094   1.19846   1.20590   1.21002
 Alpha virt. eigenvalues --    1.21403   1.21746   1.22364   1.22883   1.22956
 Alpha virt. eigenvalues --    1.23461   1.23928   1.24318   1.25197   1.25717
 Alpha virt. eigenvalues --    1.26080   1.27164   1.27475   1.28143   1.28437
 Alpha virt. eigenvalues --    1.28992   1.29820   1.30117   1.30845   1.31432
 Alpha virt. eigenvalues --    1.32465   1.32682   1.33022   1.33493   1.34477
 Alpha virt. eigenvalues --    1.35299   1.36025   1.36531   1.36892   1.37747
 Alpha virt. eigenvalues --    1.39177   1.39738   1.40208   1.41191   1.41494
 Alpha virt. eigenvalues --    1.42790   1.43749   1.44251   1.45273   1.46357
 Alpha virt. eigenvalues --    1.47002   1.48788   1.51019   1.51379   1.52796
 Alpha virt. eigenvalues --    1.56723   1.57204   1.57694   1.59286   1.59804
 Alpha virt. eigenvalues --    1.60073   1.61207   1.61919   1.62456   1.63077
 Alpha virt. eigenvalues --    1.63219   1.63843   1.65194   1.65399   1.66636
 Alpha virt. eigenvalues --    1.67227   1.67999   1.69298   1.69632   1.70116
 Alpha virt. eigenvalues --    1.71358   1.71459   1.71547   1.72605   1.73334
 Alpha virt. eigenvalues --    1.74118   1.74966   1.75607   1.76059   1.76729
 Alpha virt. eigenvalues --    1.77200   1.77389   1.78510   1.78684   1.79604
 Alpha virt. eigenvalues --    1.80601   1.81457   1.82243   1.82450   1.83055
 Alpha virt. eigenvalues --    1.83379   1.84828   1.85100   1.85932   1.86653
 Alpha virt. eigenvalues --    1.87178   1.88066   1.88614   1.89818   1.90467
 Alpha virt. eigenvalues --    1.91210   1.91376   1.92506   1.92818   1.93918
 Alpha virt. eigenvalues --    1.94741   1.94949   1.95900   1.97296   1.98387
 Alpha virt. eigenvalues --    1.98949   2.00543   2.01198   2.02782   2.03644
 Alpha virt. eigenvalues --    2.05922   2.06556   2.07666   2.09762   2.10421
 Alpha virt. eigenvalues --    2.11174   2.13045   2.14282   2.16135   2.16344
 Alpha virt. eigenvalues --    2.17786   2.18812   2.19103   2.20807   2.26387
 Alpha virt. eigenvalues --    2.32599   2.33495   2.35414   2.39480   2.40427
 Alpha virt. eigenvalues --    2.41170   2.41363   2.41722   2.42741   2.43740
 Alpha virt. eigenvalues --    2.44011   2.45741   2.46700   2.47603   2.48999
 Alpha virt. eigenvalues --    2.50214   2.50310   2.51672   2.52762   2.53357
 Alpha virt. eigenvalues --    2.55457   2.58242   2.59266   2.60075   2.60702
 Alpha virt. eigenvalues --    2.61115   2.61771   2.62061   2.62411   2.62792
 Alpha virt. eigenvalues --    2.63144   2.64039   2.64602   2.64984   2.65971
 Alpha virt. eigenvalues --    2.66292   2.66614   2.67344   2.67553   2.69380
 Alpha virt. eigenvalues --    2.69713   2.70312   2.71218   2.71667   2.72393
 Alpha virt. eigenvalues --    2.72861   2.74332   2.75563   2.76757   2.77475
 Alpha virt. eigenvalues --    2.78942   2.80538   2.81490   2.82466   2.83440
 Alpha virt. eigenvalues --    2.83739   2.84707   2.86675   2.87790   2.88139
 Alpha virt. eigenvalues --    3.14637   3.20269   3.35835   3.41097   3.46750
 Alpha virt. eigenvalues --    3.47867   3.48592   3.48629   3.51092   3.51110
 Alpha virt. eigenvalues --    3.52896   3.54210   3.60309   3.61077   3.62061
 Alpha virt. eigenvalues --    3.66204   4.31512   4.59367   7.89041  31.29191
          Condensed to atoms (all electrons):
               1          2          3          4          5          6
     1  Zr  15.093578  -0.136187  -0.002033  -0.138214  -0.195503  -0.585112
     2  O   -0.136187   9.069526   0.019626  -0.042522  -0.057634   0.090835
     3  O   -0.002033   0.019626   8.829315   0.015252  -0.043198  -0.004813
     4  O   -0.138214  -0.042522   0.015252   8.812408  -0.059415  -0.675338
     5  O   -0.195503  -0.057634  -0.043198  -0.059415   9.434521  -0.006596
     6  Si  -0.585112   0.090835  -0.004813  -0.675338  -0.006596  13.975664
     7  Si  -0.616596  -0.027640  -0.876536  -0.006489  -0.033581   0.084563
     8  Si  -0.573391  -1.000516  -0.020558   0.072456  -0.013917  -0.022449
     9  Si  -0.323448  -0.041119  -0.026648  -0.033996  -1.247260   0.038236
    10  O   -0.012750   0.001017  -0.002077   0.001062   0.130742  -0.002467
    11  O   -0.062337   0.003575   0.002946   0.001185   0.314469  -0.000866
    12  O    0.039759  -0.000008   0.004729   0.002140   0.159139  -0.002855
    13  O   -0.041868   0.188077   0.001680  -0.015666  -0.000661   0.036873
    14  O   -0.021838   0.264692  -0.017495  -0.008846   0.001969   0.030007
    15  O   -0.081539   0.292450  -0.000715   0.001246   0.000560  -0.000525
    16  O   -0.126366   0.004682  -0.000479   0.344795   0.003201  -0.422154
    17  O   -0.080765  -0.040086   0.007728   0.219713   0.001277  -0.454523
    18  O   -0.027561  -0.014285   0.003724   0.198829  -0.000603  -0.450959
    19  O   -0.000618   0.009101   0.264153   0.010104   0.002114  -0.006999
    20  O   -0.145963  -0.000572   0.163849  -0.000876   0.001456   0.008983
    21  O    0.035398   0.010539   0.146591   0.003374   0.000229  -0.011687
    22  H   -0.008914  -0.000018  -0.000017  -0.000010   0.005729   0.000085
    23  H   -0.007621  -0.000013  -0.000006  -0.000056  -0.025227   0.000079
    24  H   -0.005203  -0.000200  -0.000011   0.000002  -0.005504   0.000060
    25  H    0.017542  -0.020129  -0.000111  -0.000272   0.000019   0.002386
    26  H    0.007295   0.000561   0.000015  -0.000011  -0.000004  -0.000138
    27  H    0.005276  -0.019335   0.000845  -0.001716   0.000010   0.008510
    28  H    0.005123  -0.000011  -0.018445  -0.000014  -0.000015  -0.000283
    29  H    0.004439  -0.007106  -0.020305  -0.000142  -0.000073   0.000119
    30  H    0.000800  -0.000013   0.000092  -0.000451  -0.000008  -0.000693
    31  H   -0.000081   0.000171  -0.000019  -0.018427  -0.000009   0.063654
    32  H    0.002043  -0.000024   0.000039   0.010413   0.000001   0.022910
    33  H   -0.016181   0.001018  -0.010086  -0.009573  -0.000101   0.053371
               7          8          9         10         11         12
     1  Zr  -0.616596  -0.573391  -0.323448  -0.012750  -0.062337   0.039759
     2  O   -0.027640  -1.000516  -0.041119   0.001017   0.003575  -0.000008
     3  O   -0.876536  -0.020558  -0.026648  -0.002077   0.002946   0.004729
     4  O   -0.006489   0.072456  -0.033996   0.001062   0.001185   0.002140
     5  O   -0.033581  -0.013917  -1.247260   0.130742   0.314469   0.159139
     6  Si   0.084563  -0.022449   0.038236  -0.002467  -0.000866  -0.002855
     7  Si  13.795742   0.181646   0.020377  -0.000265  -0.000816   0.004142
     8  Si   0.181646  13.795637   0.025833  -0.000924   0.001129  -0.000633
     9  Si   0.020377   0.025833  14.294838  -0.072546  -0.185621  -0.219042
    10  O   -0.000265  -0.000924  -0.072546   8.525785   0.015241   0.032224
    11  O   -0.000816   0.001129  -0.185621   0.015241   8.517847  -0.050365
    12  O    0.004142  -0.000633  -0.219042   0.032224  -0.050365   8.601893
    13  O    0.007482  -0.094657   0.000305   0.000000   0.000018   0.000010
    14  O    0.009812  -0.368584  -0.001451  -0.000002   0.000001   0.000018
    15  O   -0.002748  -0.305003  -0.000687   0.000000  -0.000024  -0.000018
    16  O    0.003827  -0.010047  -0.000997   0.000004  -0.000002  -0.000001
    17  O   -0.000638   0.096813   0.002540  -0.000002   0.000001  -0.000006
    18  O   -0.000641   0.074276   0.004224  -0.000003  -0.000001  -0.000001
    19  O   -0.406916  -0.015772   0.001059   0.000007  -0.000002  -0.000018
    20  O   -0.108447   0.009704   0.003200   0.000001  -0.000003  -0.000023
    21  O    0.024099  -0.040200  -0.001868   0.000002   0.000001   0.000027
    22  H   -0.000201   0.000086   0.047233  -0.006599  -0.005106   0.219897
    23  H    0.000061   0.000063   0.080983   0.228552  -0.006187   0.005894
    24  H    0.000058  -0.000103   0.037392   0.007365   0.242424  -0.007476
    25  H   -0.000473   0.057375  -0.000214   0.000000  -0.000000  -0.000000
    26  H   -0.000377   0.046085  -0.000042  -0.000000   0.000000  -0.000000
    27  H    0.001218   0.068238  -0.000013   0.000000  -0.000000  -0.000000
    28  H    0.056637  -0.000078  -0.000133  -0.000000  -0.000000  -0.000004
    29  H    0.048106   0.021820  -0.000056   0.000000   0.000000  -0.000001
    30  H    0.040176   0.000100   0.000024  -0.000000  -0.000000   0.000000
    31  H    0.000153  -0.001958  -0.000052   0.000000  -0.000000   0.000000
    32  H   -0.000659   0.000053   0.000004  -0.000000   0.000000   0.000000
    33  H    0.020617   0.000141   0.000078  -0.000000   0.000000   0.000000
              13         14         15         16         17         18
     1  Zr  -0.041868  -0.021838  -0.081539  -0.126366  -0.080765  -0.027561
     2  O    0.188077   0.264692   0.292450   0.004682  -0.040086  -0.014285
     3  O    0.001680  -0.017495  -0.000715  -0.000479   0.007728   0.003724
     4  O   -0.015666  -0.008846   0.001246   0.344795   0.219713   0.198829
     5  O   -0.000661   0.001969   0.000560   0.003201   0.001277  -0.000603
     6  Si   0.036873   0.030007  -0.000525  -0.422154  -0.454523  -0.450959
     7  Si   0.007482   0.009812  -0.002748   0.003827  -0.000638  -0.000641
     8  Si  -0.094657  -0.368584  -0.305003  -0.010047   0.096813   0.074276
     9  Si   0.000305  -0.001451  -0.000687  -0.000997   0.002540   0.004224
    10  O    0.000000  -0.000002   0.000000   0.000004  -0.000002  -0.000003
    11  O    0.000018   0.000001  -0.000024  -0.000002   0.000001  -0.000001
    12  O    0.000010   0.000018  -0.000018  -0.000001  -0.000006  -0.000001
    13  O    8.629401   0.087271  -0.090763   0.003723  -0.030874  -0.045413
    14  O    0.087271   8.675939   0.055375   0.003676  -0.035910  -0.026838
    15  O   -0.090763   0.055375   8.776629  -0.000174   0.003589   0.001666
    16  O    0.003723   0.003676  -0.000174   8.902119  -0.091470  -0.115135
    17  O   -0.030874  -0.035910   0.003589  -0.091470   8.936004   0.227551
    18  O   -0.045413  -0.026838   0.001666  -0.115135   0.227551   9.013677
    19  O    0.000190  -0.000376   0.000137  -0.001569  -0.030124   0.000172
    20  O    0.000008  -0.000233   0.000038   0.000065  -0.000991   0.000015
    21  O   -0.000249   0.016117  -0.000603  -0.000214  -0.005556   0.000476
    22  H   -0.000000   0.000000  -0.000000   0.000000   0.000000  -0.000000
    23  H    0.000000   0.000000  -0.000000  -0.000000   0.000000  -0.000000
    24  H   -0.000000   0.000000   0.000002   0.000000  -0.000000  -0.000000
    25  H    0.218206  -0.011979   0.008917  -0.000051   0.000633   0.014882
    26  H   -0.005143  -0.010069   0.217110   0.000000  -0.000003   0.000006
    27  H   -0.009787   0.219151   0.004628   0.000184   0.017898  -0.000269
    28  H   -0.000000  -0.000005  -0.000001  -0.000000   0.000004  -0.000000
    29  H    0.000794   0.017582  -0.002569  -0.000004  -0.000394   0.000006
    30  H    0.000001  -0.000000   0.000000   0.000116  -0.000395  -0.000007
    31  H    0.002355   0.000165  -0.000018   0.003815  -0.000762   0.218129
    32  H   -0.000008  -0.000006   0.000000   0.233402  -0.003639   0.003887
    33  H    0.000230   0.002077  -0.000035  -0.000122   0.231006   0.002108
              19         20         21         22         23         24
     1  Zr  -0.000618  -0.145963   0.035398  -0.008914  -0.007621  -0.005203
     2  O    0.009101  -0.000572   0.010539  -0.000018  -0.000013  -0.000200
     3  O    0.264153   0.163849   0.146591  -0.000017  -0.000006  -0.000011
     4  O    0.010104  -0.000876   0.003374  -0.000010  -0.000056   0.000002
     5  O    0.002114   0.001456   0.000229   0.005729  -0.025227  -0.005504
     6  Si  -0.006999   0.008983  -0.011687   0.000085   0.000079   0.000060
     7  Si  -0.406916  -0.108447   0.024099  -0.000201   0.000061   0.000058
     8  Si  -0.015772   0.009704  -0.040200   0.000086   0.000063  -0.000103
     9  Si   0.001059   0.003200  -0.001868   0.047233   0.080983   0.037392
    10  O    0.000007   0.000001   0.000002  -0.006599   0.228552   0.007365
    11  O   -0.000002  -0.000003   0.000001  -0.005106  -0.006187   0.242424
    12  O   -0.000018  -0.000023   0.000027   0.219897   0.005894  -0.007476
    13  O    0.000190   0.000008  -0.000249  -0.000000   0.000000  -0.000000
    14  O   -0.000376  -0.000233   0.016117   0.000000   0.000000   0.000000
    15  O    0.000137   0.000038  -0.000603  -0.000000  -0.000000   0.000002
    16  O   -0.001569   0.000065  -0.000214   0.000000  -0.000000   0.000000
    17  O   -0.030124  -0.000991  -0.005556   0.000000   0.000000  -0.000000
    18  O    0.000172   0.000015   0.000476  -0.000000  -0.000000  -0.000000
    19  O    8.872332   0.032054   0.023575  -0.000000   0.000000  -0.000000
    20  O    0.032054   8.656711  -0.050434   0.000000   0.000000  -0.000000
    21  O    0.023575  -0.050434   8.485775  -0.000000   0.000000   0.000000
    22  H   -0.000000   0.000000  -0.000000   0.361611   0.000056   0.000122
    23  H    0.000000   0.000000   0.000000   0.000056   0.351006   0.000014
    24  H   -0.000000  -0.000000   0.000000   0.000122   0.000014   0.365083
    25  H   -0.000024   0.000000  -0.000019   0.000000   0.000000   0.000000
    26  H    0.000001  -0.000000   0.000039  -0.000000  -0.000000  -0.000000
    27  H    0.000025   0.000192  -0.004029  -0.000000  -0.000000   0.000000
    28  H    0.004613   0.229595  -0.002078  -0.000000   0.000000  -0.000000
    29  H   -0.008564   0.007667   0.206458   0.000000   0.000000  -0.000000
    30  H    0.224249  -0.001475  -0.007142   0.000000   0.000000  -0.000000
    31  H    0.000004  -0.000000  -0.000000  -0.000000  -0.000000   0.000000
    32  H    0.000097  -0.000000   0.000001  -0.000000  -0.000000  -0.000000
    33  H    0.014850  -0.000081   0.001468  -0.000000  -0.000000  -0.000000
              25         26         27         28         29         30
     1  Zr   0.017542   0.007295   0.005276   0.005123   0.004439   0.000800
     2  O   -0.020129   0.000561  -0.019335  -0.000011  -0.007106  -0.000013
     3  O   -0.000111   0.000015   0.000845  -0.018445  -0.020305   0.000092
     4  O   -0.000272  -0.000011  -0.001716  -0.000014  -0.000142  -0.000451
     5  O    0.000019  -0.000004   0.000010  -0.000015  -0.000073  -0.000008
     6  Si   0.002386  -0.000138   0.008510  -0.000283   0.000119  -0.000693
     7  Si  -0.000473  -0.000377   0.001218   0.056637   0.048106   0.040176
     8  Si   0.057375   0.046085   0.068238  -0.000078   0.021820   0.000100
     9  Si  -0.000214  -0.000042  -0.000013  -0.000133  -0.000056   0.000024
    10  O    0.000000  -0.000000   0.000000  -0.000000   0.000000  -0.000000
    11  O   -0.000000   0.000000  -0.000000  -0.000000   0.000000  -0.000000
    12  O   -0.000000  -0.000000  -0.000000  -0.000004  -0.000001   0.000000
    13  O    0.218206  -0.005143  -0.009787  -0.000000   0.000794   0.000001
    14  O   -0.011979  -0.010069   0.219151  -0.000005   0.017582  -0.000000
    15  O    0.008917   0.217110   0.004628  -0.000001  -0.002569   0.000000
    16  O   -0.000051   0.000000   0.000184  -0.000000  -0.000004   0.000116
    17  O    0.000633  -0.000003   0.017898   0.000004  -0.000394  -0.000395
    18  O    0.014882   0.000006  -0.000269  -0.000000   0.000006  -0.000007
    19  O   -0.000024   0.000001   0.000025   0.004613  -0.008564   0.224249
    20  O    0.000000  -0.000000   0.000192   0.229595   0.007667  -0.001475
    21  O   -0.000019   0.000039  -0.004029  -0.002078   0.206458  -0.007142
    22  H    0.000000  -0.000000  -0.000000  -0.000000   0.000000   0.000000
    23  H    0.000000  -0.000000  -0.000000   0.000000   0.000000   0.000000
    24  H    0.000000  -0.000000   0.000000  -0.000000  -0.000000  -0.000000
    25  H    0.298906  -0.000012   0.000115   0.000000   0.000001   0.000000
    26  H   -0.000012   0.365954   0.000036   0.000000   0.000021  -0.000000
    27  H    0.000115   0.000036   0.283369  -0.000000  -0.001495   0.000010
    28  H    0.000000   0.000000  -0.000000   0.349200  -0.000017  -0.000016
    29  H    0.000001   0.000021  -0.001495  -0.000017   0.285945   0.000155
    30  H    0.000000  -0.000000   0.000010  -0.000016   0.000155   0.334232
    31  H   -0.000492   0.000000   0.000013  -0.000000   0.000000  -0.000000
    32  H   -0.000001   0.000000  -0.000000   0.000000  -0.000000  -0.000000
    33  H    0.000006  -0.000000  -0.002408  -0.000002   0.000100  -0.001156
              31         32         33
     1  Zr  -0.000081   0.002043  -0.016181
     2  O    0.000171  -0.000024   0.001018
     3  O   -0.000019   0.000039  -0.010086
     4  O   -0.018427   0.010413  -0.009573
     5  O   -0.000009   0.000001  -0.000101
     6  Si   0.063654   0.022910   0.053371
     7  Si   0.000153  -0.000659   0.020617
     8  Si  -0.001958   0.000053   0.000141
     9  Si  -0.000052   0.000004   0.000078
    10  O    0.000000  -0.000000  -0.000000
    11  O   -0.000000   0.000000   0.000000
    12  O    0.000000   0.000000   0.000000
    13  O    0.002355  -0.000008   0.000230
    14  O    0.000165  -0.000006   0.002077
    15  O   -0.000018   0.000000  -0.000035
    16  O    0.003815   0.233402  -0.000122
    17  O   -0.000762  -0.003639   0.231006
    18  O    0.218129   0.003887   0.002108
    19  O    0.000004   0.000097   0.014850
    20  O   -0.000000  -0.000000  -0.000081
    21  O   -0.000000   0.000001   0.001468
    22  H   -0.000000  -0.000000  -0.000000
    23  H   -0.000000  -0.000000  -0.000000
    24  H    0.000000  -0.000000  -0.000000
    25  H   -0.000492  -0.000001   0.000006
    26  H    0.000000   0.000000  -0.000000
    27  H    0.000013  -0.000000  -0.002408
    28  H   -0.000000   0.000000  -0.000002
    29  H    0.000000  -0.000000   0.000100
    30  H   -0.000000  -0.000000  -0.001156
    31  H    0.331380   0.000000  -0.000038
    32  H    0.000000   0.349930   0.000157
    33  H   -0.000038   0.000157   0.269258
 Mulliken charges:
               1
     1  Zr  -0.001162
     2  O   -0.548454
     3  O   -0.417031
     4  O   -0.680941
     5  O   -0.366127
     6  Si   2.232122
     7  Si   1.784310
     8  Si   2.017334
     9  Si   1.598866
    10  O   -0.844366
    11  O   -0.787508
    12  O   -0.789420
    13  O   -0.841534
    14  O   -0.880219
    15  O   -0.876924
    16  O   -0.734823
    17  O   -0.968618
    18  O   -1.081911
    19  O   -0.987857
    20  O   -0.804441
    21  O   -0.830088
    22  H    0.386046
    23  H    0.372402
    24  H    0.365977
    25  H    0.414790
    26  H    0.378676
    27  H    0.429336
    28  H    0.375931
    29  H    0.447514
    30  H    0.411401
    31  H    0.402018
    32  H    0.381400
    33  H    0.443300
 Sum of Mulliken charges =  -0.00000
 Mulliken charges with hydrogens summed into heavy atoms:
               1
     1  Zr  -0.001162
     2  O   -0.548454
     3  O   -0.417031
     4  O   -0.680941
     5  O   -0.366127
     6  Si   2.232122
     7  Si   1.784310
     8  Si   2.017334
     9  Si   1.598866
    10  O   -0.471963
    11  O   -0.421531
    12  O   -0.403374
    13  O   -0.426745
    14  O   -0.450882
    15  O   -0.498247
    16  O   -0.353423
    17  O   -0.525318
    18  O   -0.679893
    19  O   -0.576456
    20  O   -0.428510
    21  O   -0.382575
 Electronic spatial extent (au):  <R**2>=           9869.5135
 Charge=             -0.0000 electrons
 Dipole moment (field-independent basis, Debye):
    X=              1.0919    Y=             -0.7541    Z=             -2.3606  Tot=              2.7080
 Quadrupole moment (field-independent basis, Debye-Ang):
   XX=           -160.2095   YY=           -154.6269   ZZ=           -157.8492
   XY=             -4.8373   XZ=              2.3140   YZ=              5.7359
 Traceless Quadrupole moment (field-independent basis, Debye-Ang):
   XX=             -2.6477   YY=              2.9350   ZZ=             -0.2873
   XY=             -4.8373   XZ=              2.3140   YZ=              5.7359
 Octapole moment (field-independent basis, Debye-Ang**2):
  XXX=             74.2436  YYY=              6.9486  ZZZ=            -16.8537  XYY=             -1.3555
  XXY=             20.3029  XXZ=             19.0225  XZZ=              4.7789  YZZ=            -17.1232
  YYZ=            -16.9619  XYZ=             28.1578
 Hexadecapole moment (field-independent basis, Debye-Ang**3):
 XXXX=          -6031.5016 YYYY=          -2835.8205 ZZZZ=          -2264.4285 XXXY=             59.2349
 XXXZ=            -30.7604 YYYX=              5.0278 YYYZ=            219.3339 ZZZX=           -176.3094
 ZZZY=            -56.5037 XXYY=          -1477.4850 XXZZ=          -1367.8548 YYZZ=           -923.2778
 XXYZ=             -7.5424 YYXZ=            124.5709 ZZXY=            -61.6048
 N-N= 2.832849955829D+03 E-N=-1.137830133613D+04  KE= 2.373154885110D+03
 PrsmSu:  requested number of processors reduced to:   2 ShMem   1 Linda.
 PrsmSu:  requested number of processors reduced to:  10 ShMem   1 Linda.
   1 Symmetry operations used in ECPInt.
 ECPInt:  NShTT=   13203 NPrTT=   78401 LenC2=   11527 LenP2D=   44635.
 LDataN:  DoStor=T MaxTD1= 9 Len=  602
 Number of processors reduced to  14 by ecpmxn.
 Calling FoFJK, ICntrl=      2127 FMM=F ISym2X=0 I1Cent= 0 IOpClX= 0 NMat=1 NMatS=1 NMatT=0.
 CoulSu:  requested number of processors reduced to:  10 ShMem   1 Linda.
 Defaulting to unpruned grid for atomic number  40.
 Defaulting to unpruned grid for atomic number  40.
 Defaulting to unpruned grid for atomic number  40.
 Defaulting to unpruned grid for atomic number  40.
 Defaulting to unpruned grid for atomic number  40.
 Defaulting to unpruned grid for atomic number  40.
 Defaulting to unpruned grid for atomic number  40.
 Defaulting to unpruned grid for atomic number  40.
 Defaulting to unpruned grid for atomic number  40.
 Defaulting to unpruned grid for atomic number  40.
 Defaulting to unpruned grid for atomic number  40.
 Defaulting to unpruned grid for atomic number  40.
 Defaulting to unpruned grid for atomic number  40.
 Defaulting to unpruned grid for atomic number  40.
 Defaulting to unpruned grid for atomic number  40.
 Defaulting to unpruned grid for atomic number  40.
 ***** Axes restored to original set *****
 -------------------------------------------------------------------
 Center     Atomic                   Forces (Hartrees/Bohr)
 Number     Number              X              Y              Z
 -------------------------------------------------------------------
      1       40          -0.000036251   -0.000034879   -0.000129423
      2        8           0.000013088    0.000008152    0.000054563
      3        8          -0.000007636   -0.000011056    0.000013123
      4        8           0.000002921    0.000016693    0.000035851
      5        8           0.000020447    0.000042977    0.000031248
      6       14          -0.000012129    0.000001048   -0.000010759
      7       14           0.000022106   -0.000005500   -0.000027417
      8       14          -0.000011337   -0.000028182   -0.000029761
      9       14          -0.000014366   -0.000034486    0.000013290
     10        8           0.000009761    0.000019067   -0.000006303
     11        8           0.000007102    0.000006627    0.000007032
     12        8           0.000012040    0.000001293    0.000009934
     13        8          -0.000001717    0.000016809    0.000011591
     14        8           0.000002995    0.000004238    0.000010302
     15        8           0.000006107    0.000005986    0.000006518
     16        8           0.000000678    0.000000670    0.000006767
     17        8           0.000008385    0.000000478   -0.000001052
     18        8          -0.000010237    0.000007100    0.000006775
     19        8          -0.000000326    0.000004238    0.000007088
     20        8          -0.000005771    0.000002572    0.000008764
     21        8          -0.000006116    0.000003028    0.000014085
     22        1           0.000005532   -0.000004427   -0.000001389
     23        1          -0.000012166   -0.000010525   -0.000001064
     24        1          -0.000004090   -0.000009734   -0.000010194
     25        1           0.000002515   -0.000002164   -0.000007163
     26        1          -0.000001246    0.000002335    0.000001645
     27        1          -0.000001483    0.000001840   -0.000006952
     28        1           0.000004451   -0.000000695   -0.000003486
     29        1          -0.000000868   -0.000001651   -0.000001584
     30        1           0.000002331    0.000000992   -0.000001093
     31        1           0.000006679   -0.000003534   -0.000001730
     32        1           0.000000319    0.000001309   -0.000000510
     33        1          -0.000001717   -0.000000618    0.000001305
 -------------------------------------------------------------------
 Cartesian Forces:  Max     0.000129423 RMS     0.000018976

 GradGradGradGradGradGradGradGradGradGradGradGradGradGradGradGradGradGrad
 Berny optimization.
 FormGI is forming the generalized inverse of G from B-inverse, IUseBI=4.
 Internal  Forces:  Max     0.000098673 RMS     0.000014362
 Search for a local minimum.
 Step number   1 out of a maximum of  148
 All quantities printed in internal units (Hartrees-Bohrs-Radians)
 Mixed Optimization -- En-DIIS/RFO-DIIS
 Second derivative matrix not updated -- first step.
 ITU=  0
     Eigenvalues ---    0.00230   0.00230   0.00230   0.03240   0.03358
     Eigenvalues ---    0.03498   0.03580   0.03665   0.03665   0.03680
     Eigenvalues ---    0.03686   0.03693   0.03739   0.03789   0.03792
     Eigenvalues ---    0.03816   0.03834   0.03850   0.05521   0.09402
     Eigenvalues ---    0.09687   0.11077   0.11224   0.11833   0.11884
     Eigenvalues ---    0.11890   0.12177   0.12239   0.12299   0.12782
     Eigenvalues ---    0.12895   0.13099   0.13313   0.16000   0.16000
     Eigenvalues ---    0.16000   0.16000   0.16000   0.16000   0.16000
     Eigenvalues ---    0.16000   0.16000   0.16000   0.16000   0.16000
     Eigenvalues ---    0.19173   0.19314   0.19332   0.20013   0.20203
     Eigenvalues ---    0.20204   0.20208   0.20515   0.20653   0.20795
     Eigenvalues ---    0.20989   0.21175   0.21186   0.21227   0.25000
     Eigenvalues ---    0.25000   0.25000   0.38002   0.39187   0.40659
     Eigenvalues ---    0.41547   0.42502   0.42508   0.42670   0.42743
     Eigenvalues ---    0.42824   0.43363   0.43951   0.43980   0.44273
     Eigenvalues ---    0.44485   0.44689   0.44768   0.50655   0.51353
     Eigenvalues ---    0.52036   0.52548   0.54334   0.54624   0.54641
     Eigenvalues ---    0.54649   0.54689   0.54690   0.54713   0.54765
     Eigenvalues --- 1000.000001000.000001000.000001000.000001000.00000
     Eigenvalues --- 1000.000001000.000001000.000001000.000001000.00000
     Eigenvalues --- 1000.000001000.000001000.000001000.000001000.00000
     Eigenvalues --- 1000.000001000.000001000.000001000.000001000.00000
     Eigenvalues --- 1000.000001000.000001000.000001000.000001000.00000
     Eigenvalues --- 1000.000001000.000001000.000001000.000001000.00000
     Eigenvalues --- 1000.000001000.000001000.000001000.000001000.00000
     Eigenvalues --- 1000.000001000.000001000.000001000.000001000.00000
     Eigenvalues --- 1000.000001000.000001000.000001000.000001000.00000
     Eigenvalues --- 1000.000001000.000001000.00000
 RFO step:  Lambda=-2.09036729D-07 EMin= 2.30000000D-03
 Linear search not attempted -- first point.
 Iteration  1 RMS(Cart)=  0.00135807 RMS(Int)=  0.00000037
 Iteration  2 RMS(Cart)=  0.00000065 RMS(Int)=  0.00000002
 Iteration  1 RMS(Cart)=  0.00000000 RMS(Int)=  0.00000000
 Variable       Old X    -DE/DX   Delta X   Delta X   Delta X     New X
                                 (Linear)    (Quad)   (Total)
    R1        3.67647   0.00003   0.00000   0.00012   0.00012   3.67659
    R2        3.69189  -0.00001   0.00000  -0.00005  -0.00005   3.69184
    R3        3.73835  -0.00004   0.00000  -0.00019  -0.00019   3.73817
    R4        3.70232   0.00002   0.00000   0.00010   0.00010   3.70242
    R5        3.11688  -0.00000   0.00000  -0.00001  -0.00001   3.11687
    R6        3.09579  -0.00001   0.00000  -0.00001  -0.00001   3.09578
    R7        3.10213   0.00000   0.00000   0.00001   0.00001   3.10214
    R8        3.09246   0.00000   0.00000   0.00001   0.00001   3.09247
    R9        3.11587  -0.00001   0.00000  -0.00002  -0.00002   3.11586
   R10        3.11989  -0.00001   0.00000  -0.00001  -0.00001   3.11988
   R11        3.14367   0.00000   0.00000   0.00000   0.00000   3.14368
   R12        3.18062  -0.00001   0.00000  -0.00001  -0.00001   3.18061
   R13        3.10924  -0.00000   0.00000  -0.00000  -0.00000   3.10924
   R14        3.09339   0.00002   0.00000   0.00003   0.00003   3.09342
   R15        3.10179  -0.00001   0.00000  -0.00003  -0.00003   3.10176
   R16        3.16373   0.00000   0.00000   0.00000   0.00000   3.16374
   R17        3.09830   0.00001   0.00000   0.00002   0.00002   3.09832
   R18        3.11981   0.00001   0.00000   0.00001   0.00001   3.11982
   R19        3.13204  -0.00000   0.00000  -0.00000  -0.00000   3.13204
   R20        3.11778   0.00001   0.00000   0.00002   0.00002   3.11780
   R21        1.82152   0.00000   0.00000   0.00001   0.00001   1.82153
   R22        1.82109  -0.00000   0.00000  -0.00001  -0.00001   1.82108
   R23        1.82088   0.00000   0.00000   0.00001   0.00001   1.82089
   R24        1.84078   0.00001   0.00000   0.00001   0.00001   1.84080
   R25        1.84565   0.00001   0.00000   0.00001   0.00001   1.84566
   R26        1.82041   0.00000   0.00000   0.00000   0.00000   1.82042
   R27        1.82109   0.00000   0.00000   0.00000   0.00000   1.82109
   R28        1.85910  -0.00000   0.00000  -0.00000  -0.00000   1.85910
   R29        1.82145   0.00000   0.00000   0.00001   0.00001   1.82146
   R30        1.82428  -0.00000   0.00000  -0.00000  -0.00000   1.82428
   R31        1.82168  -0.00000   0.00000  -0.00001  -0.00001   1.82167
   R32        1.85224   0.00000   0.00000   0.00000   0.00000   1.85224
    A1        1.85172  -0.00001   0.00000  -0.00034  -0.00034   1.85138
    A2        1.80155   0.00001   0.00000   0.00007   0.00007   1.80163
    A3        1.96889  -0.00004   0.00000  -0.00040  -0.00040   1.96849
    A4        1.83430  -0.00000   0.00000   0.00024   0.00024   1.83454
    A5        2.01802   0.00000   0.00000  -0.00002  -0.00002   2.01801
    A6        1.97057   0.00004   0.00000   0.00045   0.00045   1.97102
    A7        2.46524  -0.00003   0.00000  -0.00010  -0.00010   2.46514
    A8        2.58826   0.00001   0.00000   0.00003   0.00003   2.58829
    A9        2.35483  -0.00001   0.00000  -0.00002  -0.00002   2.35481
   A10        2.86714   0.00010   0.00000   0.00000   0.00000   2.86714
   A11        1.91978  -0.00000   0.00000  -0.00000  -0.00000   1.91977
   A12        1.91546  -0.00000   0.00000  -0.00001  -0.00001   1.91545
   A13        1.95201  -0.00000   0.00000  -0.00002  -0.00002   1.95199
   A14        2.00708   0.00000   0.00000   0.00002   0.00002   2.00710
   A15        1.88610   0.00000   0.00000   0.00003   0.00003   1.88613
   A16        1.78001  -0.00000   0.00000  -0.00001  -0.00001   1.78000
[...]
 Alpha virt. eigenvalues --    3.47869   3.48590   3.48630   3.51089   3.51106
 Alpha virt. eigenvalues --    3.52897   3.54207   3.60311   3.61079   3.62056
 Alpha virt. eigenvalues --    3.66205   4.31672   4.59321   7.89110  31.29190
          Condensed to atoms (all electrons):
               1          2          3          4          5          6
     1  Zr  15.093258  -0.134213  -0.001939  -0.139140  -0.195046  -0.585364
     2  O   -0.134213   9.068926   0.019607  -0.042484  -0.057593   0.090525
     3  O   -0.001939   0.019607   8.829466   0.015285  -0.043215  -0.004780
     4  O   -0.139140  -0.042484   0.015285   8.812315  -0.059512  -0.674479
     5  O   -0.195046  -0.057593  -0.043215  -0.059512   9.434020  -0.006545
     6  Si  -0.585364   0.090525  -0.004780  -0.674479  -0.006545  13.974764
     7  Si  -0.617118  -0.027906  -0.876871  -0.006412  -0.033641   0.084400
     8  Si  -0.575110  -1.000954  -0.020593   0.072512  -0.013969  -0.022251
     9  Si  -0.323447  -0.041265  -0.026652  -0.033730  -1.246757   0.038269
    10  O   -0.012617   0.001022  -0.002076   0.001054   0.130838  -0.002465
    11  O   -0.062528   0.003579   0.002949   0.001178   0.314684  -0.000860
    12  O    0.039962  -0.000005   0.004716   0.002125   0.158876  -0.002860
    13  O   -0.041461   0.187917   0.001676  -0.015661  -0.000662   0.036765
    14  O   -0.021329   0.264568  -0.017496  -0.008852   0.001963   0.029957
    15  O   -0.081567   0.292521  -0.000712   0.001247   0.000566  -0.000515
    16  O   -0.126433   0.004675  -0.000483   0.344824   0.003187  -0.422039
    17  O   -0.081122  -0.040068   0.007756   0.219633   0.001277  -0.454225
    18  O   -0.027433  -0.014306   0.003727   0.198768  -0.000598  -0.450947
    19  O   -0.000325   0.009098   0.264162   0.010124   0.002119  -0.007058
    20  O   -0.145900  -0.000572   0.163840  -0.000875   0.001455   0.009000
    21  O    0.035447   0.010523   0.146670   0.003373   0.000229  -0.011706
    22  H   -0.008929  -0.000018  -0.000017  -0.000009   0.005742   0.000085
    23  H   -0.007651  -0.000013  -0.000006  -0.000056  -0.025254   0.000080
    24  H   -0.005205  -0.000200  -0.000011   0.000002  -0.005489   0.000060
    25  H    0.017489  -0.020113  -0.000111  -0.000276   0.000019   0.002408
    26  H    0.007298   0.000565   0.000015  -0.000011  -0.000004  -0.000139
    27  H    0.005182  -0.019307   0.000847  -0.001715   0.000010   0.008515
    28  H    0.005106  -0.000011  -0.018441  -0.000014  -0.000015  -0.000283
    29  H    0.004416  -0.007096  -0.020312  -0.000141  -0.000073   0.000121
    30  H    0.000791  -0.000013   0.000090  -0.000451  -0.000008  -0.000693
    31  H   -0.000108   0.000172  -0.000019  -0.018437  -0.000009   0.063700
    32  H    0.002056  -0.000024   0.000039   0.010412   0.000001   0.022910
    33  H   -0.016183   0.001017  -0.010089  -0.009579  -0.000101   0.053369
               7          8          9         10         11         12
     1  Zr  -0.617118  -0.575110  -0.323447  -0.012617  -0.062528   0.039962
     2  O   -0.027906  -1.000954  -0.041265   0.001022   0.003579  -0.000005
     3  O   -0.876871  -0.020593  -0.026652  -0.002076   0.002949   0.004716
     4  O   -0.006412   0.072512  -0.033730   0.001054   0.001178   0.002125
     5  O   -0.033641  -0.013969  -1.246757   0.130838   0.314684   0.158876
     6  Si   0.084400  -0.022251   0.038269  -0.002465  -0.000860  -0.002860
     7  Si  13.796953   0.182048   0.020374  -0.000268  -0.000812   0.004137
     8  Si   0.182048  13.797843   0.025782  -0.000930   0.001143  -0.000641
     9  Si   0.020374   0.025782  14.294080  -0.072716  -0.185908  -0.218823
    10  O   -0.000268  -0.000930  -0.072716   8.525835   0.015228   0.032243
    11  O   -0.000812   0.001143  -0.185908   0.015228   8.518106  -0.050413
    12  O    0.004137  -0.000641  -0.218823   0.032243  -0.050413   8.601844
    13  O    0.007471  -0.094594   0.000291   0.000000   0.000018   0.000009
    14  O    0.009786  -0.368885  -0.001456  -0.000002   0.000001   0.000018
    15  O   -0.002781  -0.305015  -0.000677   0.000000  -0.000025  -0.000018
    16  O    0.003846  -0.010036  -0.001005   0.000004  -0.000002  -0.000001
    17  O   -0.000624   0.096780   0.002555  -0.000002   0.000001  -0.000006
    18  O   -0.000645   0.074280   0.004223  -0.000003  -0.000001  -0.000001
    19  O   -0.407232  -0.015823   0.001057   0.000007  -0.000002  -0.000018
    20  O   -0.108454   0.009694   0.003192   0.000001  -0.000003  -0.000023
    21  O    0.024011  -0.040185  -0.001868   0.000002   0.000001   0.000027
    22  H   -0.000201   0.000086   0.047260  -0.006595  -0.005105   0.219864
    23  H    0.000061   0.000063   0.081063   0.228543  -0.006200   0.005904
    24  H    0.000058  -0.000104   0.037362   0.007356   0.242434  -0.007464
    25  H   -0.000473   0.057378  -0.000213   0.000000  -0.000000  -0.000000
    26  H   -0.000377   0.046074  -0.000043  -0.000000   0.000000  -0.000000
    27  H    0.001217   0.068269  -0.000013   0.000000  -0.000000  -0.000000
    28  H    0.056641  -0.000076  -0.000133  -0.000000  -0.000000  -0.000004
    29  H    0.048122   0.021828  -0.000056   0.000000   0.000000  -0.000001
    30  H    0.040194   0.000100   0.000024  -0.000000  -0.000000   0.000000
    31  H    0.000154  -0.001955  -0.000052   0.000000  -0.000000   0.000000
    32  H   -0.000659   0.000052   0.000004  -0.000000   0.000000   0.000000
    33  H    0.020623   0.000142   0.000078  -0.000000   0.000000   0.000000
              13         14         15         16         17         18
     1  Zr  -0.041461  -0.021329  -0.081567  -0.126433  -0.081122  -0.027433
     2  O    0.187917   0.264568   0.292521   0.004675  -0.040068  -0.014306
     3  O    0.001676  -0.017496  -0.000712  -0.000483   0.007756   0.003727
     4  O   -0.015661  -0.008852   0.001247   0.344824   0.219633   0.198768
     5  O   -0.000662   0.001963   0.000566   0.003187   0.001277  -0.000598
     6  Si   0.036765   0.029957  -0.000515  -0.422039  -0.454225  -0.450947
     7  Si   0.007471   0.009786  -0.002781   0.003846  -0.000624  -0.000645
     8  Si  -0.094594  -0.368885  -0.305015  -0.010036   0.096780   0.074280
     9  Si   0.000291  -0.001456  -0.000677  -0.001005   0.002555   0.004223
    10  O    0.000000  -0.000002   0.000000   0.000004  -0.000002  -0.000003
    11  O    0.000018   0.000001  -0.000025  -0.000002   0.000001  -0.000001
    12  O    0.000009   0.000018  -0.000018  -0.000001  -0.000006  -0.000001
    13  O    8.629103   0.087266  -0.090706   0.003722  -0.030867  -0.045401
    14  O    0.087266   8.676026   0.055430   0.003673  -0.035912  -0.026844
    15  O   -0.090706   0.055430   8.776507  -0.000174   0.003591   0.001666
    16  O    0.003722   0.003673  -0.000174   8.902176  -0.091562  -0.115245
    17  O   -0.030867  -0.035912   0.003591  -0.091562   8.936087   0.227637
    18  O   -0.045401  -0.026844   0.001666  -0.115245   0.227637   9.013498
    19  O    0.000189  -0.000361   0.000138  -0.001576  -0.030113   0.000176
    20  O    0.000008  -0.000234   0.000039   0.000065  -0.000993   0.000015
    21  O   -0.000251   0.016096  -0.000600  -0.000213  -0.005559   0.000475
    22  H   -0.000000   0.000000  -0.000000   0.000000   0.000000  -0.000000
    23  H    0.000000   0.000000  -0.000000  -0.000000   0.000000  -0.000000
    24  H   -0.000000   0.000000   0.000002   0.000000  -0.000000  -0.000000
    25  H    0.218239  -0.011980   0.008914  -0.000050   0.000627   0.014877
    26  H   -0.005140  -0.010071   0.217106   0.000000  -0.000003   0.000006
    27  H   -0.009780   0.219154   0.004629   0.000184   0.017907  -0.000264
    28  H   -0.000000  -0.000005  -0.000001  -0.000000   0.000004  -0.000000
    29  H    0.000793   0.017588  -0.002566  -0.000004  -0.000393   0.000006
    30  H    0.000001  -0.000000   0.000000   0.000116  -0.000393  -0.000007
    31  H    0.002355   0.000165  -0.000018   0.003802  -0.000758   0.218130
    32  H   -0.000008  -0.000006   0.000000   0.233385  -0.003638   0.003888
    33  H    0.000230   0.002076  -0.000035  -0.000119   0.231016   0.002104
              19         20         21         22         23         24
     1  Zr  -0.000325  -0.145900   0.035447  -0.008929  -0.007651  -0.005205
     2  O    0.009098  -0.000572   0.010523  -0.000018  -0.000013  -0.000200
     3  O    0.264162   0.163840   0.146670  -0.000017  -0.000006  -0.000011
     4  O    0.010124  -0.000875   0.003373  -0.000009  -0.000056   0.000002
     5  O    0.002119   0.001455   0.000229   0.005742  -0.025254  -0.005489
     6  Si  -0.007058   0.009000  -0.011706   0.000085   0.000080   0.000060
     7  Si  -0.407232  -0.108454   0.024011  -0.000201   0.000061   0.000058
     8  Si  -0.015823   0.009694  -0.040185   0.000086   0.000063  -0.000104
     9  Si   0.001057   0.003192  -0.001868   0.047260   0.081063   0.037362
    10  O    0.000007   0.000001   0.000002  -0.006595   0.228543   0.007356
    11  O   -0.000002  -0.000003   0.000001  -0.005105  -0.006200   0.242434
    12  O   -0.000018  -0.000023   0.000027   0.219864   0.005904  -0.007464
    13  O    0.000189   0.000008  -0.000251  -0.000000   0.000000  -0.000000
    14  O   -0.000361  -0.000234   0.016096   0.000000   0.000000   0.000000
    15  O    0.000138   0.000039  -0.000600  -0.000000  -0.000000   0.000002
    16  O   -0.001576   0.000065  -0.000213   0.000000  -0.000000   0.000000
    17  O   -0.030113  -0.000993  -0.005559   0.000000   0.000000  -0.000000
    18  O    0.000176   0.000015   0.000475  -0.000000  -0.000000  -0.000000
    19  O    8.872348   0.032107   0.023588  -0.000000   0.000000  -0.000000
    20  O    0.032107   8.656647  -0.050457   0.000000   0.000000  -0.000000
    21  O    0.023588  -0.050457   8.485803  -0.000000   0.000000   0.000000
    22  H   -0.000000   0.000000  -0.000000   0.361629   0.000056   0.000121
    23  H    0.000000   0.000000   0.000000   0.000056   0.351036   0.000014
    24  H   -0.000000  -0.000000   0.000000   0.000121   0.000014   0.365067
    25  H   -0.000024   0.000000  -0.000019   0.000000   0.000000   0.000000
    26  H    0.000001  -0.000000   0.000039  -0.000000  -0.000000  -0.000000
    27  H    0.000027   0.000192  -0.004025  -0.000000  -0.000000   0.000000
    28  H    0.004613   0.229606  -0.002079  -0.000000   0.000000  -0.000000
    29  H   -0.008569   0.007668   0.206452   0.000000   0.000000  -0.000000
    30  H    0.224241  -0.001475  -0.007141   0.000000   0.000000  -0.000000
    31  H    0.000004  -0.000000  -0.000000  -0.000000  -0.000000   0.000000
    32  H    0.000098  -0.000000   0.000001  -0.000000  -0.000000  -0.000000
    33  H    0.014855  -0.000080   0.001466  -0.000000  -0.000000  -0.000000
              25         26         27         28         29         30
     1  Zr   0.017489   0.007298   0.005182   0.005106   0.004416   0.000791
     2  O   -0.020113   0.000565  -0.019307  -0.000011  -0.007096  -0.000013
     3  O   -0.000111   0.000015   0.000847  -0.018441  -0.020312   0.000090
     4  O   -0.000276  -0.000011  -0.001715  -0.000014  -0.000141  -0.000451
     5  O    0.000019  -0.000004   0.000010  -0.000015  -0.000073  -0.000008
     6  Si   0.002408  -0.000139   0.008515  -0.000283   0.000121  -0.000693
     7  Si  -0.000473  -0.000377   0.001217   0.056641   0.048122   0.040194
     8  Si   0.057378   0.046074   0.068269  -0.000076   0.021828   0.000100
     9  Si  -0.000213  -0.000043  -0.000013  -0.000133  -0.000056   0.000024
    10  O    0.000000  -0.000000   0.000000  -0.000000   0.000000  -0.000000
    11  O   -0.000000   0.000000  -0.000000  -0.000000   0.000000  -0.000000
    12  O   -0.000000  -0.000000  -0.000000  -0.000004  -0.000001   0.000000
    13  O    0.218239  -0.005140  -0.009780  -0.000000   0.000793   0.000001
    14  O   -0.011980  -0.010071   0.219154  -0.000005   0.017588  -0.000000
    15  O    0.008914   0.217106   0.004629  -0.000001  -0.002566   0.000000
    16  O   -0.000050   0.000000   0.000184  -0.000000  -0.000004   0.000116
    17  O    0.000627  -0.000003   0.017907   0.000004  -0.000393  -0.000393
    18  O    0.014877   0.000006  -0.000264  -0.000000   0.000006  -0.000007
    19  O   -0.000024   0.000001   0.000027   0.004613  -0.008569   0.224241
    20  O    0.000000  -0.000000   0.000192   0.229606   0.007668  -0.001475
    21  O   -0.000019   0.000039  -0.004025  -0.002079   0.206452  -0.007141
    22  H    0.000000  -0.000000  -0.000000  -0.000000   0.000000   0.000000
    23  H    0.000000  -0.000000  -0.000000   0.000000   0.000000   0.000000
    24  H    0.000000  -0.000000   0.000000  -0.000000  -0.000000  -0.000000
    25  H    0.298939  -0.000012   0.000115   0.000000   0.000001   0.000000
    26  H   -0.000012   0.365966   0.000036   0.000000   0.000021  -0.000000
    27  H    0.000115   0.000036   0.283378  -0.000000  -0.001496   0.000010
    28  H    0.000000   0.000000  -0.000000   0.349185  -0.000017  -0.000016
    29  H    0.000001   0.000021  -0.001496  -0.000017   0.285943   0.000155
    30  H    0.000000  -0.000000   0.000010  -0.000016   0.000155   0.334214
    31  H   -0.000494   0.000000   0.000013  -0.000000   0.000000  -0.000000
    32  H   -0.000001   0.000000  -0.000000   0.000000  -0.000000  -0.000000
    33  H    0.000006  -0.000000  -0.002410  -0.000002   0.000100  -0.001156
              31         32         33
     1  Zr  -0.000108   0.002056  -0.016183
     2  O    0.000172  -0.000024   0.001017
     3  O   -0.000019   0.000039  -0.010089
     4  O   -0.018437   0.010412  -0.009579
     5  O   -0.000009   0.000001  -0.000101
     6  Si   0.063700   0.022910   0.053369
     7  Si   0.000154  -0.000659   0.020623
     8  Si  -0.001955   0.000052   0.000142
     9  Si  -0.000052   0.000004   0.000078
    10  O    0.000000  -0.000000  -0.000000
    11  O   -0.000000   0.000000   0.000000
    12  O    0.000000   0.000000   0.000000
    13  O    0.002355  -0.000008   0.000230
    14  O    0.000165  -0.000006   0.002076
    15  O   -0.000018   0.000000  -0.000035
    16  O    0.003802   0.233385  -0.000119
    17  O   -0.000758  -0.003638   0.231016
    18  O    0.218130   0.003888   0.002104
    19  O    0.000004   0.000098   0.014855
    20  O   -0.000000  -0.000000  -0.000080
    21  O   -0.000000   0.000001   0.001466
    22  H   -0.000000  -0.000000  -0.000000
    23  H   -0.000000  -0.000000  -0.000000
    24  H    0.000000  -0.000000  -0.000000
    25  H   -0.000494  -0.000001   0.000006
    26  H    0.000000   0.000000  -0.000000
    27  H    0.000013  -0.000000  -0.002410
    28  H   -0.000000   0.000000  -0.000002
    29  H    0.000000  -0.000000   0.000100
    30  H   -0.000000  -0.000000  -0.001156
    31  H    0.331420   0.000000  -0.000038
    32  H    0.000000   0.349936   0.000157
    33  H   -0.000038   0.000157   0.269208
 Mulliken charges:
               1
     1  Zr  -0.000835
     2  O   -0.548556
     3  O   -0.417021
     4  O   -0.681017
     5  O   -0.366495
     6  Si   2.232280
     7  Si   1.784377
     8  Si   2.017049
     9  Si   1.599199
    10  O   -0.844458
    11  O   -0.787464
    12  O   -0.789448
    13  O   -0.841523
    14  O   -0.880333
    15  O   -0.876946
    16  O   -0.734716
    17  O   -0.968633
    18  O   -1.081780
    19  O   -0.987850
    20  O   -0.804460
    21  O   -0.830100
    22  H    0.386030
    23  H    0.372362
    24  H    0.365999
    25  H    0.414754
    26  H    0.378674
    27  H    0.429324
    28  H    0.375942
    29  H    0.447509
    30  H    0.411417
    31  H    0.401975
    32  H    0.381396
    33  H    0.443345
 Sum of Mulliken charges =  -0.00000
 Mulliken charges with hydrogens summed into heavy atoms:
               1
     1  Zr  -0.000835
     2  O   -0.548556
     3  O   -0.417021
     4  O   -0.681017
     5  O   -0.366495
     6  Si   2.232280
     7  Si   1.784377
     8  Si   2.017049
     9  Si   1.599199
    10  O   -0.472096
    11  O   -0.421465
    12  O   -0.403418
    13  O   -0.426768
    14  O   -0.451009
    15  O   -0.498271
    16  O   -0.353320
    17  O   -0.525287
    18  O   -0.679804
    19  O   -0.576432
    20  O   -0.428518
    21  O   -0.382591
 Electronic spatial extent (au):  <R**2>=           9869.3201
 Charge=             -0.0000 electrons
 Dipole moment (field-independent basis, Debye):
    X=              1.0854    Y=             -0.7583    Z=             -2.3681  Tot=              2.7131
 Quadrupole moment (field-independent basis, Debye-Ang):
   XX=           -160.2378   YY=           -154.6171   ZZ=           -157.8468
   XY=             -4.8377   XZ=              2.3123   YZ=              5.7373
 Traceless Quadrupole moment (field-independent basis, Debye-Ang):
   XX=             -2.6706   YY=              2.9501   ZZ=             -0.2796
   XY=             -4.8377   XZ=              2.3123   YZ=              5.7373
 Octapole moment (field-independent basis, Debye-Ang**2):
  XXX=             74.1422  YYY=              6.8929  ZZZ=            -16.9249  XYY=             -1.3649
  XXY=             20.3383  XXZ=             18.9729  XZZ=              4.7099  YZZ=            -17.1681
  YYZ=            -16.9578  XYZ=             28.1395
 Hexadecapole moment (field-independent basis, Debye-Ang**3):
 XXXX=          -6032.6203 YYYY=          -2835.3398 ZZZZ=          -2263.4602 XXXY=             58.9267
 XXXZ=            -30.4365 YYYX=              5.3434 YYYZ=            219.1519 ZZZX=           -176.3974
 ZZZY=            -56.3006 XXYY=          -1477.3502 XXZZ=          -1368.2283 YYZZ=           -923.6373
 XXYZ=             -7.4419 YYXZ=            124.6660 ZZXY=            -61.6677
 N-N= 2.832864962698D+03 E-N=-1.137833074610D+04  KE= 2.373154887808D+03
 1\1\GINC-GRA368\FOpt\RB3LYP\Gen\H12O16Si4Zr1\SARASHS\14-Aug-2020\0\\#n
  B3LYP/Gen Pseudo=cards EmpiricalDispersion=GD3 Opt=modredundant\\Titl
 e\\0,1\Zr,0.657738893,-0.1253084112,-0.0736945592\O,-0.221923514,-0.90
 59271855,1.4761299726\O,0.1028987888,1.7471701356,-0.1241598808\O,-0.2
 69202665,-0.9792242256,-1.5984509724\O,2.592119145,-0.4362561642,-0.08
 32846919\Si,-1.832371197,-1.3326332267,-1.9541097431\Si,-1.1154507203,
 2.8415563847,-0.0832946297\Si,-1.7225014987,-1.1526737297,2.1147248832
 \Si,4.2167976895,-0.2567999902,-0.0046697066\O,4.9472848913,-0.1556270
 491,-1.4818030504\O,4.903905137,-1.5734323273,0.7310760783\O,4.4530896
 86,1.1678662266,0.7931573648\O,-2.3180850858,-2.6238812045,1.696497073
 4\O,-2.7234602871,0.0650862869,1.5507970036\O,-1.5951709223,-1.0188203
 711,3.7438554427\O,-2.0035205964,-1.56000797,-3.5781877118\O,-2.825665
 1255,-0.1867561724,-1.3014271506\O,-2.3453564094,-2.714431974,-1.18279
 96692\O,-2.0410999629,2.4394965391,-1.4302775716\O,-0.6356021658,4.400
 3062007,-0.3004921818\O,-1.9647943465,2.760745297,1.3137556692\H,5.340
 2012456,1.5426618039,0.760987938\H,5.2932210746,-0.9823218511,-1.83681
 9796\H,4.4733459017,-1.9127288893,1.523642563\H,-2.4050351296,-2.80956
 59701,0.7442124489\H,-2.3788858068,-1.2233107951,4.2653566545\H,-3.060
 0119928,-0.0830682114,0.6459923432\H,-0.526711188,4.9270087532,0.49950
 45741\H,-2.2683265162,1.8691892625,1.5852813495\H,-2.6492555593,3.1267
 340002,-1.7299198432\H,-2.3053849003,-3.5296611423,-1.6955099401\H,-1.
 2735002713,-1.2635577675,-4.1330479825\H,-2.6109065918,0.7546337378,-1
 .489832278\\Version=ES64L-G16RevB.01\State=1-A\HF=-2416.9468556\RMSD=4
 .813e-09\RMSF=9.591e-06\Dipole=0.4238671,-0.2970771,-0.9335106\Quadrup
 ole=-1.9643792,2.1779298,-0.2135506,-3.5868985,1.7178552,4.2829616\PG=
 C01 [X(H12O16Si4Zr1)]\\@


 A true friend is someone who is there for
 you when he'd rather be anywhere else.
                               -- Len Wein
 Job cpu time:       0 days  9 hours 46 minutes 38.3 seconds.
 Elapsed time:       0 days  0 hours 44 minutes 15.7 seconds.
 File lengths (MBytes):  RWF=    167 Int=      0 D2E=      0 Chk=     21 Scr=      1
 Normal termination of Gaussian 16 at Fri Aug 14 03:38:03 2020.
