 Entering Gaussian System, Link 0=g16
 Initial command:
 /opt/software/gaussian/g16.b01/l1.exe "/localscratch/sarashs.37145439.0/Gau-6117.inp" -scrdir="/localscratch/sarashs.37145439.0/"
 Entering Link 1 = /opt/software/gaussian/g16.b01/l1.exe PID=      6118.
  
 Copyright (c) 1988-2017, Gaussian, Inc.  All Rights Reserved.
  
 This is part of the Gaussian(R) 16 program.  It is based on
 the Gaussian(R) 09 system (copyright 2009, Gaussian, Inc.),
 the Gaussian(R) 03 system (copyright 2003, Gaussian, Inc.),
 the Gaussian(R) 98 system (copyright 1998, Gaussian, Inc.),
 the Gaussian(R) 94 system (copyright 1995, Gaussian, Inc.),
 the Gaussian 92(TM) system (copyright 1992, Gaussian, Inc.),
 the Gaussian 90(TM) system (copyright 1990, Gaussian, Inc.),
 the Gaussian 88(TM) system (copyright 1988, Gaussian, Inc.),
 the Gaussian 86(TM) system (copyright 1986, Carnegie Mellon
 University), and the Gaussian 82(TM) system (copyright 1983,
 Carnegie Mellon University). Gaussian is a federally registered
 trademark of Gaussian, Inc.
  
 This software contains proprietary and confidential information,
 including trade secrets, belonging to Gaussian, Inc.
  
 This software is provided under written license and may be
 used, copied, transmitted, or stored only in accord with that
 written license.
  
 The following legend is applicable only to US Government
 contracts under FAR:
  
                    RESTRICTED RIGHTS LEGEND
  
 Use, reproduction and disclosure by the US Government is
 subject to restrictions as set forth in subparagraphs (a)
 and (c) of the Commercial Computer Software - Restricted
 Rights clause in FAR 52.227-19.
  
 Gaussian, Inc.
 340 Quinnipiac St., Bldg. 40, Wallingford CT 06492
  
  
 ---------------------------------------------------------------
 Warning -- This program may not be used in any manner that
 competes with the business of Gaussian, Inc. or will provide
 assistance to any competitor of Gaussian, Inc.  The licensee
 of this program is prohibited from giving any competitor of
 Gaussian, Inc. access to this program.  By using this program,
 the user acknowledges that Gaussian, Inc. is engaged in the
 business of creating and licensing software in the field of
 computational chemistry and represents and warrants to the
 licensee that it is not a competitor of Gaussian, Inc. and that
 it will not use this program in any manner prohibited above.
 ---------------------------------------------------------------
  

 Cite this work as:
 Gaussian 16, Revision B.01,
 M. J. Frisch, G. W. Trucks, H. B. Schlegel, G. E. Scuseria, 
 M. A. Robb, J. R. Cheeseman, G. Scalmani, V. Barone, 
 G. A. Petersson, H. Nakatsuji, X. Li, M. Caricato, A. V. Marenich, 
 J. Bloino, B. G. Janesko, R. Gomperts, B. Mennucci, H. P. Hratchian, 
 J. V. Ortiz, A. F. Izmaylov, J. L. Sonnenberg, D. Williams-Young, 
 F. Ding, F. Lipparini, F. Egidi, J. Goings, B. Peng, A. Petrone, 
 T. Henderson, D. Ranasinghe, V. G. Zakrzewski, J. Gao, N. Rega, 
 G. Zheng, W. Liang, M. Hada, M. Ehara, K. Toyota, R. Fukuda, 
 J. Hasegawa, M. Ishida, T. Nakajima, Y. Honda, O. Kitao, H. Nakai, 
 T. Vreven, K. Throssell, J. A. Montgomery, Jr., J. E. Peralta, 
 F. Ogliaro, M. J. Bearpark, J. J. Heyd, E. N. Brothers, K. N. Kudin, 
 V. N. Staroverov, T. A. Keith, R. Kobayashi, J. Normand, 
 K. Raghavachari, A. P. Rendell, J. C. Burant, S. S. Iyengar, 
 J. Tomasi, M. Cossi, J. M. Millam, M. Klene, C. Adamo, R. Cammi, 
 J. W. Ochterski, R. L. Martin, K. Morokuma, O. Farkas, 
 J. B. Foresman, and D. J. Fox, Gaussian, Inc., Wallingford CT, 2016.
 
 ******************************************
 Gaussian 16:  ES64L-G16RevB.01 20-Dec-2017
                11-Aug-2020 
 ******************************************
 %NProcShared=16
 Will use up to   16 processors via shared memory.
 -------------------------------------------------------------
 #n B3LYP/6-31+G(d,p) EmpiricalDispersion=GD3 Opt=modredundant
 -------------------------------------------------------------
 1/18=120,19=15,26=3,38=1/1,3;
 2/9=110,12=2,17=6,18=5,40=1/2;
 3/5=1,6=6,7=111,11=2,25=1,30=1,71=1,74=-5,124=31/1,2,3;
 4//1;
 5/5=2,38=5/2;
 6/7=2,8=2,9=2,10=2,28=1/1;
 7//1,2,3,16;
 1/18=20,19=15,26=3/3(2);
 2/9=110/2;
 99//99;
 2/9=110/2;
 3/5=1,6=6,7=111,11=2,25=1,30=1,71=1,74=-5,124=31/1,2,3;
 4/5=5,16=3,69=1/1;
 5/5=2,38=5/2;
 7//1,2,3,16;
 1/18=20,19=15,26=3/3(-5);
 2/9=110/2;
 6/7=2,8=2,9=2,10=2,19=2,28=1/1;
 99/9=1/99;
 -----
 Title
 -----
 Symbolic Z-matrix:
 Charge =  0 Multiplicity = 1
 Si                   -2.39231   0.02008  -0.02466 
 O                    -3.28936  -1.25875  -0.54409 
 O                    -3.46265   1.11855   0.58719 
 O                    -1.44481   0.78884  -1.13151 
 O                    -1.28946  -0.63604   1.06361 
 H                    -1.54484  -1.49016   1.43871 
 H                    -0.5198    0.50491  -1.25915 
 H                    -3.13907   2.01896   0.72541 
 Si                    2.39431  -0.02686   0.03733 
 O                     3.64601   1.03508   0.30927 
 O                     1.61802   0.45952  -1.3729 
 O                     1.38128   0.02936   1.34386 
 O                     2.85016  -1.59436  -0.25819 
 H                     3.27868  -1.79981  -1.18297 
 H                     0.42441  -0.20904   1.24345 
 H                     3.80794   1.28977   1.22786 
 H                     1.82298   1.3682   -1.62952 
 H                    -4.23182  -1.12543  -0.71903 
 
 Add virtual bond connecting atoms H15        and O5         Dist= 3.36D+00.
 The following ModRedundant input section has been read:
 B       1       9 F                                                           
 

 GradGradGradGradGradGradGradGradGradGradGradGradGradGradGradGradGradGrad
 Berny optimization.
 Initialization pass.
                           ----------------------------
                           !    Initial Parameters    !
                           ! (Angstroms and Degrees)  !
 --------------------------                            --------------------------
 ! Name  Definition              Value          Derivative Info.                !
 --------------------------------------------------------------------------------
 ! R1    R(1,2)                  1.6462         estimate D2E/DX2                !
 ! R2    R(1,3)                  1.6512         estimate D2E/DX2                !
 ! R3    R(1,4)                  1.6474         estimate D2E/DX2                !
 ! R4    R(1,5)                  1.6826         estimate D2E/DX2                !
 ! R5    R(1,9)                  4.7873         Frozen                          !
 ! R6    R(2,18)                 0.9678         estimate D2E/DX2                !
 ! R7    R(3,8)                  0.9667         estimate D2E/DX2                !
 ! R8    R(4,7)                  0.976          estimate D2E/DX2                !
 ! R9    R(5,6)                  0.9672         estimate D2E/DX2                !
 ! R10   R(5,15)                 1.7754         estimate D2E/DX2                !
 ! R11   R(9,10)                 1.6639         estimate D2E/DX2                !
 ! R12   R(9,11)                 1.6817         estimate D2E/DX2                !
 ! R13   R(9,12)                 1.6542         estimate D2E/DX2                !
 ! R14   R(9,13)                 1.659          estimate D2E/DX2                !
 ! R15   R(10,16)                0.9669         estimate D2E/DX2                !
 ! R16   R(11,17)                0.9662         estimate D2E/DX2                !
 ! R17   R(12,15)                0.9912         estimate D2E/DX2                !
 ! R18   R(13,14)                1.0397         estimate D2E/DX2                !
 ! A1    A(2,1,3)              106.2892         estimate D2E/DX2                !
 ! A2    A(2,1,4)              117.641          estimate D2E/DX2                !
 ! A3    A(2,1,5)              104.971          estimate D2E/DX2                !
 ! A4    A(3,1,4)              108.1394         estimate D2E/DX2                !
 ! A5    A(3,1,5)              116.3988         estimate D2E/DX2                !
 ! A6    A(4,1,5)              103.8598         estimate D2E/DX2                !
 ! A7    A(1,2,18)             118.7305         estimate D2E/DX2                !
 ! A8    A(1,3,8)              117.1053         estimate D2E/DX2                !
 ! A9    A(1,4,7)              119.8164         estimate D2E/DX2                !
 ! A10   A(1,5,6)              114.9695         estimate D2E/DX2                !
 ! A11   A(1,5,15)             127.1907         estimate D2E/DX2                !
 ! A12   A(6,5,15)             115.3408         estimate D2E/DX2                !
 ! A13   A(10,9,11)            107.4418         estimate D2E/DX2                !
 ! A14   A(10,9,12)            108.0549         estimate D2E/DX2                !
 ! A15   A(10,9,13)            115.1794         estimate D2E/DX2                !
 ! A16   A(11,9,12)            111.7042         estimate D2E/DX2                !
 ! A17   A(11,9,13)            104.5209         estimate D2E/DX2                !
 ! A18   A(12,9,13)            109.9426         estimate D2E/DX2                !
 ! A19   A(9,10,16)            116.7036         estimate D2E/DX2                !
 ! A20   A(9,11,17)            113.3782         estimate D2E/DX2                !
 ! A21   A(9,12,15)            120.1985         estimate D2E/DX2                !
 ! A22   A(9,13,14)            117.2833         estimate D2E/DX2                !
 ! A23   L(5,15,12,7,-1)       180.0            estimate D2E/DX2                !
 ! A24   L(5,15,12,7,-2)       180.0            estimate D2E/DX2                !
 ! D1    D(3,1,2,18)            20.0405         estimate D2E/DX2                !
 ! D2    D(4,1,2,18)          -101.2361         estimate D2E/DX2                !
 ! D3    D(5,1,2,18)           143.9324         estimate D2E/DX2                !
 ! D4    D(2,1,3,8)           -164.4782         estimate D2E/DX2                !
 ! D5    D(4,1,3,8)            -37.2966         estimate D2E/DX2                !
 ! D6    D(5,1,3,8)             79.0654         estimate D2E/DX2                !
 ! D7    D(2,1,4,7)            -91.3807         estimate D2E/DX2                !
 ! D8    D(3,1,4,7)            148.3045         estimate D2E/DX2                !
 ! D9    D(5,1,4,7)             24.0596         estimate D2E/DX2                !
 ! D10   D(2,1,5,6)            -21.1823         estimate D2E/DX2                !
 ! D11   D(2,1,5,15)           139.902          estimate D2E/DX2                !
 ! D12   D(3,1,5,6)             96.0035         estimate D2E/DX2                !
 ! D13   D(3,1,5,15)          -102.9121         estimate D2E/DX2                !
 ! D14   D(4,1,5,6)           -145.2803         estimate D2E/DX2                !
 ! D15   D(4,1,5,15)            15.804          estimate D2E/DX2                !
 ! D16   D(1,5,12,9)           -54.4578         estimate D2E/DX2                !
 ! D17   D(6,5,12,9)           106.5667         estimate D2E/DX2                !
 ! D18   D(11,9,10,16)         141.0853         estimate D2E/DX2                !
 ! D19   D(12,9,10,16)          20.4128         estimate D2E/DX2                !
 ! D20   D(13,9,10,16)        -102.9309         estimate D2E/DX2                !
 ! D21   D(10,9,11,17)         -17.4606         estimate D2E/DX2                !
 ! D22   D(12,9,11,17)         100.8798         estimate D2E/DX2                !
 ! D23   D(13,9,11,17)        -140.2838         estimate D2E/DX2                !
 ! D24   D(10,9,12,15)         154.2907         estimate D2E/DX2                !
 ! D25   D(11,9,12,15)          36.3169         estimate D2E/DX2                !
 ! D26   D(13,9,12,15)         -79.2459         estimate D2E/DX2                !
 ! D27   D(10,9,13,14)         -73.1164         estimate D2E/DX2                !
 ! D28   D(11,9,13,14)          44.5228         estimate D2E/DX2                !
 ! D29   D(12,9,13,14)         164.5469         estimate D2E/DX2                !
 --------------------------------------------------------------------------------
 Trust Radius=3.00D-01 FncErr=1.00D-07 GrdErr=1.00D-06 EigMax=2.50D+02 EigMin=1.00D-04
 Number of steps in this run=     81 maximum allowed number of steps=    108.
 GradGradGradGradGradGradGradGradGradGradGradGradGradGradGradGradGradGrad

                          Input orientation:                          
 ---------------------------------------------------------------------
 Center     Atomic      Atomic             Coordinates (Angstroms)
 Number     Number       Type             X           Y           Z
 ---------------------------------------------------------------------
      1         14           0       -2.392314    0.020077   -0.024655
      2          8           0       -3.289358   -1.258747   -0.544092
      3          8           0       -3.462646    1.118546    0.587185
      4          8           0       -1.444813    0.788843   -1.131506
      5          8           0       -1.289463   -0.636040    1.063606
      6          1           0       -1.544840   -1.490155    1.438708
      7          1           0       -0.519799    0.504907   -1.259148
      8          1           0       -3.139071    2.018955    0.725408
      9         14           0        2.394314   -0.026858    0.037334
     10          8           0        3.646011    1.035081    0.309265
     11          8           0        1.618019    0.459517   -1.372903
     12          8           0        1.381278    0.029356    1.343858
     13          8           0        2.850161   -1.594364   -0.258194
     14          1           0        3.278676   -1.799813   -1.182973
     15          1           0        0.424410   -0.209041    1.243450
     16          1           0        3.807944    1.289768    1.227855
     17          1           0        1.822982    1.368203   -1.629515
     18          1           0       -4.231820   -1.125430   -0.719028
 ---------------------------------------------------------------------
                    Distance matrix (angstroms):
                    1          2          3          4          5
     1  Si   0.000000
     2  O    1.646175   0.000000
     3  O    1.651240   2.638435   0.000000
     4  O    1.647385   2.817805   2.671002   0.000000
     5  O    1.682582   2.640461   2.833421   2.621630   0.000000
     6  H    2.267255   2.651111   3.347894   3.436544   0.967177
     7  H    2.294634   3.360392   3.527867   0.975993   2.699876
     8  H    2.261803   3.518174   0.966718   2.798538   3.253371
     9  Si   4.787259   5.844633   5.993185   4.095174   3.872280
    10  O    6.132137   7.354537   7.114577   5.296503   5.265034
    11  O    4.253663   5.265141   5.485382   3.089930   3.948452
    12  O    4.014089   5.199847   5.022200   3.832889   2.766614
    13  O    5.490401   6.155329   6.922866   4.988903   4.449947
    14  H    6.067440   6.621178   7.556170   5.386570   5.222009
    15  H    3.097502   4.253147   4.159612   3.182795   1.775396
    16  H    6.451674   7.746381   7.300771   5.780049   5.451539
    17  H    4.707626   5.849361   5.737068   3.355913   4.577904
    18  H    2.275549   0.967786   2.707997   3.406169   3.474874
                    6          7          8          9         10
     6  H    0.000000
     7  H    3.508477   0.000000
     8  H    3.919722   3.618203   0.000000
     9  Si   4.429675   3.233527   5.939457   0.000000
    10  O    5.881955   4.482742   6.868662   1.663853   0.000000
    11  O    4.659405   2.141323   5.428136   1.681655   2.696983
    12  O    3.298496   3.258202   4.977403   1.654209   2.685308
    13  O    4.712363   4.094567   7.063600   1.658978   2.805239
    14  H    5.498673   4.443641   7.707943   2.326932   3.224645
    15  H    2.357398   2.768438   4.234469   2.316987   3.577605
    16  H    6.035290   5.052776   7.003227   2.269184   0.966900
    17  H    5.378329   2.524099   5.530923   2.247443   2.682028
    18  H    3.465359   4.090089   3.628726   6.759038   8.233190
                   11         12         13         14         15
    11  O    0.000000
    12  O    2.760774   0.000000
    13  O    2.641813   2.713053   0.000000
    14  H    2.810414   3.651144   1.039736   0.000000
    15  H    2.952452   0.991217   3.171486   4.070002   0.000000
    16  H    3.499861   2.736933   3.382884   3.954457   3.700672
    17  H    0.966214   3.290678   3.422341   3.514935   3.563373
    18  H    6.095919   6.090640   7.112434   7.554971   5.135325
                   16         17         18
    16  H    0.000000
    17  H    3.480056   0.000000
    18  H    8.617502   6.611189   0.000000
 Stoichiometry    H8O8Si2
 Framework group  C1[X(H8O8Si2)]
 Deg. of freedom    48
 Full point group                 C1      NOp   1
 Largest Abelian subgroup         C1      NOp   1
 Largest concise Abelian subgroup C1      NOp   1
                         Standard orientation:                         
 ---------------------------------------------------------------------
 Center     Atomic      Atomic             Coordinates (Angstroms)
 Number     Number       Type             X           Y           Z
 ---------------------------------------------------------------------
      1         14           0       -2.392314   -0.020077    0.024655
      2          8           0       -3.289358    1.258747    0.544092
      3          8           0       -3.462646   -1.118546   -0.587185
      4          8           0       -1.444813   -0.788843    1.131506
      5          8           0       -1.289463    0.636040   -1.063606
      6          1           0       -1.544840    1.490155   -1.438708
      7          1           0       -0.519799   -0.504907    1.259148
      8          1           0       -3.139071   -2.018955   -0.725408
      9         14           0        2.394314    0.026858   -0.037334
     10          8           0        3.646011   -1.035081   -0.309265
     11          8           0        1.618019   -0.459517    1.372903
     12          8           0        1.381278   -0.029356   -1.343858
     13          8           0        2.850161    1.594364    0.258194
     14          1           0        3.278676    1.799813    1.182973
     15          1           0        0.424410    0.209041   -1.243450
     16          1           0        3.807944   -1.289768   -1.227855
     17          1           0        1.822982   -1.368203    1.629515
     18          1           0       -4.231820    1.125430    0.719028
 ---------------------------------------------------------------------
 Rotational constants (GHZ):           1.9426671           0.3765045           0.3722323
 Standard basis: 6-31+G(d,p) (6D, 7F)
 There are   238 symmetry adapted cartesian basis functions of A   symmetry.
 There are   238 symmetry adapted basis functions of A   symmetry.
   238 basis functions,   424 primitive gaussians,   238 cartesian basis functions
    50 alpha electrons       50 beta electrons
       nuclear repulsion energy       807.7880565417 Hartrees.
 NAtoms=   18 NActive=   18 NUniq=   18 SFac= 1.00D+00 NAtFMM=   60 NAOKFM=F Big=F
 Integral buffers will be    131072 words long.
 Raffenetti 2 integral format.
 Two-electron integral symmetry is turned on.
 Nuclear repulsion after empirical dispersion term =      807.7748036265 Hartrees.
 One-electron integrals computed using PRISM.
 NBasis=   238 RedAO= T EigKep=  2.81D-04  NBF=   238
 NBsUse=   238 1.00D-06 EigRej= -1.00D+00 NBFU=   238
 ExpMin= 3.31D-02 ExpMax= 1.61D+04 ExpMxC= 2.43D+03 IAcc=3 IRadAn=         5 AccDes= 0.00D+00
 Harris functional with IExCor=  402 and IRadAn=       5 diagonalized for initial guess.
 HarFok:  IExCor=  402 AccDes= 0.00D+00 IRadAn=         5 IDoV= 1 UseB2=F ITyADJ=14
 ICtDFT=  3500011 ScaDFX=  1.000000  1.000000  1.000000  1.000000
 FoFCou: FMM=F IPFlag=           0 FMFlag=      100000 FMFlg1=           0
         NFxFlg=           0 DoJE=T BraDBF=F KetDBF=T FulRan=T
         wScrn=  0.000000 ICntrl=       500 IOpCl=  0 I1Cent=   200000004 NGrid=           0
         NMat0=    1 NMatS0=      1 NMatT0=    0 NMatD0=    1 NMtDS0=    0 NMtDT0=    0
 Petite list used in FoFCou.
 Requested convergence on RMS density matrix=1.00D-08 within 128 cycles.
 Requested convergence on MAX density matrix=1.00D-06.
 Requested convergence on             energy=1.00D-06.
 No special actions if energy rises.
 SCF Done:  E(RB3LYP) =  -1186.05993363     A.U. after   12 cycles
            NFock= 12  Conv=0.27D-08     -V/T= 2.0070

 **********************************************************************

            Population analysis using the SCF Density.

 **********************************************************************

 Orbital symmetries:
       Occupied  (A) (A) (A) (A) (A) (A) (A) (A) (A) (A) (A) (A)
                 (A) (A) (A) (A) (A) (A) (A) (A) (A) (A) (A) (A)
                 (A) (A) (A) (A) (A) (A) (A) (A) (A) (A) (A) (A)
                 (A) (A) (A) (A) (A) (A) (A) (A) (A) (A) (A) (A)
                 (A) (A)
       Virtual   (A) (A) (A) (A) (A) (A) (A) (A) (A) (A) (A) (A)
                 (A) (A) (A) (A) (A) (A) (A) (A) (A) (A) (A) (A)
                 (A) (A) (A) (A) (A) (A) (A) (A) (A) (A) (A) (A)
                 (A) (A) (A) (A) (A) (A) (A) (A) (A) (A) (A) (A)
                 (A) (A) (A) (A) (A) (A) (A) (A) (A) (A) (A) (A)
                 (A) (A) (A) (A) (A) (A) (A) (A) (A) (A) (A) (A)
                 (A) (A) (A) (A) (A) (A) (A) (A) (A) (A) (A) (A)
                 (A) (A) (A) (A) (A) (A) (A) (A) (A) (A) (A) (A)
                 (A) (A) (A) (A) (A) (A) (A) (A) (A) (A) (A) (A)
                 (A) (A) (A) (A) (A) (A) (A) (A) (A) (A) (A) (A)
                 (A) (A) (A) (A) (A) (A) (A) (A) (A) (A) (A) (A)
                 (A) (A) (A) (A) (A) (A) (A) (A) (A) (A) (A) (A)
                 (A) (A) (A) (A) (A) (A) (A) (A) (A) (A) (A) (A)
                 (A) (A) (A) (A) (A) (A) (A) (A) (A) (A) (A) (A)
                 (A) (A) (A) (A) (A) (A) (A) (A) (A) (A) (A) (A)
                 (A) (A) (A) (A) (A) (A) (A) (A)
 The electronic state is 1-A.
 Alpha  occ. eigenvalues --  -66.23418 -66.22412 -19.18938 -19.17927 -19.17849
 Alpha  occ. eigenvalues --  -19.17712 -19.17148 -19.16867 -19.16435 -19.14987
 Alpha  occ. eigenvalues --   -5.36651  -5.35584  -3.72678  -3.72640  -3.72580
 Alpha  occ. eigenvalues --   -3.71635  -3.71578  -3.71492  -1.05450  -1.03884
 Alpha  occ. eigenvalues --   -1.02384  -1.01533  -1.00989  -1.00273  -0.99318
 Alpha  occ. eigenvalues --   -0.98341  -0.60631  -0.58856  -0.54847  -0.54344
 Alpha  occ. eigenvalues --   -0.53583  -0.53060  -0.52821  -0.50659  -0.42196
 Alpha  occ. eigenvalues --   -0.40541  -0.40128  -0.39664  -0.38987  -0.38498
 Alpha  occ. eigenvalues --   -0.38077  -0.36933  -0.36498  -0.35929  -0.35347
 Alpha  occ. eigenvalues --   -0.34571  -0.33668  -0.32968  -0.32244  -0.31646
 Alpha virt. eigenvalues --   -0.03427  -0.01761   0.00836   0.01288   0.01849
 Alpha virt. eigenvalues --    0.02440   0.04421   0.06505   0.09563   0.10173
 Alpha virt. eigenvalues --    0.10518   0.11022   0.11689   0.12157   0.13028
 Alpha virt. eigenvalues --    0.13695   0.14270   0.14457   0.14889   0.14940
 Alpha virt. eigenvalues --    0.15787   0.15961   0.16128   0.16983   0.17644
 Alpha virt. eigenvalues --    0.18577   0.18924   0.19700   0.19761   0.20993
 Alpha virt. eigenvalues --    0.21219   0.21753   0.22624   0.23031   0.24546
 Alpha virt. eigenvalues --    0.25066   0.25576   0.25680   0.26687   0.26974
 Alpha virt. eigenvalues --    0.27735   0.29007   0.29470   0.30090   0.30636
 Alpha virt. eigenvalues --    0.32233   0.32949   0.34395   0.35112   0.36710
 Alpha virt. eigenvalues --    0.37362   0.38311   0.39729   0.41367   0.42223
 Alpha virt. eigenvalues --    0.42957   0.44082   0.46217   0.47139   0.47402
 Alpha virt. eigenvalues --    0.49674   0.52901   0.59115   0.61713   0.63579
 Alpha virt. eigenvalues --    0.64956   0.67143   0.71614   0.91436   0.93137
 Alpha virt. eigenvalues --    0.93542   0.94254   0.94754   0.95517   0.96471
 Alpha virt. eigenvalues --    0.98734   0.99891   1.00656   1.02528   1.03683
 Alpha virt. eigenvalues --    1.06709   1.14566   1.15651   1.16221   1.17087
 Alpha virt. eigenvalues --    1.17871   1.18287   1.18542   1.19067   1.20445
 Alpha virt. eigenvalues --    1.21116   1.21678   1.22527   1.23065   1.24431
 Alpha virt. eigenvalues --    1.24944   1.25839   1.27093   1.28664   1.29210
 Alpha virt. eigenvalues --    1.30059   1.31423   1.33315   1.34574   1.35829
 Alpha virt. eigenvalues --    1.38075   1.46695   1.47868   1.50253   1.52443
 Alpha virt. eigenvalues --    1.53618   1.56793   1.58303   1.58979   1.59724
 Alpha virt. eigenvalues --    1.61088   1.61961   1.63278   1.64974   1.66607
 Alpha virt. eigenvalues --    1.69496   1.70508   1.72252   1.72491   1.73638
 Alpha virt. eigenvalues --    1.75710   1.79022   1.79489   1.83856   1.86671
 Alpha virt. eigenvalues --    1.90658   1.91326   1.93848   1.97042   2.02410
 Alpha virt. eigenvalues --    2.03356   2.09342   2.11135   2.26858   2.33873
 Alpha virt. eigenvalues --    2.36138   2.36789   2.37472   2.38378   2.39284
 Alpha virt. eigenvalues --    2.43548   2.44826   2.52056   2.54178   2.55788
 Alpha virt. eigenvalues --    2.56574   2.57565   2.59547   2.59838   2.61015
 Alpha virt. eigenvalues --    2.62018   2.62363   2.62894   2.63741   2.65096
 Alpha virt. eigenvalues --    2.66817   2.67137   2.68324   2.71552   2.74758
 Alpha virt. eigenvalues --    2.77465   2.78917   2.81393   2.82487   2.83343
 Alpha virt. eigenvalues --    3.00237   3.01375   3.32919   3.39952   3.42415
 Alpha virt. eigenvalues --    3.42903   3.43261   3.45440   3.56606   3.61784
 Alpha virt. eigenvalues --    4.10619   4.13299   4.17075   4.20466   4.22112
 Alpha virt. eigenvalues --    4.24749   4.31597   4.33509
          Condensed to atoms (all electrons):
               1          2          3          4          5          6
     1  Si  11.746603   0.018117   0.087174   0.097573  -0.124459   0.022337
     2  O    0.018117   8.533414   0.030984  -0.003947   0.088672   0.002474
     3  O    0.087174   0.030984   8.452465   0.015869   0.028576  -0.004185
     4  O    0.097573  -0.003947   0.015869   8.489030   0.058317   0.005037
     5  O   -0.124459   0.088672   0.028576   0.058317   8.750462   0.238225
     6  H    0.022337   0.002474  -0.004185   0.005037   0.238225   0.331551
     7  H    0.010702  -0.004646   0.004851   0.244356   0.000457   0.000058
     8  H    0.023882   0.007646   0.245292  -0.002202  -0.005941   0.000033
     9  Si  -0.002999  -0.000927  -0.000435  -0.014447  -0.001384  -0.000661
    10  O   -0.000065   0.000008  -0.000017  -0.000096  -0.000699  -0.000007
    11  O   -0.003948  -0.000419   0.000119   0.005186  -0.000995   0.000138
    12  O   -0.028635  -0.000062  -0.000181   0.014081   0.000659   0.001614
    13  O    0.000197  -0.000028  -0.000004  -0.000907   0.000446   0.000051
    14  H   -0.000264  -0.000000   0.000000   0.000022   0.000050  -0.000000
    15  H    0.008654  -0.000011   0.000243  -0.002715   0.002238   0.000294
    16  H    0.000078  -0.000000  -0.000000   0.000011   0.000042  -0.000000
    17  H   -0.000212  -0.000005   0.000004   0.000124   0.000041  -0.000000
    18  H    0.026821   0.239460  -0.000352  -0.003471   0.001782   0.000073
               7          8          9         10         11         12
     1  Si   0.010702   0.023882  -0.002999  -0.000065  -0.003948  -0.028635
     2  O   -0.004646   0.007646  -0.000927   0.000008  -0.000419  -0.000062
     3  O    0.004851   0.245292  -0.000435  -0.000017   0.000119  -0.000181
     4  O    0.244356  -0.002202  -0.014447  -0.000096   0.005186   0.014081
     5  O    0.000457  -0.005941  -0.001384  -0.000699  -0.000995   0.000659
     6  H    0.000058   0.000033  -0.000661  -0.000007   0.000138   0.001614
     7  H    0.308459   0.000047   0.006962  -0.000047   0.004972  -0.001077
     8  H    0.000047   0.357212  -0.000118   0.000000   0.000021  -0.000024
     9  Si   0.006962  -0.000118  11.653625   0.014977  -0.036079   0.165653
    10  O   -0.000047   0.000000   0.014977   8.553910   0.078032   0.042060
    11  O    0.004972   0.000021  -0.036079   0.078032   8.640015   0.015502
    12  O   -0.001077  -0.000024   0.165653   0.042060   0.015502   8.489868
    13  O   -0.001038  -0.000000   0.059421  -0.037643   0.058246   0.023395
    14  H    0.000005   0.000000   0.046906  -0.005066  -0.009819   0.005263
    15  H   -0.000225   0.000019   0.008541   0.005376  -0.002159   0.243437
    16  H   -0.000001  -0.000000   0.019413   0.249236   0.001510   0.000959
    17  H   -0.001365  -0.000000   0.026530   0.001589   0.242660  -0.005230
    18  H    0.000014   0.000042   0.000050   0.000000  -0.000007  -0.000002
              13         14         15         16         17         18
     1  Si   0.000197  -0.000264   0.008654   0.000078  -0.000212   0.026821
     2  O   -0.000028  -0.000000  -0.000011  -0.000000  -0.000005   0.239460
     3  O   -0.000004   0.000000   0.000243  -0.000000   0.000004  -0.000352
     4  O   -0.000907   0.000022  -0.002715   0.000011   0.000124  -0.003471
     5  O    0.000446   0.000050   0.002238   0.000042   0.000041   0.001782
     6  H    0.000051  -0.000000   0.000294  -0.000000  -0.000000   0.000073
     7  H   -0.001038   0.000005  -0.000225  -0.000001  -0.001365   0.000014
     8  H   -0.000000   0.000000   0.000019  -0.000000  -0.000000   0.000042
     9  Si   0.059421   0.046906   0.008541   0.019413   0.026530   0.000050
    10  O   -0.037643  -0.005066   0.005376   0.249236   0.001589   0.000000
    11  O    0.058246  -0.009819  -0.002159   0.001510   0.242660  -0.000007
    12  O    0.023395   0.005263   0.243437   0.000959  -0.005230  -0.000002
    13  O    8.471398   0.214291  -0.003883  -0.001386   0.000901  -0.000000
    14  H    0.214291   0.386138   0.000002   0.000014   0.000175   0.000000
    15  H   -0.003883   0.000002   0.274771   0.000007  -0.000000  -0.000002
    16  H   -0.001386   0.000014   0.000007   0.349207   0.000074   0.000000
    17  H    0.000901   0.000175  -0.000000   0.000074   0.351155   0.000000
    18  H   -0.000000   0.000000  -0.000002   0.000000   0.000000   0.350971
 Mulliken charges:
               1
     1  Si   2.118445
     2  O   -0.910731
     3  O   -0.860404
     4  O   -0.901822
     5  O   -1.036491
     6  H    0.402968
     7  H    0.427516
     8  H    0.374092
     9  Si   2.054974
    10  O   -0.901549
    11  O   -0.992973
    12  O   -0.967280
    13  O   -0.783458
    14  H    0.362284
    15  H    0.465411
    16  H    0.380836
    17  H    0.383560
    18  H    0.384622
 Sum of Mulliken charges =  -0.00000
 Mulliken charges with hydrogens summed into heavy atoms:
               1
     1  Si   2.118445
     2  O   -0.526110
     3  O   -0.486312
     4  O   -0.474306
     5  O   -0.633522
     9  Si   2.054974
    10  O   -0.520713
    11  O   -0.609413
    12  O   -0.501869
    13  O   -0.421175
 Electronic spatial extent (au):  <R**2>=           2947.1673
 Charge=             -0.0000 electrons
 Dipole moment (field-independent basis, Debye):
    X=             -0.7971    Y=             -0.9441    Z=              0.1135  Tot=              1.2408
 Quadrupole moment (field-independent basis, Debye-Ang):
   XX=            -65.3054   YY=            -67.5630   ZZ=            -71.1710
   XY=             -3.1319   XZ=              3.4951   YZ=              1.8170
 Traceless Quadrupole moment (field-independent basis, Debye-Ang):
   XX=              2.7078   YY=              0.4501   ZZ=             -3.1579
   XY=             -3.1319   XZ=              3.4951   YZ=              1.8170
 Octapole moment (field-independent basis, Debye-Ang**2):
  XXX=            -27.8237  YYY=            -18.1295  ZZZ=              0.6740  XYY=             -6.7807
  XXY=              9.4649  XXZ=             10.8756  XZZ=             15.7618  YZZ=              2.2936
  YYZ=             -4.6022  XYZ=             13.0331
 Hexadecapole moment (field-independent basis, Debye-Ang**3):
 XXXX=          -2652.2069 YYYY=           -354.7096 ZZZZ=           -358.2820 XXXY=            -56.4768
 XXXZ=           -102.5843 YYYX=             25.1151 YYYZ=              9.6632 ZZZX=             15.8265
 ZZZY=             -2.6891 XXYY=           -496.4720 XXZZ=           -460.7379 YYZZ=            -91.5701
 XXYZ=             71.5342 YYXZ=             45.1577 ZZXY=            -18.4861
 N-N= 8.077748036265D+02 E-N=-4.425175937233D+03  KE= 1.177838780013D+03
 Calling FoFJK, ICntrl=      2127 FMM=F ISym2X=0 I1Cent= 0 IOpClX= 0 NMat=1 NMatS=1 NMatT=0.
 ***** Axes restored to original set *****
 -------------------------------------------------------------------
 Center     Atomic                   Forces (Hartrees/Bohr)
 Number     Number              X              Y              Z
 -------------------------------------------------------------------
      1       14           0.010092701    0.002352234   -0.003688983
      2        8          -0.003386035   -0.000221177    0.000073706
      3        8           0.003334959   -0.000733069    0.001021139
      4        8          -0.000728738   -0.002053931    0.002671516
      5        8          -0.006397363   -0.000285071   -0.001764688
      6        1           0.000502882    0.001594269    0.000561726
      7        1          -0.002991954    0.000649387    0.000271007
      8        1          -0.000718907   -0.002441555   -0.001073952
      9       14          -0.011083599   -0.002150209    0.004302745
     10        8          -0.004652882   -0.005206434   -0.000450725
     11        8           0.001760930    0.003201039    0.003183887
     12        8           0.001852424   -0.001995805   -0.010268600
     13        8           0.024080654   -0.008219701   -0.046609352
     14        1          -0.025243213    0.014682115    0.053145015
     15        1           0.011253542    0.000771122    0.001170415
     16        1          -0.001315672   -0.001239349   -0.002575946
     17        1          -0.001196691    0.000211609   -0.000522672
     18        1           0.004836963    0.001084526    0.000553764
 -------------------------------------------------------------------
 Cartesian Forces:  Max     0.053145015 RMS     0.011558945

 GradGradGradGradGradGradGradGradGradGradGradGradGradGradGradGradGradGrad
 Berny optimization.
 FormGI is forming the generalized inverse of G from B-inverse, IUseBI=4.
 Internal  Forces:  Max     0.060574681 RMS     0.007868405
 Search for a local minimum.
 Step number   1 out of a maximum of   81
 All quantities printed in internal units (Hartrees-Bohrs-Radians)
 Mixed Optimization -- RFO/linear search
 Second derivative matrix not updated -- first step.
 ITU=  0
     Eigenvalues ---    0.00260   0.01105   0.02719   0.03247   0.03259
     Eigenvalues ---    0.03495   0.03559   0.03622   0.03661   0.03712
     Eigenvalues ---    0.03728   0.04598   0.08145   0.10147   0.11095
     Eigenvalues ---    0.11260   0.11581   0.12312   0.12639   0.15732
     Eigenvalues ---    0.16000   0.16000   0.16000   0.16000   0.16000
     Eigenvalues ---    0.16000   0.16000   0.19141   0.20224   0.20956
     Eigenvalues ---    0.21122   0.37074   0.38192   0.40618   0.41318
     Eigenvalues ---    0.41328   0.41333   0.42462   0.43048   0.43234
     Eigenvalues ---    0.47509   0.52171   0.53832   0.53958   0.54015
     Eigenvalues ---    0.54053   0.541581000.000001000.000001000.00000
     Eigenvalues --- 1000.000001000.000001000.000001000.000001000.00000
     Eigenvalues --- 1000.000001000.000001000.000001000.000001000.00000
     Eigenvalues --- 1000.000001000.000001000.000001000.000001000.00000
     Eigenvalues --- 1000.000001000.000001000.000001000.000001000.00000
     Eigenvalues --- 1000.00000
 RFO step:  Lambda=-1.09224970D-02 EMin= 2.60355325D-03
 Linear search not attempted -- first point.
 Iteration  1 RMS(Cart)=  0.03401474 RMS(Int)=  0.00030771
 Iteration  2 RMS(Cart)=  0.00045088 RMS(Int)=  0.00002319
 Iteration  3 RMS(Cart)=  0.00000033 RMS(Int)=  0.00002319
 Iteration  1 RMS(Cart)=  0.00000217 RMS(Int)=  0.00000019
 Iteration  2 RMS(Cart)=  0.00000012 RMS(Int)=  0.00000019
 Variable       Old X    -DE/DX   Delta X   Delta X   Delta X     New X
                                 (Linear)    (Quad)   (Total)
    R1        3.11082  -0.00166   0.00000  -0.00374  -0.00374   3.10708
    R2        3.12039  -0.00383   0.00000  -0.00879  -0.00879   3.11160
    R3        3.11311  -0.00477   0.00000  -0.01081  -0.01081   3.10230
    R4        3.17962  -0.00100   0.00000  -0.00266  -0.00265   3.17697
    R5        9.04661  -0.00938   0.00000   0.00000  -0.00000   9.04661
    R6        1.82885  -0.00466   0.00000  -0.00849  -0.00849   1.82036
    R7        1.82683  -0.00267   0.00000  -0.00484  -0.00484   1.82199
    R8        1.84436  -0.00306   0.00000  -0.00574  -0.00574   1.83862
    R9        1.82770  -0.00132   0.00000  -0.00240  -0.00240   1.82530
   R10        3.35501   0.00481   0.00000   0.06337   0.06337   3.41839
   R11        3.14423  -0.00910   0.00000  -0.02181  -0.02181   3.12241
   R12        3.17787  -0.00151   0.00000  -0.00383  -0.00383   3.17404
   R13        3.12600  -0.01348   0.00000  -0.03134  -0.03134   3.09466
   R14        3.13501  -0.00759   0.00000  -0.01789  -0.01789   3.11712
   R15        1.82718  -0.00299   0.00000  -0.00543  -0.00543   1.82174
   R16        1.82588   0.00008   0.00000   0.00015   0.00015   1.82603
   R17        1.87313  -0.00636   0.00000  -0.01275  -0.01274   1.86039
   R18        1.96482  -0.06057   0.00000  -0.14278  -0.14278   1.82204
    A1        1.85510   0.00047   0.00000  -0.00044  -0.00046   1.85464
    A2        2.05322  -0.00047   0.00000   0.00024   0.00021   2.05344
    A3        1.83209   0.00021   0.00000   0.00160   0.00156   1.83365
    A4        1.88739  -0.00010   0.00000  -0.00062  -0.00059   1.88680
    A5        2.03154  -0.00229   0.00000  -0.01314  -0.01313   2.01841
    A6        1.81270   0.00198   0.00000   0.01153   0.01153   1.82423
    A7        2.07224  -0.00295   0.00000  -0.01724  -0.01724   2.05500
    A8        2.04387  -0.00070   0.00000  -0.00409  -0.00409   2.03978
    A9        2.09119  -0.00017   0.00000  -0.00098  -0.00098   2.09021
   A10        2.00660  -0.00072   0.00000  -0.00276  -0.00282   2.00378
   A11        2.21990   0.00287   0.00000   0.01720   0.01717   2.23706
   A12        2.01308  -0.00190   0.00000  -0.01005  -0.01010   2.00298
   A13        1.87521  -0.00209   0.00000  -0.00841  -0.00838   1.86684
   A14        1.88591   0.00259   0.00000   0.00653   0.00645   1.89237
   A15        2.01026  -0.00224   0.00000  -0.01122  -0.01123   1.99903
   A16        1.94961  -0.00178   0.00000  -0.00732  -0.00730   1.94231
   A17        1.82423   0.00573   0.00000   0.03135   0.03139   1.85562
   A18        1.91886  -0.00231   0.00000  -0.01095  -0.01096   1.90790
   A19        2.03686  -0.00175   0.00000  -0.01025  -0.01025   2.02662
   A20        1.97882   0.00203   0.00000   0.01186   0.01186   1.99068
   A21        2.09786  -0.00210   0.00000  -0.01313  -0.01312   2.08474
   A22        2.04698  -0.00555   0.00000  -0.03245  -0.03245   2.01453
   A23        3.14159  -0.00035   0.00000  -0.01863  -0.01862   3.12297
   A24        3.14159  -0.00026   0.00000  -0.01381  -0.01381   3.12779
    D1        0.34977   0.00115   0.00000   0.01284   0.01285   0.36262
    D2       -1.76690   0.00121   0.00000   0.01384   0.01384  -1.75307
    D3        2.51209  -0.00116   0.00000  -0.00182  -0.00183   2.51027
    D4       -2.87069   0.00020   0.00000   0.00508   0.00510  -2.86559
    D5       -0.65095  -0.00013   0.00000   0.00472   0.00471  -0.64624
    D6        1.37995   0.00092   0.00000   0.01092   0.01091   1.39086
    D7       -1.59489  -0.00025   0.00000  -0.00065  -0.00066  -1.59555
    D8        2.58840  -0.00047   0.00000   0.00027   0.00027   2.58868
    D9        0.41992   0.00115   0.00000   0.00951   0.00951   0.42943
   D10       -0.36970  -0.00015   0.00000  -0.00862  -0.00861  -0.37831
   D11        2.44175   0.00033   0.00000   0.00517   0.00518   2.44693
   D12        1.67558  -0.00069   0.00000  -0.01536  -0.01533   1.66024
   D13       -1.79616  -0.00021   0.00000  -0.00157  -0.00154  -1.79770
   D14       -2.53562  -0.00069   0.00000  -0.01531  -0.01535  -2.55097
   D15        0.27583  -0.00021   0.00000  -0.00152  -0.00155   0.27428
   D16       -0.95047  -0.00017   0.00000   0.00704   0.00702  -0.94344
   D17        1.85994   0.00053   0.00000   0.02309   0.02311   1.88305
   D18        2.46240  -0.00217   0.00000  -0.01391  -0.01391   2.44850
   D19        0.35627  -0.00031   0.00000  -0.00407  -0.00407   0.35220
   D20       -1.79648   0.00226   0.00000   0.01302   0.01302  -1.78346
   D21       -0.30474  -0.00087   0.00000  -0.00883  -0.00885  -0.31359
   D22        1.76068  -0.00004   0.00000  -0.01029  -0.01027   1.75041
   D23       -2.44841  -0.00029   0.00000  -0.00841  -0.00841  -2.45682
   D24        2.69288   0.00038   0.00000   0.00598   0.00598   2.69886
   D25        0.63385   0.00236   0.00000   0.01645   0.01645   0.65030
   D26       -1.38310  -0.00220   0.00000  -0.01100  -0.01100  -1.39410
   D27       -1.27612  -0.00002   0.00000  -0.00429  -0.00421  -1.28033
   D28        0.77707   0.00001   0.00000   0.00022   0.00021   0.77728
   D29        2.87188  -0.00000   0.00000   0.00384   0.00377   2.87565
         Item               Value     Threshold  Converged?
 Maximum Force            0.060575     0.000450     NO 
 RMS     Force            0.007840     0.000300     NO 
 Maximum Displacement     0.151927     0.001800     NO 
 RMS     Displacement     0.033998     0.001200     NO 
 Predicted change in Energy=-5.647099D-03
 GradGradGradGradGradGradGradGradGradGradGradGradGradGradGradGradGradGrad

                          Input orientation:                          
 ---------------------------------------------------------------------
 Center     Atomic      Atomic             Coordinates (Angstroms)
 Number     Number       Type             X           Y           Z
 ---------------------------------------------------------------------
      1         14           0       -2.389068    0.016564   -0.039223
      2          8           0       -3.291900   -1.258048   -0.552678
      3          8           0       -3.448313    1.106438    0.594364
      4          8           0       -1.463538    0.791927   -1.151548
      5          8           0       -1.284235   -0.639282    1.045012
      6          1           0       -1.545644   -1.487070    1.426972
      7          1           0       -0.543174    0.510661   -1.294582
      8          1           0       -3.122400    2.003967    0.727860
      9         14           0        2.397324   -0.032681    0.037414
     10          8           0        3.647800    1.019327    0.281780
     11          8           0        1.595722    0.472664   -1.349383
     12          8           0        1.413386    0.020123    1.345426
     13          8           0        2.858113   -1.592736   -0.236045
     14          1           0        3.244509   -1.764389   -1.102576
     15          1           0        0.464700   -0.224043    1.247593
     16          1           0        3.817818    1.271240    1.196645
     17          1           0        1.787393    1.384625   -1.604948
     18          1           0       -4.228823   -1.106483   -0.717426
 ---------------------------------------------------------------------
                    Distance matrix (angstroms):
                    1          2          3          4          5
     1  Si   0.000000
     2  O    1.644194   0.000000
     3  O    1.646590   2.632672   0.000000
     4  O    1.641664   2.811397   2.662040   0.000000
     5  O    1.681178   2.639357   2.816710   2.627810   0.000000
     6  H    2.263186   2.649693   3.322600   3.442286   0.965905
     7  H    2.286347   3.351752   3.516091   0.972953   2.710210
     8  H    2.252990   3.508454   0.964157   2.784428   3.235152
     9  Si   4.787259   5.849530   5.981577   4.123089   3.864854
    10  O    6.127998   7.351339   7.103529   5.313371   5.259133
    11  O    4.219372   5.245850   5.442620   3.082229   3.906879
    12  O    4.046718   5.232230   5.037886   3.886804   2.793245
    13  O    5.491948   6.167246   6.909857   5.020102   4.439507
    14  H    6.003308   6.579012   7.477641   5.357504   5.136878
    15  H    3.139710   4.292107   4.184323   3.241322   1.808932
    16  H    6.451901   7.746323   7.292912   5.799696   5.450141
    17  H    4.665396   5.821530   5.685682   3.335478   4.533585
    18  H    2.259622   0.963296   2.688310   3.382192   3.463389
                    6          7          8          9         10
     6  H    0.000000
     7  H    3.521751   0.000000
     8  H    3.893875   3.601755   0.000000
     9  Si   4.426411   3.273525   5.923851   0.000000
    10  O    5.879231   4.506431   6.855955   1.652309   0.000000
    11  O    4.627838   2.139935   5.377779   1.679627   2.677790
    12  O    3.321767   3.322408   4.989026   1.637625   2.668775
    13  O    4.708489   4.136850   7.044993   1.649508   2.777521
    14  H    5.424120   4.422585   7.621583   2.239668   3.134990
    15  H    2.380944   2.831652   4.254579   2.288272   3.551182
    16  H    6.035566   5.079660   6.994518   2.249851   0.964025
    17  H    5.343062   2.508323   5.470982   2.253470   2.674753
    18  H    3.455827   4.065989   3.603876   6.754899   8.219408
                   11         12         13         14         15
    11  O    0.000000
    12  O    2.738619   0.000000
    13  O    2.664401   2.681343   0.000000
    14  H    2.789949   3.539803   0.964180   0.000000
    15  H    2.917001   0.984476   3.130963   3.952631   0.000000
    16  H    3.472419   2.714539   3.343052   3.850992   3.671767
    17  H    0.966294   3.272072   3.447465   3.505974   3.531901
    18  H    6.067816   6.112210   7.119889   7.512114   5.164218
                   16         17         18
    16  H    0.000000
    17  H    3.461850   0.000000
    18  H    8.606141   6.571771   0.000000
 Stoichiometry    H8O8Si2
 Framework group  C1[X(H8O8Si2)]
 Deg. of freedom    48
 Full point group                 C1      NOp   1
 Largest Abelian subgroup         C1      NOp   1
 Largest concise Abelian subgroup C1      NOp   1
                         Standard orientation:                         
 ---------------------------------------------------------------------
 Center     Atomic      Atomic             Coordinates (Angstroms)
 Number     Number       Type             X           Y           Z
 ---------------------------------------------------------------------
      1         14           0       -2.391261   -0.021068    0.024465
      2          8           0       -3.295606    1.193238    0.665554
      3          8           0       -3.448433   -1.037472   -0.724244
      4          8           0       -1.470397   -0.909779    1.052699
      5          8           0       -1.281931    0.744220   -0.980563
      6          1           0       -1.541514    1.627665   -1.272307
      7          1           0       -0.550493   -0.645836    1.228053
      8          1           0       -3.122346   -1.916259   -0.950075
      9         14           0        2.395414    0.032151   -0.028103
     10          8           0        3.646433   -0.989343   -0.376857
     11          8           0        1.588186   -0.615511    1.294797
     12          8           0        1.416592    0.117895   -1.338206
     13          8           0        2.855729    1.554458    0.409585
     14          1           0        3.238790    1.633779    1.290842
     15          1           0        0.467624    0.351181   -1.218914
     16          1           0        3.819940   -1.143842   -1.312469
     17          1           0        1.778502   -1.549434    1.453835
     18          1           0       -4.233226    1.025943    0.809843
 ---------------------------------------------------------------------
 Rotational constants (GHZ):           1.9595324           0.3768940           0.3723450
 Standard basis: 6-31+G(d,p) (6D, 7F)
 There are   238 symmetry adapted cartesian basis functions of A   symmetry.
 There are   238 symmetry adapted basis functions of A   symmetry.
   238 basis functions,   424 primitive gaussians,   238 cartesian basis functions
    50 alpha electrons       50 beta electrons
       nuclear repulsion energy       810.1109982181 Hartrees.
 NAtoms=   18 NActive=   18 NUniq=   18 SFac= 1.00D+00 NAtFMM=   60 NAOKFM=F Big=F
 Integral buffers will be    131072 words long.
 Raffenetti 2 integral format.
 Two-electron integral symmetry is turned on.
 Nuclear repulsion after empirical dispersion term =      810.0976667942 Hartrees.
 One-electron integrals computed using PRISM.
 NBasis=   238 RedAO= T EigKep=  2.70D-04  NBF=   238
 NBsUse=   238 1.00D-06 EigRej= -1.00D+00 NBFU=   238
 Initial guess from the checkpoint file:  "/localscratch/sarashs.37145439.0/Gau-6118.chk"
 B after Tr=    -0.000000   -0.000000    0.000000
         Rot=    0.998597   -0.052914    0.001869    0.000310 Ang=  -6.07 deg.
 ExpMin= 3.31D-02 ExpMax= 1.61D+04 ExpMxC= 2.43D+03 IAcc=3 IRadAn=         5 AccDes= 0.00D+00
 Harris functional with IExCor=  402 and IRadAn=       5 diagonalized for initial guess.
 HarFok:  IExCor=  402 AccDes= 0.00D+00 IRadAn=         5 IDoV= 1 UseB2=F ITyADJ=14
 ICtDFT=  3500011 ScaDFX=  1.000000  1.000000  1.000000  1.000000
 FoFCou: FMM=F IPFlag=           0 FMFlag=      100000 FMFlg1=           0
         NFxFlg=           0 DoJE=T BraDBF=F KetDBF=T FulRan=T
         wScrn=  0.000000 ICntrl=       500 IOpCl=  0 I1Cent=   200000004 NGrid=           0
         NMat0=    1 NMatS0=      1 NMatT0=    0 NMatD0=    1 NMtDS0=    0 NMtDT0=    0
 Petite list used in FoFCou.
 Requested convergence on RMS density matrix=1.00D-08 within 128 cycles.
 Requested convergence on MAX density matrix=1.00D-06.
 Requested convergence on             energy=1.00D-06.
 No special actions if energy rises.
 SCF Done:  E(RB3LYP) =  -1186.06600522     A.U. after   10 cycles
            NFock= 10  Conv=0.60D-08     -V/T= 2.0068
 Calling FoFJK, ICntrl=      2127 FMM=F ISym2X=0 I1Cent= 0 IOpClX= 0 NMat=1 NMatS=1 NMatT=0.
 ***** Axes restored to original set *****
 -------------------------------------------------------------------
 Center     Atomic                   Forces (Hartrees/Bohr)
 Number     Number              X              Y              Z
 -------------------------------------------------------------------
      1       14           0.010172378    0.000282654   -0.000865940
      2        8          -0.000029911   -0.001436747    0.000256340
      3        8           0.000430489   -0.000549720    0.001255505
      4        8          -0.000681705   -0.000342939    0.000907598
      5        8          -0.004321653    0.000405367   -0.002485659
      6        1           0.000205377    0.000511787    0.000932832
      7        1          -0.000144944   -0.000077654    0.000335892
      8        1          -0.000266206    0.000075738   -0.000547768
      9       14          -0.011417348    0.000387338    0.001655746
     10        8          -0.000207326   -0.001295334   -0.000942602
     11        8           0.001220371    0.000693801    0.000711472
     12        8          -0.001471254   -0.000711173   -0.001955865
     13        8           0.000384890    0.002356840   -0.000421499
     14        1           0.000379566   -0.001181934    0.000038173
     15        1           0.006012435    0.000448295    0.001498607
     16        1           0.000086844    0.000028338    0.000024824
     17        1          -0.000316428   -0.000493828    0.000132165
     18        1          -0.000035575    0.000899173   -0.000529821
 -------------------------------------------------------------------
 Cartesian Forces:  Max     0.011417348 RMS     0.002468046

 GradGradGradGradGradGradGradGradGradGradGradGradGradGradGradGradGradGrad
 Berny optimization.
 Using GEDIIS/GDIIS optimizer.
 FormGI is forming the generalized inverse of G from B-inverse, IUseBI=4.
 Internal  Forces:  Max     0.008477618 RMS     0.001324658
 Search for a local minimum.
 Step number   2 out of a maximum of   81
 All quantities printed in internal units (Hartrees-Bohrs-Radians)
 Mixed Optimization -- En-DIIS/RFO-DIIS
 Update second derivatives using D2CorX and points    1    2
 DE= -6.07D-03 DEPred=-5.65D-03 R= 1.08D+00
 TightC=F SS=  1.41D+00  RLast= 1.84D-01 DXNew= 5.0454D-01 5.5350D-01
 Trust test= 1.08D+00 RLast= 1.84D-01 DXMaxT set to 5.05D-01
 ITU=  1  0
 Use linear search instead of GDIIS.
     Eigenvalues ---    0.00262   0.01106   0.02702   0.03239   0.03260
     Eigenvalues ---    0.03495   0.03559   0.03620   0.03657   0.03713
     Eigenvalues ---    0.03723   0.04523   0.08056   0.10255   0.10970
     Eigenvalues ---    0.11423   0.11620   0.12349   0.12482   0.15727
     Eigenvalues ---    0.15862   0.16000   0.16000   0.16000   0.16000
     Eigenvalues ---    0.16000   0.16246   0.19164   0.20229   0.20895
     Eigenvalues ---    0.20975   0.36784   0.38116   0.40367   0.40985
     Eigenvalues ---    0.41327   0.42458   0.42683   0.43199   0.44314
     Eigenvalues ---    0.47730   0.52167   0.53873   0.53956   0.54024
     Eigenvalues ---    0.54052   0.541841000.000001000.000001000.00000
     Eigenvalues --- 1000.000001000.000001000.000001000.000001000.00000
     Eigenvalues --- 1000.000001000.000001000.000001000.000001000.00000
     Eigenvalues --- 1000.000001000.000001000.000001000.000001000.00000
     Eigenvalues --- 1000.000001000.000001000.000001000.000001000.00000
     Eigenvalues --- 1000.00000
 RFO step:  Lambda=-4.64018350D-04 EMin= 2.62095323D-03
 Quartic linear search produced a step of  0.03357.
 Iteration  1 RMS(Cart)=  0.07224974 RMS(Int)=  0.00116645
 Iteration  2 RMS(Cart)=  0.00197909 RMS(Int)=  0.00009535
 Iteration  3 RMS(Cart)=  0.00000130 RMS(Int)=  0.00009534
 Iteration  4 RMS(Cart)=  0.00000000 RMS(Int)=  0.00009534
 Iteration  1 RMS(Cart)=  0.00006100 RMS(Int)=  0.00000515
 Iteration  2 RMS(Cart)=  0.00000331 RMS(Int)=  0.00000528
 Iteration  3 RMS(Cart)=  0.00000018 RMS(Int)=  0.00000530
 Variable       Old X    -DE/DX   Delta X   Delta X   Delta X     New X
                                 (Linear)    (Quad)   (Total)
    R1        3.10708   0.00054  -0.00013   0.00129   0.00117   3.10824
    R2        3.11160  -0.00015  -0.00029  -0.00034  -0.00063   3.11097
    R3        3.10230  -0.00151  -0.00036  -0.00359  -0.00395   3.09834
    R4        3.17697  -0.00149  -0.00009  -0.00267  -0.00289   3.17408
    R5        9.04661  -0.00848  -0.00000   0.00000   0.00000   9.04661
    R6        1.82036   0.00027  -0.00028   0.00052   0.00024   1.82060
    R7        1.82199  -0.00010  -0.00016  -0.00018  -0.00034   1.82165
    R8        1.83862  -0.00016  -0.00019  -0.00032  -0.00051   1.83811
    R9        1.82530  -0.00014  -0.00008  -0.00026  -0.00034   1.82496
   R10        3.41839   0.00317   0.00213   0.05981   0.06174   3.48013
   R11        3.12241  -0.00103  -0.00073  -0.00257  -0.00330   3.11911
   R12        3.17404  -0.00107  -0.00013  -0.00287  -0.00300   3.17103
   R13        3.09466  -0.00192  -0.00105  -0.00356  -0.00472   3.08994
   R14        3.11712  -0.00083  -0.00060  -0.00204  -0.00264   3.11448
   R15        1.82174   0.00005  -0.00018   0.00009  -0.00009   1.82166
   R16        1.82603  -0.00056   0.00001  -0.00107  -0.00107   1.82496
   R17        1.86039  -0.00290  -0.00043  -0.00455  -0.00517   1.85522
   R18        1.82204   0.00033  -0.00479   0.00120  -0.00360   1.81844
    A1        1.85464  -0.00007  -0.00002   0.00009   0.00008   1.85472
    A2        2.05344  -0.00002   0.00001   0.00085   0.00086   2.05429
    A3        1.83365   0.00053   0.00005   0.00278   0.00283   1.83648
    A4        1.88680   0.00041  -0.00002   0.00182   0.00179   1.88860
    A5        2.01841  -0.00064  -0.00044  -0.00412  -0.00456   2.01384
    A6        1.82423  -0.00026   0.00039  -0.00173  -0.00134   1.82288
    A7        2.05500  -0.00131  -0.00058  -0.00819  -0.00877   2.04623
    A8        2.03978   0.00011  -0.00014   0.00076   0.00062   2.04041
    A9        2.09021  -0.00057  -0.00003  -0.00360  -0.00363   2.08658
   A10        2.00378   0.00040  -0.00009  -0.00008  -0.00006   2.00372
   A11        2.23706   0.00037   0.00058   0.01006   0.01031   2.24737
   A12        2.00298  -0.00070  -0.00034  -0.00738  -0.00759   1.99539
   A13        1.86684  -0.00052  -0.00028  -0.00342  -0.00371   1.86313
   A14        1.89237   0.00113   0.00022   0.00629   0.00651   1.89888
   A15        1.99903  -0.00135  -0.00038  -0.00862  -0.00899   1.99004
   A16        1.94231  -0.00008  -0.00024   0.00167   0.00143   1.94374
   A17        1.85562   0.00073   0.00105   0.00255   0.00358   1.85921
   A18        1.90790   0.00005  -0.00037   0.00140   0.00103   1.90893
   A19        2.02662   0.00014  -0.00034   0.00101   0.00067   2.02728
   A20        1.99068   0.00025   0.00040   0.00142   0.00182   1.99250
   A21        2.08474  -0.00139  -0.00044   0.00270   0.00178   2.08652
   A22        2.01453   0.00217  -0.00109   0.01442   0.01333   2.02787
   A23        3.12297  -0.00166  -0.00063  -0.00568  -0.00673   3.11624
   A24        3.12779   0.00064  -0.00046   0.02209   0.02172   3.14951
    D1        0.36262   0.00070   0.00043   0.01194   0.01237   0.37499
    D2       -1.75307   0.00024   0.00046   0.00893   0.00939  -1.74367
    D3        2.51027   0.00020  -0.00006   0.00865   0.00859   2.51886
    D4       -2.86559   0.00035   0.00017   0.00827   0.00844  -2.85715
    D5       -0.64624   0.00053   0.00016   0.01048   0.01064  -0.63560
    D6        1.39086   0.00010   0.00037   0.00706   0.00743   1.39829
    D7       -1.59555  -0.00016  -0.00002  -0.00247  -0.00249  -1.59804
    D8        2.58868  -0.00037   0.00001  -0.00462  -0.00462   2.58406
    D9        0.42943   0.00031   0.00032   0.00025   0.00057   0.43000
   D10       -0.37831  -0.00033  -0.00029  -0.01309  -0.01336  -0.39167
   D11        2.44693  -0.00016   0.00017  -0.00448  -0.00432   2.44262
   D12        1.66024  -0.00042  -0.00051  -0.01334  -0.01385   1.64640
   D13       -1.79770  -0.00024  -0.00005  -0.00473  -0.00480  -1.80250
   D14       -2.55097  -0.00044  -0.00052  -0.01458  -0.01508  -2.56605
   D15        0.27428  -0.00027  -0.00005  -0.00597  -0.00604   0.26824
   D16       -0.94344   0.00062   0.00024   0.08676   0.08710  -0.85634
   D17        1.88305   0.00040   0.00078   0.08751   0.08830   1.97134
   D18        2.44850   0.00017  -0.00047   0.00324   0.00275   2.45125
   D19        0.35220  -0.00006  -0.00014  -0.00026  -0.00040   0.35179
   D20       -1.78346  -0.00005   0.00044  -0.00091  -0.00045  -1.78391
   D21       -0.31359  -0.00091  -0.00030  -0.00771  -0.00801  -0.32160
   D22        1.75041   0.00009  -0.00034  -0.00125  -0.00160   1.74881
   D23       -2.45682   0.00055  -0.00028   0.00290   0.00263  -2.45419
   D24        2.69886   0.00054   0.00020   0.00861   0.00881   2.70767
   D25        0.65030   0.00053   0.00055   0.00796   0.00851   0.65880
   D26       -1.39410  -0.00035  -0.00037   0.00298   0.00261  -1.39149
   D27       -1.28033   0.00056  -0.00014   0.00542   0.00528  -1.27505
   D28        0.77728  -0.00036   0.00001  -0.00205  -0.00205   0.77524
   D29        2.87565  -0.00000   0.00013   0.00217   0.00230   2.87795
         Item               Value     Threshold  Converged?
 Maximum Force            0.003665     0.000450     NO 
 RMS     Force            0.000832     0.000300     NO 
 Maximum Displacement     0.192863     0.001800     NO 
 RMS     Displacement     0.072799     0.001200     NO 
 Predicted change in Energy=-2.672596D-04
 GradGradGradGradGradGradGradGradGradGradGradGradGradGradGradGradGradGrad

                          Input orientation:                          
 ---------------------------------------------------------------------
 Center     Atomic      Atomic             Coordinates (Angstroms)
 Number     Number       Type             X           Y           Z
 ---------------------------------------------------------------------
      1         14           0       -2.391699   -0.005473   -0.048725
      2          8           0       -3.300144   -1.295271   -0.514080
      3          8           0       -3.446895    1.115147    0.535169
      4          8           0       -1.454433    0.716033   -1.184138
      5          8           0       -1.298389   -0.616838    1.070259
      6          1           0       -1.571823   -1.439284    1.496219
      7          1           0       -0.535004    0.422332   -1.304565
      8          1           0       -3.118980    2.016985    0.626890
      9         14           0        2.394724   -0.016187    0.040125
     10          8           0        3.682816    0.984035    0.294555
     11          8           0        1.585532    0.570727   -1.307670
     12          8           0        1.438710    0.008132    1.366431
     13          8           0        2.811942   -1.572899   -0.304621
     14          1           0        3.179905   -1.730080   -1.179762
     15          1           0        0.485479   -0.210345    1.280233
     16          1           0        3.882606    1.194085    1.213912
     17          1           0        1.797624    1.486684   -1.528283
     18          1           0       -4.232302   -1.134980   -0.697293
 ---------------------------------------------------------------------
                    Distance matrix (angstroms):
                    1          2          3          4          5
     1  Si   0.000000
     2  O    1.644812   0.000000
     3  O    1.646256   2.632978   0.000000
     4  O    1.639573   2.810866   2.661806   0.000000
     5  O    1.679648   2.641482   2.811080   2.623585   0.000000
     6  H    2.261606   2.655021   3.311289   3.441437   0.965726
     7  H    2.281988   3.349781   3.513364   0.972684   2.702299
     8  H    2.252938   3.507944   0.963978   2.782627   3.232360
     9  Si   4.787259   5.862996   5.970720   4.104994   3.880855
    10  O    6.164147   7.389916   7.134975   5.352541   5.289321
    11  O    4.211332   5.289761   5.386815   3.045942   3.921971
    12  O    4.083490   5.262312   5.077954   3.921327   2.823122
    13  O    5.440606   6.121973   6.863227   4.920846   4.438375
    14  H    5.941068   6.528647   7.412880   5.240284   5.133909
    15  H    3.175887   4.327536   4.216114   3.270254   1.841606
    16  H    6.511536   7.795817   7.361285   5.870534   5.490245
    17  H    4.686796   5.895348   5.648084   3.359794   4.556591
    18  H    2.254827   0.963420   2.683076   3.373399   3.464182
                    6          7          8          9         10
     6  H    0.000000
     7  H    3.519234   0.000000
     8  H    3.885257   3.598662   0.000000
     9  Si   4.458577   3.253274   5.905845   0.000000
    10  O    5.909967   4.545625   6.887806   1.650564   0.000000
    11  O    4.676627   2.125724   5.288348   1.678038   2.671433
    12  O    3.342929   3.346839   5.035370   1.635126   2.671575
    13  O    4.741126   4.022796   6.995057   1.648113   2.766829
    14  H    5.461169   4.295230   7.548539   2.245455   3.129369
    15  H    2.406125   2.850061   4.287188   2.284902   3.552614
    16  H    6.063426   5.143307   7.074176   2.248628   0.963978
    17  H    5.390926   2.573722   5.394348   2.252788   2.670083
    18  H    3.461538   4.057588   3.595529   6.761136   8.253671
                   11         12         13         14         15
    11  O    0.000000
    12  O    2.736583   0.000000
    13  O    2.665581   2.679149   0.000000
    14  H    2.802159   3.540655   0.962276   0.000000
    15  H    2.918464   0.981739   3.127419   3.952354   0.000000
    16  H    3.467492   2.720730   3.332937   3.843723   3.676587
    17  H    0.965728   3.270214   3.447788   3.518485   3.534033
    18  H    6.093373   6.142153   7.068759   7.451694   5.198367
                   16         17         18
    16  H    0.000000
    17  H    3.457224   0.000000
    18  H    8.656153   6.627494   0.000000
 Stoichiometry    H8O8Si2
 Framework group  C1[X(H8O8Si2)]
 Deg. of freedom    48
 Full point group                 C1      NOp   1
 Largest Abelian subgroup         C1      NOp   1
 Largest concise Abelian subgroup C1      NOp   1
                         Standard orientation:                         
 ---------------------------------------------------------------------
 Center     Atomic      Atomic             Coordinates (Angstroms)
 Number     Number       Type             X           Y           Z
 ---------------------------------------------------------------------
      1         14           0       -2.392690   -0.021548    0.024929
      2          8           0       -3.313918    1.168833    0.688058
      3          8           0       -3.435566   -1.038546   -0.742066
      4          8           0       -1.457015   -0.912787    1.034090
      5          8           0       -1.297143    0.771683   -0.970953
      6          1           0       -1.574229    1.650886   -1.258796
      7          1           0       -0.540642   -0.636693    1.207717
      8          1           0       -3.100158   -1.911085   -0.977501
      9         14           0        2.393971    0.034977   -0.025450
     10          8           0        3.691283   -0.901716   -0.430353
     11          8           0        1.580911   -0.769671    1.202267
     12          8           0        1.446479    0.221524   -1.344956
     13          8           0        2.797042    1.517097    0.572154
     14          1           0        3.158309    1.531513    1.463923
     15          1           0        0.491076    0.416707   -1.231290
     16          1           0        3.898423   -0.957334   -1.370169
     17          1           0        1.798660   -1.707958    1.271791
     18          1           0       -4.245943    0.974630    0.835688
 ---------------------------------------------------------------------
 Rotational constants (GHZ):           1.9659799           0.3764110           0.3721036
 Standard basis: 6-31+G(d,p) (6D, 7F)
 There are   238 symmetry adapted cartesian basis functions of A   symmetry.
 There are   238 symmetry adapted basis functions of A   symmetry.
   238 basis functions,   424 primitive gaussians,   238 cartesian basis functions
    50 alpha electrons       50 beta electrons
       nuclear repulsion energy       810.2257399961 Hartrees.
 NAtoms=   18 NActive=   18 NUniq=   18 SFac= 1.00D+00 NAtFMM=   60 NAOKFM=F Big=F
 Integral buffers will be    131072 words long.
 Raffenetti 2 integral format.
 Two-electron integral symmetry is turned on.
 Nuclear repulsion after empirical dispersion term =      810.2124285776 Hartrees.
 One-electron integrals computed using PRISM.
 NBasis=   238 RedAO= T EigKep=  2.63D-04  NBF=   238
 NBsUse=   238 1.00D-06 EigRej= -1.00D+00 NBFU=   238
 Initial guess from the checkpoint file:  "/localscratch/sarashs.37145439.0/Gau-6118.chk"
 B after Tr=     0.000000   -0.000000   -0.000000
         Rot=    0.999555   -0.029703    0.001288   -0.002515 Ang=  -3.42 deg.
 ExpMin= 3.31D-02 ExpMax= 1.61D+04 ExpMxC= 2.43D+03 IAcc=3 IRadAn=         5 AccDes= 0.00D+00
 Harris functional with IExCor=  402 and IRadAn=       5 diagonalized for initial guess.
 HarFok:  IExCor=  402 AccDes= 0.00D+00 IRadAn=         5 IDoV= 1 UseB2=F ITyADJ=14
 ICtDFT=  3500011 ScaDFX=  1.000000  1.000000  1.000000  1.000000
 FoFCou: FMM=F IPFlag=           0 FMFlag=      100000 FMFlg1=           0
         NFxFlg=           0 DoJE=T BraDBF=F KetDBF=T FulRan=T
         wScrn=  0.000000 ICntrl=       500 IOpCl=  0 I1Cent=   200000004 NGrid=           0
         NMat0=    1 NMatS0=      1 NMatT0=    0 NMatD0=    1 NMtDS0=    0 NMtDT0=    0
 Petite list used in FoFCou.
 Requested convergence on RMS density matrix=1.00D-08 within 128 cycles.
 Requested convergence on MAX density matrix=1.00D-06.
 Requested convergence on             energy=1.00D-06.
 No special actions if energy rises.
 SCF Done:  E(RB3LYP) =  -1186.06617235     A.U. after   10 cycles
            NFock= 10  Conv=0.37D-08     -V/T= 2.0067
 Calling FoFJK, ICntrl=      2127 FMM=F ISym2X=0 I1Cent= 0 IOpClX= 0 NMat=1 NMatS=1 NMatT=0.
 ***** Axes restored to original set *****
 -------------------------------------------------------------------
 Center     Atomic                   Forces (Hartrees/Bohr)
 Number     Number              X              Y              Z
 -------------------------------------------------------------------
      1       14           0.009803699   -0.000062990   -0.000052861
      2        8          -0.000118478   -0.001000724    0.000389908
      3        8          -0.000217189   -0.000272630    0.001102628
      4        8          -0.000809014   -0.000461298    0.000189714
      5        8          -0.003254654    0.000013809   -0.002021495
      6        1           0.000255447    0.000415002    0.000962081
      7        1           0.000447108    0.001836869   -0.000096897
      8        1          -0.000172552    0.000125824   -0.000533993
      9       14          -0.009698985    0.000453608   -0.000500409
     10        8           0.000152634   -0.000221444    0.000139664
     11        8           0.001491210   -0.001263997    0.000427274
     12        8          -0.001263636   -0.000273052   -0.000298856
     13        8          -0.000843254    0.001229216    0.001402781
     14        1           0.000970526   -0.000899792   -0.001505308
     15        1           0.004248665   -0.000172376    0.000933647
     16        1           0.000296227    0.000147032    0.000008163
     17        1          -0.001141473   -0.000130604    0.000044114
     18        1          -0.000146280    0.000537545   -0.000590155
 -------------------------------------------------------------------
 Cartesian Forces:  Max     0.009803699 RMS     0.002146991

 GradGradGradGradGradGradGradGradGradGradGradGradGradGradGradGradGradGrad
 Berny optimization.
 Using GEDIIS/GDIIS optimizer.
 FormGI is forming the generalized inverse of G from B-inverse, IUseBI=4.
 Internal  Forces:  Max     0.008141321 RMS     0.001475166
 Search for a local minimum.
 Step number   3 out of a maximum of   81
 All quantities printed in internal units (Hartrees-Bohrs-Radians)
 Mixed Optimization -- RFO/linear search
 Update second derivatives using D2CorX and points    1    2    3
 DE= -1.67D-04 DEPred=-2.67D-04 R= 6.25D-01
 TightC=F SS=  1.41D+00  RLast= 1.48D-01 DXNew= 8.4853D-01 4.4487D-01
 Trust test= 6.25D-01 RLast= 1.48D-01 DXMaxT set to 5.05D-01
 ITU=  1  1  0
 Use linear search instead of GDIIS.
     Eigenvalues ---    0.00610   0.00796   0.01793   0.02739   0.03260
     Eigenvalues ---    0.03472   0.03495   0.03561   0.03682   0.03705
     Eigenvalues ---    0.03835   0.05500   0.07814   0.10315   0.11029
     Eigenvalues ---    0.11450   0.11635   0.12212   0.12868   0.14540
     Eigenvalues ---    0.15799   0.16000   0.16000   0.16000   0.16000
     Eigenvalues ---    0.16112   0.17583   0.19271   0.20203   0.20919
     Eigenvalues ---    0.23989   0.36535   0.37941   0.40517   0.40827
     Eigenvalues ---    0.41341   0.42463   0.43055   0.43260   0.45645
     Eigenvalues ---    0.48977   0.52163   0.53915   0.53958   0.54037
     Eigenvalues ---    0.54055   0.542291000.000001000.000001000.00000
     Eigenvalues --- 1000.000001000.000001000.000001000.000001000.00000
     Eigenvalues --- 1000.000001000.000001000.000001000.000001000.00000
     Eigenvalues --- 1000.000001000.000001000.000001000.000001000.00000
     Eigenvalues --- 1000.000001000.000001000.000001000.000001000.00000
     Eigenvalues --- 1000.00000
 RFO step:  Lambda=-2.68756095D-03 EMin= 6.10046334D-03
 Quartic linear search produced a step of -0.25011.
 Iteration  1 RMS(Cart)=  0.18356631 RMS(Int)=  0.01812884
 Iteration  2 RMS(Cart)=  0.03882124 RMS(Int)=  0.00070672
 Iteration  3 RMS(Cart)=  0.00072616 RMS(Int)=  0.00060654
 Iteration  4 RMS(Cart)=  0.00000034 RMS(Int)=  0.00060654
 Iteration  1 RMS(Cart)=  0.00022360 RMS(Int)=  0.00001836
 Iteration  2 RMS(Cart)=  0.00001108 RMS(Int)=  0.00001879
 Iteration  3 RMS(Cart)=  0.00000055 RMS(Int)=  0.00001883
 Variable       Old X    -DE/DX   Delta X   Delta X   Delta X     New X
                                 (Linear)    (Quad)   (Total)
    R1        3.10824   0.00057  -0.00029   0.00616   0.00587   3.11411
    R2        3.11097   0.00035   0.00016  -0.00555  -0.00540   3.10558
    R3        3.09834   0.00033   0.00099  -0.02448  -0.02350   3.07485
    R4        3.17408  -0.00033   0.00072  -0.01739  -0.01618   3.15789
    R5        9.04661  -0.00814  -0.00000   0.00000  -0.00000   9.04661
    R6        1.82060   0.00034  -0.00006  -0.00080  -0.00086   1.81974
    R7        1.82165   0.00001   0.00008  -0.00330  -0.00321   1.81844
    R8        1.83811  -0.00013   0.00013  -0.00466  -0.00453   1.83358
    R9        1.82496  -0.00000   0.00008  -0.00258  -0.00249   1.82246
   R10        3.48013   0.00212  -0.01544   0.36647   0.35170   3.83183
   R11        3.11911   0.00033   0.00083  -0.02411  -0.02329   3.09582
   R12        3.17103  -0.00103   0.00075  -0.01938  -0.01863   3.15240
   R13        3.08994  -0.00049   0.00118  -0.03615  -0.03460   3.05534
   R14        3.11448  -0.00026   0.00066  -0.02022  -0.01956   3.09492
   R15        1.82166   0.00010   0.00002  -0.00197  -0.00195   1.81971
   R16        1.82496  -0.00038   0.00027  -0.00631  -0.00604   1.81892
   R17        1.85522  -0.00207   0.00129  -0.03509  -0.03305   1.82217
   R18        1.81844   0.00189   0.00090  -0.05914  -0.05824   1.76020
    A1        1.85472   0.00016  -0.00002  -0.00106  -0.00103   1.85369
    A2        2.05429   0.00048  -0.00021   0.00743   0.00711   2.06140
    A3        1.83648  -0.00059  -0.00071   0.01512   0.01435   1.85083
    A4        1.88860  -0.00122  -0.00045   0.00496   0.00446   1.89305
    A5        2.01384  -0.00039   0.00114  -0.03085  -0.02969   1.98415
    A6        1.82288   0.00157   0.00034   0.00234   0.00254   1.82542
    A7        2.04623  -0.00068   0.00219  -0.05561  -0.05341   1.99282
    A8        2.04041   0.00001  -0.00016   0.00222   0.00207   2.04247
    A9        2.08658   0.00252   0.00091  -0.01026  -0.00936   2.07722
   A10        2.00372   0.00039   0.00001   0.00067  -0.00090   2.00282
   A11        2.24737   0.00136  -0.00258   0.06564   0.06350   2.31087
   A12        1.99539  -0.00164   0.00190  -0.05057  -0.04966   1.94573
   A13        1.86313   0.00100   0.00093  -0.01843  -0.01764   1.84549
   A14        1.89888   0.00021  -0.00163   0.03906   0.03749   1.93637
   A15        1.99004  -0.00036   0.00225  -0.05383  -0.05149   1.93855
   A16        1.94374   0.00002  -0.00036   0.00586   0.00540   1.94914
   A17        1.85921  -0.00070  -0.00090   0.02597   0.02466   1.88387
   A18        1.90893  -0.00016  -0.00026   0.00057   0.00041   1.90934
   A19        2.02728   0.00056  -0.00017   0.00280   0.00263   2.02992
   A20        1.99250   0.00125  -0.00045   0.01834   0.01788   2.01038
   A21        2.08652  -0.00213  -0.00044  -0.00383  -0.00240   2.08413
   A22        2.02787   0.00117  -0.00333   0.06771   0.06437   2.09224
   A23        3.11624  -0.00345   0.00168  -0.20453  -0.20152   2.91472
   A24        3.14951  -0.00127  -0.00543   0.03999   0.03472   3.18423
    D1        0.37499   0.00019  -0.00309   0.07332   0.07024   0.44523
    D2       -1.74367   0.00133  -0.00235   0.06275   0.06045  -1.68323
    D3        2.51886  -0.00049  -0.00215   0.04488   0.04269   2.56154
    D4       -2.85715   0.00005  -0.00211   0.04927   0.04721  -2.80993
    D5       -0.63560  -0.00001  -0.00266   0.06071   0.05803  -0.57757
    D6        1.39829   0.00089  -0.00186   0.04846   0.04656   1.44485
    D7       -1.59804  -0.00106   0.00062  -0.02717  -0.02653  -1.62456
    D8        2.58406  -0.00063   0.00115  -0.03486  -0.03374   2.55032
    D9        0.43000  -0.00041  -0.00014  -0.00249  -0.00260   0.42740
   D10       -0.39167  -0.00079   0.00334  -0.09123  -0.08718  -0.47885
   D11        2.44262  -0.00064   0.00108  -0.03731  -0.03679   2.40582
   D12        1.64640  -0.00120   0.00346  -0.09921  -0.09518   1.55122
   D13       -1.80250  -0.00104   0.00120  -0.04530  -0.04479  -1.84729
   D14       -2.56605  -0.00185   0.00377  -0.10853  -0.10410  -2.67015
   D15        0.26824  -0.00170   0.00151  -0.05461  -0.05372   0.21452
   D16       -0.85634  -0.00246  -0.02179  -0.06056  -0.08514  -0.94148
   D17        1.97134  -0.00222  -0.02208  -0.05302  -0.07291   1.89843
   D18        2.45125   0.00041  -0.00069   0.01287   0.01172   2.46297
   D19        0.35179  -0.00030   0.00010  -0.00497  -0.00506   0.34673
   D20       -1.78391  -0.00000   0.00011   0.00216   0.00293  -1.78099
   D21       -0.32160  -0.00085   0.00200  -0.05588  -0.05393  -0.37553
   D22        1.74881   0.00003   0.00040  -0.01663  -0.01639   1.73242
   D23       -2.45419  -0.00058  -0.00066   0.00327   0.00283  -2.45136
   D24        2.70767  -0.00086  -0.00220   0.02696   0.02489   2.73257
   D25        0.65880  -0.00223  -0.00213   0.02198   0.01967   0.67847
   D26       -1.39149  -0.00127  -0.00065  -0.01383  -0.01444  -1.40593
   D27       -1.27505  -0.00011  -0.00132   0.02797   0.02687  -1.24818
   D28        0.77524   0.00046   0.00051  -0.00817  -0.00783   0.76740
   D29        2.87795  -0.00002  -0.00058   0.01428   0.01366   2.89162
         Item               Value     Threshold  Converged?
 Maximum Force            0.002750     0.000450     NO 
 RMS     Force            0.001098     0.000300     NO 
 Maximum Displacement     0.569337     0.001800     NO 
 RMS     Displacement     0.205243     0.001200     NO 
 Predicted change in Energy=-1.734928D-03
 GradGradGradGradGradGradGradGradGradGradGradGradGradGradGradGradGradGrad

                          Input orientation:                          
 ---------------------------------------------------------------------
 Center     Atomic      Atomic             Coordinates (Angstroms)
 Number     Number       Type             X           Y           Z
 ---------------------------------------------------------------------
      1         14           0       -2.393573    0.028748   -0.076261
      2          8           0       -3.201840   -1.252865   -0.724182
      3          8           0       -3.535802    0.995560    0.602969
      4          8           0       -1.473822    0.935013   -1.066374
      5          8           0       -1.316226   -0.614721    1.027278
      6          1           0       -1.587692   -1.455734    1.413391
      7          1           0       -0.531260    0.723612   -1.157743
      8          1           0       -3.288169    1.908966    0.777173
      9         14           0        2.390981   -0.047682    0.065367
     10          8           0        3.672794    0.972456    0.075458
     11          8           0        1.473723    0.391276   -1.257045
     12          8           0        1.549313    0.068087    1.440970
     13          8           0        2.873958   -1.598002   -0.147957
     14          1           0        3.192802   -1.874577   -0.978291
     15          1           0        0.621349   -0.193720    1.451782
     16          1           0        3.963581    1.283840    0.939026
     17          1           0        1.617267    1.288143   -1.575626
     18          1           0       -4.117712   -1.065596   -0.955279
 ---------------------------------------------------------------------
                    Distance matrix (angstroms):
                    1          2          3          4          5
     1  Si   0.000000
     2  O    1.647917   0.000000
[...]
 GradGradGradGradGradGradGradGradGradGradGradGradGradGradGradGradGradGrad

                          Input orientation:                          
 ---------------------------------------------------------------------
 Center     Atomic      Atomic             Coordinates (Angstroms)
 Number     Number       Type             X           Y           Z
 ---------------------------------------------------------------------
      1         14           0       -2.392411   -0.000517   -0.028907
      2          8           0       -3.185281   -1.345431   -0.554878
      3          8           0       -3.555297    1.041034    0.502194
      4          8           0       -1.453456    0.805224   -1.103169
      5          8           0       -1.335593   -0.552543    1.144046
      6          1           0       -1.646709   -1.303980    1.664155
      7          1           0       -0.516158    0.562756   -1.210482
      8          1           0       -3.313238    1.974021    0.525999
      9         14           0        2.394404   -0.027196    0.030574
     10          8           0        3.717761    0.944842    0.191620
     11          8           0        1.518402    0.584536   -1.260911
     12          8           0        1.533353    0.009144    1.420696
     13          8           0        2.747734   -1.592963   -0.334782
     14          1           0        3.114524   -1.770279   -1.208285
     15          1           0        0.585409   -0.218267    1.388352
     16          1           0        4.055333    1.081308    1.084055
     17          1           0        1.702076    1.511264   -1.461641
     18          1           0       -4.061181   -1.210147   -0.933981
 ---------------------------------------------------------------------
                    Distance matrix (angstroms):
                    1          2          3          4          5
     1  Si   0.000000
     2  O    1.647447   0.000000
     3  O    1.648999   2.636195   0.000000
     4  O    1.638565   2.815166   2.655284   0.000000
     5  O    1.672548   2.633697   2.806875   2.628193   0.000000
     6  H    2.263083   2.700561   3.239128   3.484849   0.965383
     7  H    2.287732   3.345924   3.521132   0.974081   2.731147
     8  H    2.248253   3.493340   0.964170   2.734787   3.267505
     9  Si   4.787259   5.763105   6.063207   4.096868   3.927937
    10  O    6.186804   7.311265   7.280321   5.332678   5.355900
    11  O    4.141809   5.133019   5.390672   2.984212   3.901544
    12  O    4.184862   5.291812   5.272836   3.990572   2.936474
    13  O    5.389855   5.942254   6.882344   4.898134   4.465754
    14  H    5.903331   6.347832   7.437454   5.245064   5.178791
    15  H    3.305065   4.389162   4.417755   3.378192   1.965115
    16  H    6.631925   7.810355   7.632946   5.933542   5.633396
    17  H    4.593803   5.733165   5.631849   3.253363   4.502925
    18  H    2.251035   0.963962   2.717781   3.300088   3.489910
                    6          7          8          9         10
     6  H    0.000000
     7  H    3.609208   0.000000
     8  H    3.849416   3.581995   0.000000
     9  Si   4.541956   3.218639   6.068566   0.000000
    10  O    6.000258   4.476377   7.113787   1.649868   0.000000
    11  O    4.705362   2.035302   5.335584   1.676165   2.660234
    12  O    3.449111   3.380840   5.305720   1.635595   2.675406
    13  O    4.836361   4.008363   7.085175   1.646193   2.767400
    14  H    5.580115   4.315659   7.638301   2.256475   3.113761
    15  H    2.497437   2.928717   4.555132   2.269919   3.549171
    16  H    6.208011   5.141238   7.443400   2.257717   0.963856
    17  H    5.376854   2.425554   5.414631   2.252306   2.667788
    18  H    3.548068   3.973264   3.581883   6.633576   8.150024
                   11         12         13         14         15
    11  O    0.000000
    12  O    2.742684   0.000000
    13  O    2.666548   2.668927   0.000000
    14  H    2.845264   3.546546   0.963838   0.000000
    15  H    2.921226   0.975377   3.087819   3.943055   0.000000
    16  H    3.490224   2.761022   3.297671   3.777763   3.717776
    17  H    0.965843   3.254643   3.464021   3.581581   3.515776
    18  H    5.870223   6.191122   6.845942   7.202759   5.288465
                   16         17         18
    16  H    0.000000
    17  H    3.493315   0.000000
    18  H    8.671853   6.395282   0.000000
 Stoichiometry    H8O8Si2
 Framework group  C1[X(H8O8Si2)]
 Deg. of freedom    48
 Full point group                 C1      NOp   1
 Largest Abelian subgroup         C1      NOp   1
 Largest concise Abelian subgroup C1      NOp   1
                         Standard orientation:                         
 ---------------------------------------------------------------------
 Center     Atomic      Atomic             Coordinates (Angstroms)
 Number     Number       Type             X           Y           Z
 ---------------------------------------------------------------------
      1         14           0       -2.390938   -0.018960    0.016725
      2          8           0       -3.190556    1.170151    0.829564
      3          8           0       -3.548190   -0.917263   -0.740254
      4          8           0       -1.452265   -1.043539    0.885072
      5          8           0       -1.332587    0.786731   -0.997264
      6          1           0       -1.644945    1.635226   -1.335573
      7          1           0       -0.516236   -0.828728    1.047982
      8          1           0       -3.302507   -1.820071   -0.973063
      9         14           0        2.395903    0.034859   -0.016583
     10          8           0        3.723447   -0.871765   -0.387700
     11          8           0        1.518225   -0.855205    1.100107
     12          8           0        1.539324    0.310610   -1.382381
     13          8           0        2.742129    1.478822    0.694086
     14          1           0        3.105522    1.455519    1.586490
     15          1           0        0.590425    0.522001   -1.303235
     16          1           0        4.064310   -0.802274   -1.286589
     17          1           0        1.704803   -1.802769    1.087223
     18          1           0       -4.067110    0.950161    1.164945
 ---------------------------------------------------------------------
 Rotational constants (GHZ):           1.9614645           0.3758753           0.3713177

 **********************************************************************

            Population analysis using the SCF Density.

 **********************************************************************

 Orbital symmetries:
       Occupied  (A) (A) (A) (A) (A) (A) (A) (A) (A) (A) (A) (A)
                 (A) (A) (A) (A) (A) (A) (A) (A) (A) (A) (A) (A)
                 (A) (A) (A) (A) (A) (A) (A) (A) (A) (A) (A) (A)
                 (A) (A) (A) (A) (A) (A) (A) (A) (A) (A) (A) (A)
                 (A) (A)
       Virtual   (A) (A) (A) (A) (A) (A) (A) (A) (A) (A) (A) (A)
                 (A) (A) (A) (A) (A) (A) (A) (A) (A) (A) (A) (A)
                 (A) (A) (A) (A) (A) (A) (A) (A) (A) (A) (A) (A)
                 (A) (A) (A) (A) (A) (A) (A) (A) (A) (A) (A) (A)
                 (A) (A) (A) (A) (A) (A) (A) (A) (A) (A) (A) (A)
                 (A) (A) (A) (A) (A) (A) (A) (A) (A) (A) (A) (A)
                 (A) (A) (A) (A) (A) (A) (A) (A) (A) (A) (A) (A)
                 (A) (A) (A) (A) (A) (A) (A) (A) (A) (A) (A) (A)
                 (A) (A) (A) (A) (A) (A) (A) (A) (A) (A) (A) (A)
                 (A) (A) (A) (A) (A) (A) (A) (A) (A) (A) (A) (A)
                 (A) (A) (A) (A) (A) (A) (A) (A) (A) (A) (A) (A)
                 (A) (A) (A) (A) (A) (A) (A) (A) (A) (A) (A) (A)
                 (A) (A) (A) (A) (A) (A) (A) (A) (A) (A) (A) (A)
                 (A) (A) (A) (A) (A) (A) (A) (A) (A) (A) (A) (A)
                 (A) (A) (A) (A) (A) (A) (A) (A) (A) (A) (A) (A)
                 (A) (A) (A) (A) (A) (A) (A) (A)
 The electronic state is 1-A.
 Alpha  occ. eigenvalues --  -66.22662 -66.22288 -19.18334 -19.18058 -19.17376
 Alpha  occ. eigenvalues --  -19.17325 -19.17309 -19.16707 -19.16151 -19.15582
 Alpha  occ. eigenvalues --   -5.35976  -5.35617  -3.71993  -3.71950  -3.71918
 Alpha  occ. eigenvalues --   -3.71654  -3.71603  -3.71523  -1.05120  -1.04679
 Alpha  occ. eigenvalues --   -1.01898  -1.01450  -1.01177  -1.00994  -1.00140
 Alpha  occ. eigenvalues --   -0.99712  -0.60268  -0.59741  -0.54317  -0.54168
 Alpha  occ. eigenvalues --   -0.53758  -0.53530  -0.53127  -0.51860  -0.41811
 Alpha  occ. eigenvalues --   -0.40980  -0.39989  -0.39767  -0.38822  -0.38547
 Alpha  occ. eigenvalues --   -0.38005  -0.37442  -0.36517  -0.35913  -0.35686
 Alpha  occ. eigenvalues --   -0.35090  -0.33418  -0.32914  -0.32603  -0.32294
 Alpha virt. eigenvalues --   -0.03217  -0.01530   0.01056   0.01437   0.02092
 Alpha virt. eigenvalues --    0.02525   0.04516   0.06540   0.09974   0.10450
 Alpha virt. eigenvalues --    0.10965   0.11446   0.11778   0.12916   0.13124
 Alpha virt. eigenvalues --    0.13952   0.14098   0.15022   0.15226   0.15359
 Alpha virt. eigenvalues --    0.16157   0.16330   0.16397   0.17529   0.17573
 Alpha virt. eigenvalues --    0.18621   0.19052   0.19901   0.20048   0.20799
 Alpha virt. eigenvalues --    0.21493   0.21951   0.22852   0.23023   0.24061
 Alpha virt. eigenvalues --    0.24774   0.25241   0.25580   0.26419   0.26876
 Alpha virt. eigenvalues --    0.27533   0.28961   0.29648   0.29814   0.30860
 Alpha virt. eigenvalues --    0.32220   0.33157   0.34965   0.34992   0.36691
 Alpha virt. eigenvalues --    0.37154   0.38874   0.39730   0.41392   0.42027
 Alpha virt. eigenvalues --    0.44408   0.45120   0.46339   0.46932   0.47735
 Alpha virt. eigenvalues --    0.49323   0.54256   0.60346   0.61637   0.63290
 Alpha virt. eigenvalues --    0.64895   0.66238   0.71183   0.92721   0.93792
 Alpha virt. eigenvalues --    0.94271   0.95107   0.96426   0.97012   0.98835
 Alpha virt. eigenvalues --    0.99334   0.99991   1.01213   1.02340   1.03398
 Alpha virt. eigenvalues --    1.09263   1.12891   1.15902   1.16403   1.17012
 Alpha virt. eigenvalues --    1.17409   1.18173   1.18819   1.19182   1.20310
 Alpha virt. eigenvalues --    1.20799   1.21678   1.22880   1.22985   1.23663
 Alpha virt. eigenvalues --    1.24960   1.25819   1.26951   1.28120   1.28869
 Alpha virt. eigenvalues --    1.29524   1.30953   1.33688   1.34369   1.34953
 Alpha virt. eigenvalues --    1.36643   1.47420   1.48291   1.51102   1.52758
 Alpha virt. eigenvalues --    1.53709   1.56699   1.58082   1.59229   1.60191
 Alpha virt. eigenvalues --    1.61004   1.61672   1.62891   1.64088   1.65785
 Alpha virt. eigenvalues --    1.69227   1.69894   1.71504   1.73058   1.73864
 Alpha virt. eigenvalues --    1.75168   1.78612   1.79854   1.83871   1.88987
 Alpha virt. eigenvalues --    1.91499   1.91994   1.93262   1.96262   2.03330
 Alpha virt. eigenvalues --    2.04428   2.11120   2.12430   2.34524   2.35615
 Alpha virt. eigenvalues --    2.37665   2.38163   2.38617   2.39015   2.41032
 Alpha virt. eigenvalues --    2.44601   2.45327   2.47107   2.57609   2.58802
 Alpha virt. eigenvalues --    2.59341   2.60225   2.60623   2.61354   2.62781
 Alpha virt. eigenvalues --    2.63470   2.64155   2.64325   2.64763   2.65600
 Alpha virt. eigenvalues --    2.68555   2.68640   2.69665   2.71906   2.78107
 Alpha virt. eigenvalues --    2.78974   2.80363   2.81595   2.83351   2.85093
 Alpha virt. eigenvalues --    3.00311   3.00720   3.40653   3.41120   3.42600
 Alpha virt. eigenvalues --    3.42768   3.44727   3.45995   3.57019   3.61844
 Alpha virt. eigenvalues --    4.11792   4.13368   4.17107   4.21238   4.23150
 Alpha virt. eigenvalues --    4.24895   4.30512   4.32911
          Condensed to atoms (all electrons):
               1          2          3          4          5          6
     1  Si  11.694631   0.066256   0.043910   0.099788  -0.081878   0.026790
     2  O    0.066256   8.497088   0.029154  -0.017988   0.071372  -0.000627
     3  O    0.043910   0.029154   8.481215   0.044749   0.036002  -0.005659
     4  O    0.099788  -0.017988   0.044749   8.495031   0.053750   0.007311
     5  O   -0.081878   0.071372   0.036002   0.053750   8.694472   0.235112
     6  H    0.026790  -0.000627  -0.005659   0.007311   0.235112   0.345068
     7  H    0.009700  -0.004435   0.005069   0.244550   0.000170   0.000022
     8  H    0.024430   0.006494   0.244541  -0.001819  -0.006154   0.000054
     9  Si  -0.007920  -0.000174  -0.000234  -0.010044   0.003355  -0.001216
    10  O   -0.000291   0.000018  -0.000033   0.000182  -0.000425  -0.000005
    11  O   -0.002300  -0.001039   0.000221   0.000577  -0.000558   0.000219
    12  O   -0.019072  -0.000465   0.000054   0.007660   0.000681   0.001639
    13  O    0.000329  -0.000178   0.000018  -0.001507  -0.000266   0.000058
    14  H   -0.000317   0.000001   0.000000   0.000042   0.000036  -0.000000
    15  H    0.005252   0.000124   0.000289  -0.002216   0.008077  -0.000449
    16  H    0.000078  -0.000000   0.000000   0.000006   0.000015  -0.000000
    17  H   -0.000137  -0.000003   0.000007   0.000279  -0.000044  -0.000000
    18  H    0.029157   0.237657  -0.002130  -0.005712   0.003909   0.000093
               7          8          9         10         11         12
     1  Si   0.009700   0.024430  -0.007920  -0.000291  -0.002300  -0.019072
     2  O   -0.004435   0.006494  -0.000174   0.000018  -0.001039  -0.000465
     3  O    0.005069   0.244541  -0.000234  -0.000033   0.000221   0.000054
     4  O    0.244550  -0.001819  -0.010044   0.000182   0.000577   0.007660
     5  O    0.000170  -0.006154   0.003355  -0.000425  -0.000558   0.000681
     6  H    0.000022   0.000054  -0.001216  -0.000005   0.000219   0.001639
     7  H    0.302241   0.000042   0.008349  -0.000033   0.004978  -0.000666
     8  H    0.000042   0.358754  -0.000080   0.000000   0.000028  -0.000008
     9  Si   0.008349  -0.000080  11.650366   0.004196  -0.057941   0.147596
    10  O   -0.000033   0.000000   0.004196   8.565658   0.092108   0.044995
    11  O    0.004978   0.000028  -0.057941   0.092108   8.658572   0.017130
    12  O   -0.000666  -0.000008   0.147596   0.044995   0.017130   8.446956
    13  O   -0.001310  -0.000000   0.075661  -0.039896   0.055422   0.034028
    14  H    0.000004   0.000000   0.040732  -0.005574  -0.008714   0.005961
    15  H   -0.000161   0.000005   0.012409   0.005512  -0.003496   0.252533
    16  H   -0.000001  -0.000000   0.023253   0.248005   0.002205  -0.000924
    17  H   -0.001225  -0.000000   0.027533   0.000812   0.241349  -0.006371
    18  H    0.000032   0.000063   0.000054   0.000000  -0.000011   0.000002
              13         14         15         16         17         18
     1  Si   0.000329  -0.000317   0.005252   0.000078  -0.000137   0.029157
     2  O   -0.000178   0.000001   0.000124  -0.000000  -0.000003   0.237657
     3  O    0.000018   0.000000   0.000289   0.000000   0.000007  -0.002130
     4  O   -0.001507   0.000042  -0.002216   0.000006   0.000279  -0.005712
     5  O   -0.000266   0.000036   0.008077   0.000015  -0.000044   0.003909
     6  H    0.000058  -0.000000  -0.000449  -0.000000  -0.000000   0.000093
     7  H   -0.001310   0.000004  -0.000161  -0.000001  -0.001225   0.000032
     8  H   -0.000000   0.000000   0.000005  -0.000000  -0.000000   0.000063
     9  Si   0.075661   0.040732   0.012409   0.023253   0.027533   0.000054
    10  O   -0.039896  -0.005574   0.005512   0.248005   0.000812   0.000000
    11  O    0.055422  -0.008714  -0.003496   0.002205   0.241349  -0.000011
    12  O    0.034028   0.005961   0.252533  -0.000924  -0.006371   0.000002
    13  O    8.448394   0.235656  -0.004649  -0.002639   0.002261  -0.000001
    14  H    0.235656   0.371025   0.000004   0.000043   0.000142  -0.000000
    15  H   -0.004649   0.000004   0.285603   0.000003   0.000046  -0.000002
    16  H   -0.002639   0.000043   0.000003   0.350754   0.000091  -0.000000
    17  H    0.002261   0.000142   0.000046   0.000091   0.348128   0.000000
    18  H   -0.000001  -0.000000  -0.000002  -0.000000   0.000000   0.359026
 Mulliken charges:
               1
     1  Si   2.111592
     2  O   -0.883255
     3  O   -0.877176
     4  O   -0.914640
     5  O   -1.017626
     6  H    0.391592
     7  H    0.432672
     8  H    0.373649
     9  Si   2.084104
    10  O   -0.915229
    11  O   -0.998750
    12  O   -0.931728
    13  O   -0.801381
    14  H    0.360958
    15  H    0.441115
    16  H    0.379110
    17  H    0.387130
    18  H    0.377864
 Sum of Mulliken charges =  -0.00000
 Mulliken charges with hydrogens summed into heavy atoms:
               1
     1  Si   2.111592
     2  O   -0.505391
     3  O   -0.503526
     4  O   -0.481968
     5  O   -0.626035
     9  Si   2.084104
    10  O   -0.536120
    11  O   -0.611620
    12  O   -0.490613
    13  O   -0.440423
 Electronic spatial extent (au):  <R**2>=           2950.1226
 Charge=              0.0000 electrons
 Dipole moment (field-independent basis, Debye):
    X=             -0.1995    Y=             -1.1317    Z=             -0.0191  Tot=              1.1493
 Quadrupole moment (field-independent basis, Debye-Ang):
   XX=            -64.9948   YY=            -69.0569   ZZ=            -69.4739
   XY=             -2.3159   XZ=              0.7455   YZ=              1.3080
 Traceless Quadrupole moment (field-independent basis, Debye-Ang):
   XX=              2.8471   YY=             -1.2150   ZZ=             -1.6321
   XY=             -2.3159   XZ=              0.7455   YZ=              1.3080
 Octapole moment (field-independent basis, Debye-Ang**2):
  XXX=             -3.8682  YYY=            -18.3757  ZZZ=              4.9713  XYY=            -11.7025
  XXY=              2.6631  XXZ=             10.3017  XZZ=             13.2435  YZZ=              4.7457
  YYZ=             -8.9641  XYZ=              6.6349
 Hexadecapole moment (field-independent basis, Debye-Ang**3):
 XXXX=          -2664.3954 YYYY=           -354.5430 ZZZZ=           -344.6849 XXXY=            -10.0611
 XXXZ=           -169.9241 YYYX=              1.8127 YYYZ=             -8.7070 ZZZX=             13.7006
 ZZZY=             13.8629 XXYY=           -525.2305 XXZZ=           -426.9491 YYZZ=            -96.9009
 XXYZ=             54.7035 YYXZ=             49.3786 ZZXY=             -2.6291
 N-N= 8.095104110950D+02 E-N=-4.428874945029D+03  KE= 1.178139309205D+03
 1\1\GINC-GRA645\FOpt\RB3LYP\6-31+G(d,p)\H8O8Si2\SARASHS\11-Aug-2020\0\
 \#n B3LYP/6-31+G(d,p) EmpiricalDispersion=GD3 Opt=modredundant\\Title\
 \0,1\Si,-2.3924112222,-0.0005170573,-0.0289072681\O,-3.1852809975,-1.3
 454305743,-0.5548780295\O,-3.5552968692,1.0410335043,0.5021939661\O,-1
 .453455742,0.8052243175,-1.1031691041\O,-1.3355926443,-0.5525434233,1.
 1440455955\H,-1.6467093841,-1.3039800353,1.6641547988\H,-0.5161584231,
 0.5627561289,-1.2104817885\H,-3.3132380645,1.9740205593,0.5259986727\S
 i,2.3944043455,-0.0271961863,0.0305736957\O,3.7177609792,0.9448415682,
 0.1916197188\O,1.5184017826,0.5845361355,-1.2609106975\O,1.5333531541,
 0.0091443571,1.4206963865\O,2.7477340841,-1.5929630884,-0.3347815481\H
 ,3.1145235269,-1.7702789172,-1.2082850508\H,0.585409487,-0.2182672985,
 1.3883519125\H,4.0553327979,1.0813077235,1.0840552917\H,1.7020755363,1
 .5112642487,-1.4616406453\H,-4.0611813466,-1.2101469622,-0.9339809064\
 \Version=ES64L-G16RevB.01\State=1-A\HF=-1186.0671308\RMSD=2.137e-09\RM
 SF=1.416e-03\Dipole=-0.0798674,0.43513,-0.0934278\Quadrupole=2.1106317
 ,-0.4796645,-1.6309673,1.5597207,-0.920025,0.8065132\PG=C01 [X(H8O8Si2
 )]\\@


 NOTHING MAKES A PERSON MORE PRODUCTIVE THAN THE LAST MINUTE.
 Job cpu time:       0 days  1 hours 15 minutes 34.6 seconds.
 Elapsed time:       0 days  0 hours  4 minutes 44.8 seconds.
 File lengths (MBytes):  RWF=     40 Int=      0 D2E=      0 Chk=      5 Scr=      1
 Normal termination of Gaussian 16 at Tue Aug 11 17:12:11 2020.
