 Entering Gaussian System, Link 0=g16
 Initial command:
 /opt/software/gaussian/g16.b01/l1.exe "/localscratch/sarashs.37136500.0/Gau-200615.inp" -scrdir="/localscratch/sarashs.37136500.0/"
 Entering Link 1 = /opt/software/gaussian/g16.b01/l1.exe PID=    200616.
  
 Copyright (c) 1988-2017, Gaussian, Inc.  All Rights Reserved.
  
 This is part of the Gaussian(R) 16 program.  It is based on
 the Gaussian(R) 09 system (copyright 2009, Gaussian, Inc.),
 the Gaussian(R) 03 system (copyright 2003, Gaussian, Inc.),
 the Gaussian(R) 98 system (copyright 1998, Gaussian, Inc.),
 the Gaussian(R) 94 system (copyright 1995, Gaussian, Inc.),
 the Gaussian 92(TM) system (copyright 1992, Gaussian, Inc.),
 the Gaussian 90(TM) system (copyright 1990, Gaussian, Inc.),
 the Gaussian 88(TM) system (copyright 1988, Gaussian, Inc.),
 the Gaussian 86(TM) system (copyright 1986, Carnegie Mellon
 University), and the Gaussian 82(TM) system (copyright 1983,
 Carnegie Mellon University). Gaussian is a federally registered
 trademark of Gaussian, Inc.
  
 This software contains proprietary and confidential information,
 including trade secrets, belonging to Gaussian, Inc.
  
 This software is provided under written license and may be
 used, copied, transmitted, or stored only in accord with that
 written license.
  
 The following legend is applicable only to US Government
 contracts under FAR:
  
                    RESTRICTED RIGHTS LEGEND
  
 Use, reproduction and disclosure by the US Government is
 subject to restrictions as set forth in subparagraphs (a)
 and (c) of the Commercial Computer Software - Restricted
 Rights clause in FAR 52.227-19.
  
 Gaussian, Inc.
 340 Quinnipiac St., Bldg. 40, Wallingford CT 06492
  
  
 ---------------------------------------------------------------
 Warning -- This program may not be used in any manner that
 competes with the business of Gaussian, Inc. or will provide
 assistance to any competitor of Gaussian, Inc.  The licensee
 of this program is prohibited from giving any competitor of
 Gaussian, Inc. access to this program.  By using this program,
 the user acknowledges that Gaussian, Inc. is engaged in the
 business of creating and licensing software in the field of
 computational chemistry and represents and warrants to the
 licensee that it is not a competitor of Gaussian, Inc. and that
 it will not use this program in any manner prohibited above.
 ---------------------------------------------------------------
  

 Cite this work as:
 Gaussian 16, Revision B.01,
 M. J. Frisch, G. W. Trucks, H. B. Schlegel, G. E. Scuseria, 
 M. A. Robb, J. R. Cheeseman, G. Scalmani, V. Barone, 
 G. A. Petersson, H. Nakatsuji, X. Li, M. Caricato, A. V. Marenich, 
 J. Bloino, B. G. Janesko, R. Gomperts, B. Mennucci, H. P. Hratchian, 
 J. V. Ortiz, A. F. Izmaylov, J. L. Sonnenberg, D. Williams-Young, 
 F. Ding, F. Lipparini, F. Egidi, J. Goings, B. Peng, A. Petrone, 
 T. Henderson, D. Ranasinghe, V. G. Zakrzewski, J. Gao, N. Rega, 
 G. Zheng, W. Liang, M. Hada, M. Ehara, K. Toyota, R. Fukuda, 
 J. Hasegawa, M. Ishida, T. Nakajima, Y. Honda, O. Kitao, H. Nakai, 
 T. Vreven, K. Throssell, J. A. Montgomery, Jr., J. E. Peralta, 
 F. Ogliaro, M. J. Bearpark, J. J. Heyd, E. N. Brothers, K. N. Kudin, 
 V. N. Staroverov, T. A. Keith, R. Kobayashi, J. Normand, 
 K. Raghavachari, A. P. Rendell, J. C. Burant, S. S. Iyengar, 
 J. Tomasi, M. Cossi, J. M. Millam, M. Klene, C. Adamo, R. Cammi, 
 J. W. Ochterski, R. L. Martin, K. Morokuma, O. Farkas, 
 J. B. Foresman, and D. J. Fox, Gaussian, Inc., Wallingford CT, 2016.
 
 ******************************************
 Gaussian 16:  ES64L-G16RevB.01 20-Dec-2017
                11-Aug-2020 
 ******************************************
 %NProcShared=16
 Will use up to   16 processors via shared memory.
 -------------------------------------------------------------
 #n B3LYP/6-31+G(d,p) EmpiricalDispersion=GD3 Opt=modredundant
 -------------------------------------------------------------
 1/18=120,19=15,26=3,38=1/1,3;
 2/9=110,12=2,17=6,18=5,40=1/2;
 3/5=1,6=6,7=111,11=2,25=1,30=1,71=1,74=-5,124=31/1,2,3;
 4//1;
 5/5=2,38=5/2;
 6/7=2,8=2,9=2,10=2,28=1/1;
 7//1,2,3,16;
 1/18=20,19=15,26=3/3(2);
 2/9=110/2;
 99//99;
 2/9=110/2;
 3/5=1,6=6,7=111,11=2,25=1,30=1,71=1,74=-5,124=31/1,2,3;
 4/5=5,16=3,69=1/1;
 5/5=2,38=5/2;
 7//1,2,3,16;
 1/18=20,19=15,26=3/3(-5);
 2/9=110/2;
 6/7=2,8=2,9=2,10=2,19=2,28=1/1;
 99/9=1/99;
 -----
 Title
 -----
 Symbolic Z-matrix:
 Charge =  0 Multiplicity = 1
 Si                   -6.06808  -0.56333  -0.39509 
 O                    -4.44726  -0.74168  -0.17506 
 O                    -6.37183   0.97168  -0.86908 
 O                    -6.84671  -0.86263   1.01208 
 O                    -6.57833  -1.62529  -1.52885 
 H                    -5.97397  -1.73737  -2.28076 
 H                    -7.23202  -1.75109   1.06496 
 H                    -7.2619    1.28593  -0.6498 
 Si                   -3.31018  -2.97416  -1.406 
 O                    -1.79319  -2.57507  -0.93631 
 O                    -4.23059  -3.30155  -0.09125 
 O                    -3.24876  -4.28448  -2.38516 
 O                    -3.98384  -1.70788  -2.2029 
 H                    -4.00478  -0.89769  -1.66505 
 H                    -4.11864  -4.64444  -2.60985 
 H                    -1.10594  -3.06413  -1.41428 
 H                    -4.35706  -2.53859   0.49456 
 H                    -4.07325  -0.04406   0.38797 
 
 Add virtual bond connecting atoms H14        and O2         Dist= 2.95D+00.
 The following ModRedundant input section has been read:
 B       1       9 F                                                           
 

 GradGradGradGradGradGradGradGradGradGradGradGradGradGradGradGradGradGrad
 Berny optimization.
 Initialization pass.
                           ----------------------------
                           !    Initial Parameters    !
                           ! (Angstroms and Degrees)  !
 --------------------------                            --------------------------
 ! Name  Definition              Value          Derivative Info.                !
 --------------------------------------------------------------------------------
 ! R1    R(1,2)                  1.6454         estimate D2E/DX2                !
 ! R2    R(1,3)                  1.635          estimate D2E/DX2                !
 ! R3    R(1,4)                  1.6358         estimate D2E/DX2                !
 ! R4    R(1,5)                  1.6351         estimate D2E/DX2                !
 ! R5    R(1,9)                  3.8            Frozen                          !
 ! R6    R(2,14)                 1.5621         estimate D2E/DX2                !
 ! R7    R(2,18)                 0.9714         estimate D2E/DX2                !
 ! R8    R(3,8)                  0.9691         estimate D2E/DX2                !
 ! R9    R(4,7)                  0.9699         estimate D2E/DX2                !
 ! R10   R(5,6)                  0.9712         estimate D2E/DX2                !
 ! R11   R(9,10)                 1.6374         estimate D2E/DX2                !
 ! R12   R(9,11)                 1.638          estimate D2E/DX2                !
 ! R13   R(9,12)                 1.6369         estimate D2E/DX2                !
 ! R14   R(9,13)                 1.6408         estimate D2E/DX2                !
 ! R15   R(10,16)                0.9695         estimate D2E/DX2                !
 ! R16   R(11,17)                0.9702         estimate D2E/DX2                !
 ! R17   R(12,15)                0.9679         estimate D2E/DX2                !
 ! R18   R(13,14)                0.9727         estimate D2E/DX2                !
 ! A1    A(2,1,3)              108.8772         estimate D2E/DX2                !
 ! A2    A(2,1,4)              109.5124         estimate D2E/DX2                !
 ! A3    A(2,1,5)              109.2523         estimate D2E/DX2                !
 ! A4    A(3,1,4)              109.4344         estimate D2E/DX2                !
 ! A5    A(3,1,5)              110.5346         estimate D2E/DX2                !
 ! A6    A(4,1,5)              109.214          estimate D2E/DX2                !
 ! A7    A(1,2,14)              99.3406         estimate D2E/DX2                !
 ! A8    A(1,2,18)             112.2687         estimate D2E/DX2                !
 ! A9    A(14,2,18)            121.0326         estimate D2E/DX2                !
 ! A10   A(1,3,8)              114.1731         estimate D2E/DX2                !
 ! A11   A(1,4,7)              113.8041         estimate D2E/DX2                !
 ! A12   A(1,5,6)              114.6833         estimate D2E/DX2                !
 ! A13   A(10,9,11)            109.82           estimate D2E/DX2                !
 ! A14   A(10,9,12)            109.3858         estimate D2E/DX2                !
 ! A15   A(10,9,13)            109.3648         estimate D2E/DX2                !
 ! A16   A(11,9,12)            109.9517         estimate D2E/DX2                !
 ! A17   A(11,9,13)            108.2631         estimate D2E/DX2                !
 ! A18   A(12,9,13)            110.0383         estimate D2E/DX2                !
 ! A19   A(9,10,16)            113.1017         estimate D2E/DX2                !
 ! A20   A(9,11,17)            113.6237         estimate D2E/DX2                !
 ! A21   A(9,12,15)            113.7569         estimate D2E/DX2                !
 ! A22   A(9,13,14)            112.5252         estimate D2E/DX2                !
 ! A23   A(2,14,13)            128.0759         estimate D2E/DX2                !
 ! D1    D(3,1,2,14)           -78.7191         estimate D2E/DX2                !
 ! D2    D(3,1,2,18)            50.4723         estimate D2E/DX2                !
 ! D3    D(4,1,2,14)           161.6616         estimate D2E/DX2                !
 ! D4    D(4,1,2,18)           -69.147          estimate D2E/DX2                !
 ! D5    D(5,1,2,14)            42.0844         estimate D2E/DX2                !
 ! D6    D(5,1,2,18)           171.2758         estimate D2E/DX2                !
 ! D7    D(2,1,3,8)           -154.199          estimate D2E/DX2                !
 ! D8    D(4,1,3,8)            -34.5313         estimate D2E/DX2                !
 ! D9    D(5,1,3,8)             85.7881         estimate D2E/DX2                !
 ! D10   D(2,1,4,7)           -100.0138         estimate D2E/DX2                !
 ! D11   D(3,1,4,7)            140.7097         estimate D2E/DX2                !
 ! D12   D(5,1,4,7)             19.587          estimate D2E/DX2                !
 ! D13   D(2,1,5,6)            -39.7339         estimate D2E/DX2                !
 ! D14   D(3,1,5,6)             80.0535         estimate D2E/DX2                !
 ! D15   D(4,1,5,6)           -159.4953         estimate D2E/DX2                !
 ! D16   D(1,2,14,13)          -85.3815         estimate D2E/DX2                !
 ! D17   D(18,2,14,13)         151.4469         estimate D2E/DX2                !
 ! D18   D(11,9,10,16)         130.3438         estimate D2E/DX2                !
 ! D19   D(12,9,10,16)           9.5908         estimate D2E/DX2                !
 ! D20   D(13,9,10,16)        -110.9862         estimate D2E/DX2                !
 ! D21   D(10,9,11,17)          63.842          estimate D2E/DX2                !
 ! D22   D(12,9,11,17)        -175.7474         estimate D2E/DX2                !
 ! D23   D(13,9,11,17)         -55.5049         estimate D2E/DX2                !
 ! D24   D(10,9,12,15)         172.6026         estimate D2E/DX2                !
 ! D25   D(11,9,12,15)          51.9299         estimate D2E/DX2                !
 ! D26   D(13,9,12,15)         -67.2318         estimate D2E/DX2                !
 ! D27   D(10,9,13,14)         -57.463          estimate D2E/DX2                !
 ! D28   D(11,9,13,14)          62.1705         estimate D2E/DX2                !
 ! D29   D(12,9,13,14)        -177.6412         estimate D2E/DX2                !
 ! D30   D(9,13,14,2)          -45.8886         estimate D2E/DX2                !
 --------------------------------------------------------------------------------
 Trust Radius=3.00D-01 FncErr=1.00D-07 GrdErr=1.00D-06 EigMax=2.50D+02 EigMin=1.00D-04
 Number of steps in this run=     81 maximum allowed number of steps=    108.
 GradGradGradGradGradGradGradGradGradGradGradGradGradGradGradGradGradGrad

                          Input orientation:                          
 ---------------------------------------------------------------------
 Center     Atomic      Atomic             Coordinates (Angstroms)
 Number     Number       Type             X           Y           Z
 ---------------------------------------------------------------------
      1         14           0       -6.068080   -0.563330   -0.395090
      2          8           0       -4.447260   -0.741680   -0.175060
      3          8           0       -6.371830    0.971680   -0.869080
      4          8           0       -6.846710   -0.862630    1.012080
      5          8           0       -6.578330   -1.625290   -1.528850
      6          1           0       -5.973970   -1.737370   -2.280760
      7          1           0       -7.232020   -1.751090    1.064960
      8          1           0       -7.261900    1.285930   -0.649800
      9         14           0       -3.310180   -2.974160   -1.406000
     10          8           0       -1.793190   -2.575070   -0.936310
     11          8           0       -4.230590   -3.301550   -0.091250
     12          8           0       -3.248760   -4.284480   -2.385160
     13          8           0       -3.983840   -1.707880   -2.202900
     14          1           0       -4.004780   -0.897690   -1.665050
     15          1           0       -4.118640   -4.644440   -2.609850
     16          1           0       -1.105940   -3.064130   -1.414280
     17          1           0       -4.357060   -2.538590    0.494560
     18          1           0       -4.073250   -0.044060    0.387970
 ---------------------------------------------------------------------
                    Distance matrix (angstroms):
                    1          2          3          4          5
     1  Si   0.000000
     2  O    1.645381   0.000000
     3  O    1.634988   2.668564   0.000000
     4  O    1.635840   2.679793   2.670013   0.000000
     5  O    1.635092   2.674878   2.687414   2.666459   0.000000
     6  H    2.223281   2.784998   3.080598   3.517050   0.971175
     7  H    2.212979   3.211144   3.448755   0.969856   2.677870
     8  H    2.215817   3.501254   0.969052   2.747824   3.116921
     9  Si   3.800007   2.791439   5.023110   4.776266   3.537704
    10  O    4.755492   3.314349   5.792055   5.680382   4.914341
    11  O    3.311576   2.570390   4.842564   3.742960   3.223108
    12  O    5.075027   4.344235   6.299149   6.016273   4.346331
    13  O    2.987010   2.293564   3.829049   4.387091   2.681892
    14  H    2.445772   1.562113   3.119461   3.904462   2.677893
    15  H    5.035964   4.611695   6.296662   5.904475   4.041522
    16  H    5.649388   4.253688   6.656921   6.609861   5.659544
    17  H    2.760565   1.919743   4.270926   3.045493   3.140437
    18  H    2.205033   0.971370   2.809871   2.958319   3.528443
                    6          7          8          9         10
     6  H    0.000000
     7  H    3.574454   0.000000
     8  H    3.668670   3.487805   0.000000
     9  Si   3.064414   4.793993   5.859718   0.000000
    10  O    4.470817   5.853623   6.700463   1.637419   0.000000
    11  O    3.206242   3.570620   5.526825   1.637958   2.680078
    12  O    3.731680   5.847029   7.081401   1.636907   2.672065
    13  O    1.991871   4.607760   4.703264   1.640833   2.674924
    14  H    2.227526   4.312346   4.050649   2.204836   2.869808
    15  H    3.464333   5.618615   6.992222   2.211944   3.534225
    16  H    5.119453   6.737920   7.576496   2.206091   0.969509
    17  H    3.310401   3.034948   4.937065   2.213099   2.936350
    18  H    3.688110   3.653778   3.607399   3.519388   3.654915
                   11         12         13         14         15
    11  O    0.000000
    12  O    2.681821   0.000000
    13  O    2.657016   2.685597   0.000000
    14  H    2.882079   3.544076   0.972692   0.000000
    15  H    2.856437   0.967857   2.967687   3.865714   0.000000
    16  H    3.401502   2.650196   3.277750   3.627619   3.605985
    17  H    0.970194   3.545314   2.847045   2.735063   3.758831
    18  H    3.296308   5.133342   3.080406   2.224469   5.491127
                   16         17         18
    16  H    0.000000
    17  H    3.806526   0.000000
    18  H    4.601506   2.512885   0.000000
 Stoichiometry    H8O8Si2
 Framework group  C1[X(H8O8Si2)]
 Deg. of freedom    48
 Full point group                 C1      NOp   1
 Largest Abelian subgroup         C1      NOp   1
 Largest concise Abelian subgroup C1      NOp   1
                         Standard orientation:                         
 ---------------------------------------------------------------------
 Center     Atomic      Atomic             Coordinates (Angstroms)
 Number     Number       Type             X           Y           Z
 ---------------------------------------------------------------------
      1         14           0       -1.888247   -0.005562   -0.011453
      2          8           0       -0.658623    1.062631    0.221498
      3          8           0       -2.951949    0.635916   -1.074575
      4          8           0       -2.644027   -0.287542    1.411662
      5          8           0       -1.280275   -1.410673   -0.585526
      6          1           0       -0.567659   -1.307988   -1.237304
      7          1           0       -2.375730   -1.115235    1.840104
      8          1           0       -3.855946    0.298873   -0.983731
      9         14           0        1.911723   -0.004482    0.005343
     10          8           0        2.633166    1.448641    0.226911
     11          8           0        1.095795   -0.431734    1.359826
     12          8           0        3.049941   -1.129280   -0.339264
     13          8           0        0.836858    0.104394   -1.229624
     14          1           0        0.163700    0.790041   -1.078378
     15          1           0        2.707152   -2.033842   -0.371073
     16          1           0        3.570477    1.449713   -0.020869
     17          1           0        0.362986    0.165833    1.577035
     18          1           0       -0.980741    1.954415    0.432499
 ---------------------------------------------------------------------
 Rotational constants (GHZ):           2.0083305           0.5366254           0.5333924
 Standard basis: 6-31+G(d,p) (6D, 7F)
 There are   238 symmetry adapted cartesian basis functions of A   symmetry.
 There are   238 symmetry adapted basis functions of A   symmetry.
   238 basis functions,   424 primitive gaussians,   238 cartesian basis functions
    50 alpha electrons       50 beta electrons
       nuclear repulsion energy       882.0683115002 Hartrees.
 NAtoms=   18 NActive=   18 NUniq=   18 SFac= 1.00D+00 NAtFMM=   60 NAOKFM=F Big=F
 Integral buffers will be    131072 words long.
 Raffenetti 2 integral format.
 Two-electron integral symmetry is turned on.
 Nuclear repulsion after empirical dispersion term =      882.0519215455 Hartrees.
 One-electron integrals computed using PRISM.
 NBasis=   238 RedAO= T EigKep=  2.31D-04  NBF=   238
 NBsUse=   238 1.00D-06 EigRej= -1.00D+00 NBFU=   238
 ExpMin= 3.31D-02 ExpMax= 1.61D+04 ExpMxC= 2.43D+03 IAcc=3 IRadAn=         5 AccDes= 0.00D+00
 Harris functional with IExCor=  402 and IRadAn=       5 diagonalized for initial guess.
 HarFok:  IExCor=  402 AccDes= 0.00D+00 IRadAn=         5 IDoV= 1 UseB2=F ITyADJ=14
 ICtDFT=  3500011 ScaDFX=  1.000000  1.000000  1.000000  1.000000
 FoFCou: FMM=F IPFlag=           0 FMFlag=      100000 FMFlg1=           0
         NFxFlg=           0 DoJE=T BraDBF=F KetDBF=T FulRan=T
         wScrn=  0.000000 ICntrl=       500 IOpCl=  0 I1Cent=   200000004 NGrid=           0
         NMat0=    1 NMatS0=      1 NMatT0=    0 NMatD0=    1 NMtDS0=    0 NMtDT0=    0
 Petite list used in FoFCou.
 Requested convergence on RMS density matrix=1.00D-08 within 128 cycles.
 Requested convergence on MAX density matrix=1.00D-06.
 Requested convergence on             energy=1.00D-06.
 No special actions if energy rises.
 SCF Done:  E(RB3LYP) =  -1186.02761241     A.U. after   12 cycles
            NFock= 12  Conv=0.24D-08     -V/T= 2.0062

 **********************************************************************

            Population analysis using the SCF Density.

 **********************************************************************

 Orbital symmetries:
       Occupied  (A) (A) (A) (A) (A) (A) (A) (A) (A) (A) (A) (A)
                 (A) (A) (A) (A) (A) (A) (A) (A) (A) (A) (A) (A)
                 (A) (A) (A) (A) (A) (A) (A) (A) (A) (A) (A) (A)
                 (A) (A) (A) (A) (A) (A) (A) (A) (A) (A) (A) (A)
                 (A) (A)
       Virtual   (A) (A) (A) (A) (A) (A) (A) (A) (A) (A) (A) (A)
                 (A) (A) (A) (A) (A) (A) (A) (A) (A) (A) (A) (A)
                 (A) (A) (A) (A) (A) (A) (A) (A) (A) (A) (A) (A)
                 (A) (A) (A) (A) (A) (A) (A) (A) (A) (A) (A) (A)
                 (A) (A) (A) (A) (A) (A) (A) (A) (A) (A) (A) (A)
                 (A) (A) (A) (A) (A) (A) (A) (A) (A) (A) (A) (A)
                 (A) (A) (A) (A) (A) (A) (A) (A) (A) (A) (A) (A)
                 (A) (A) (A) (A) (A) (A) (A) (A) (A) (A) (A) (A)
                 (A) (A) (A) (A) (A) (A) (A) (A) (A) (A) (A) (A)
                 (A) (A) (A) (A) (A) (A) (A) (A) (A) (A) (A) (A)
                 (A) (A) (A) (A) (A) (A) (A) (A) (A) (A) (A) (A)
                 (A) (A) (A) (A) (A) (A) (A) (A) (A) (A) (A) (A)
                 (A) (A) (A) (A) (A) (A) (A) (A) (A) (A) (A) (A)
                 (A) (A) (A) (A) (A) (A) (A) (A) (A) (A) (A) (A)
                 (A) (A) (A) (A) (A) (A) (A) (A) (A) (A) (A) (A)
                 (A) (A) (A) (A) (A) (A) (A) (A)
 The electronic state is 1-A.
 Alpha  occ. eigenvalues --  -66.23508 -66.20340 -19.21503 -19.18702 -19.18420
 Alpha  occ. eigenvalues --  -19.16794 -19.16471 -19.15979 -19.14603 -19.14066
 Alpha  occ. eigenvalues --   -5.37130  -5.33917  -3.73170  -3.73057  -3.73037
 Alpha  occ. eigenvalues --   -3.69948  -3.69861  -3.69830  -1.09219  -1.04753
 Alpha  occ. eigenvalues --   -1.03693  -1.02644  -1.01376  -1.00493  -0.99621
 Alpha  occ. eigenvalues --   -0.99073  -0.62048  -0.59111  -0.56794  -0.55122
 Alpha  occ. eigenvalues --   -0.54085  -0.53245  -0.52534  -0.51738  -0.46305
 Alpha  occ. eigenvalues --   -0.42009  -0.41319  -0.40048  -0.39740  -0.38525
 Alpha  occ. eigenvalues --   -0.38027  -0.37732  -0.37343  -0.36572  -0.35100
 Alpha  occ. eigenvalues --   -0.34674  -0.34284  -0.32463  -0.32315  -0.29970
 Alpha virt. eigenvalues --   -0.03962  -0.00739  -0.00005   0.00832   0.02151
 Alpha virt. eigenvalues --    0.03453   0.05041   0.07062   0.08254   0.09747
 Alpha virt. eigenvalues --    0.10316   0.11068   0.12125   0.12395   0.13259
 Alpha virt. eigenvalues --    0.13441   0.13700   0.14499   0.15144   0.16024
 Alpha virt. eigenvalues --    0.16619   0.17153   0.17660   0.18259   0.18573
 Alpha virt. eigenvalues --    0.19197   0.19504   0.20476   0.21280   0.21954
 Alpha virt. eigenvalues --    0.22416   0.22929   0.23511   0.24282   0.25119
 Alpha virt. eigenvalues --    0.25487   0.26048   0.27049   0.28216   0.28519
 Alpha virt. eigenvalues --    0.29283   0.29598   0.29926   0.30814   0.31053
 Alpha virt. eigenvalues --    0.32575   0.33946   0.34407   0.37200   0.37439
 Alpha virt. eigenvalues --    0.38191   0.39024   0.40518   0.41434   0.43594
 Alpha virt. eigenvalues --    0.44134   0.48408   0.50091   0.51568   0.52311
 Alpha virt. eigenvalues --    0.54222   0.56714   0.60783   0.61964   0.64027
 Alpha virt. eigenvalues --    0.64890   0.66965   0.76220   0.90774   0.93190
 Alpha virt. eigenvalues --    0.94625   0.95168   0.96403   0.97584   0.98205
 Alpha virt. eigenvalues --    0.99543   1.00017   1.01606   1.04836   1.06964
 Alpha virt. eigenvalues --    1.10131   1.11388   1.14638   1.16341   1.16786
 Alpha virt. eigenvalues --    1.18147   1.18351   1.18922   1.20176   1.20594
 Alpha virt. eigenvalues --    1.21554   1.22293   1.23422   1.24213   1.25488
 Alpha virt. eigenvalues --    1.26158   1.27101   1.28432   1.29585   1.30192
 Alpha virt. eigenvalues --    1.31758   1.32782   1.33942   1.36295   1.38008
 Alpha virt. eigenvalues --    1.43286   1.45324   1.48931   1.53470   1.54591
 Alpha virt. eigenvalues --    1.56428   1.58027   1.58714   1.60229   1.61237
 Alpha virt. eigenvalues --    1.63835   1.64759   1.66006   1.68476   1.68736
 Alpha virt. eigenvalues --    1.70043   1.70539   1.72733   1.75340   1.75950
 Alpha virt. eigenvalues --    1.78865   1.84318   1.84818   1.89610   1.91865
 Alpha virt. eigenvalues --    1.92979   1.95617   1.99205   2.02019   2.05112
 Alpha virt. eigenvalues --    2.10622   2.15536   2.16202   2.36326   2.37255
 Alpha virt. eigenvalues --    2.37556   2.38585   2.39372   2.40258   2.42782
 Alpha virt. eigenvalues --    2.46972   2.48492   2.51821   2.55787   2.58916
 Alpha virt. eigenvalues --    2.59487   2.60292   2.61642   2.62576   2.63106
 Alpha virt. eigenvalues --    2.65262   2.66921   2.68379   2.69099   2.71660
 Alpha virt. eigenvalues --    2.73307   2.75594   2.76509   2.77697   2.79223
 Alpha virt. eigenvalues --    2.80283   2.81957   2.84522   2.88395   2.98560
 Alpha virt. eigenvalues --    3.03541   3.05544   3.40573   3.41592   3.42492
 Alpha virt. eigenvalues --    3.45646   3.46269   3.52847   3.56002   3.67119
 Alpha virt. eigenvalues --    4.16674   4.18952   4.19958   4.24524   4.25568
 Alpha virt. eigenvalues --    4.31293   4.45333   4.67416
          Condensed to atoms (all electrons):
               1          2          3          4          5          6
     1  Si  12.006367  -0.140475  -0.055021   0.019926   0.057798   0.045280
     2  O   -0.140475   8.892809   0.085088   0.035906   0.036495  -0.009892
     3  O   -0.055021   0.085088   8.646168  -0.051771  -0.012777  -0.005629
     4  O    0.019926   0.035906  -0.051771   8.561395   0.067424   0.005624
     5  O    0.057798   0.036495  -0.012777   0.067424   8.476462   0.237082
     6  H    0.045280  -0.009892  -0.005629   0.005624   0.237082   0.302799
     7  H    0.043502  -0.008422   0.005470   0.239951  -0.003358   0.000063
     8  H    0.042328   0.001604   0.233225  -0.000172  -0.007290  -0.000015
     9  Si   0.092275  -0.164040   0.005704   0.008874  -0.098126   0.008205
    10  O    0.001149   0.040016   0.000151  -0.000918  -0.000963   0.000178
    11  O   -0.048771   0.072049  -0.002094  -0.017558   0.057656  -0.006904
    12  O    0.001193  -0.027604  -0.000299   0.001648  -0.005713   0.001117
    13  O   -0.025987  -0.021119  -0.025066  -0.008996   0.050169   0.016195
    14  H    0.016383  -0.002481   0.002965   0.002537  -0.012512  -0.001747
    15  H   -0.000149   0.000234   0.000001  -0.000019  -0.000665   0.000094
    16  H   -0.000322   0.000327   0.000001  -0.000001   0.000058  -0.000003
    17  H    0.005357  -0.004044   0.000294   0.009374  -0.009554   0.000627
    18  H    0.035780   0.214664   0.000157  -0.008359   0.004325  -0.000061
               7          8          9         10         11         12
     1  Si   0.043502   0.042328   0.092275   0.001149  -0.048771   0.001193
     2  O   -0.008422   0.001604  -0.164040   0.040016   0.072049  -0.027604
     3  O    0.005470   0.233225   0.005704   0.000151  -0.002094  -0.000299
     4  O    0.239951  -0.000172   0.008874  -0.000918  -0.017558   0.001648
     5  O   -0.003358  -0.007290  -0.098126  -0.000963   0.057656  -0.005713
     6  H    0.000063  -0.000015   0.008205   0.000178  -0.006904   0.001117
     7  H    0.342333   0.000061   0.001052  -0.000005  -0.001606  -0.000018
     8  H    0.000061   0.353475   0.000008  -0.000001   0.000094  -0.000000
     9  Si   0.001052   0.000008  12.118564  -0.124776  -0.109873   0.054489
    10  O   -0.000005  -0.000001  -0.124776   8.676503   0.095873  -0.034961
    11  O   -0.001606   0.000094  -0.109873   0.095873   8.575173   0.013445
    12  O   -0.000018  -0.000000   0.054489  -0.034961   0.013445   8.526209
    13  O   -0.000205   0.000408  -0.175871   0.097266   0.090747   0.022198
    14  H    0.000008  -0.000041   0.062091  -0.006760  -0.019806   0.009293
    15  H    0.000000   0.000000   0.049481   0.009609  -0.007367   0.235533
    16  H    0.000000  -0.000000   0.035839   0.230618   0.000868  -0.001543
    17  H    0.000221  -0.000003   0.055890  -0.006340   0.235169   0.007265
    18  H    0.000101   0.000037  -0.005135   0.000394   0.003219  -0.000088
              13         14         15         16         17         18
     1  Si  -0.025987   0.016383  -0.000149  -0.000322   0.005357   0.035780
     2  O   -0.021119  -0.002481   0.000234   0.000327  -0.004044   0.214664
     3  O   -0.025066   0.002965   0.000001   0.000001   0.000294   0.000157
     4  O   -0.008996   0.002537  -0.000019  -0.000001   0.009374  -0.008359
     5  O    0.050169  -0.012512  -0.000665   0.000058  -0.009554   0.004325
     6  H    0.016195  -0.001747   0.000094  -0.000003   0.000627  -0.000061
     7  H   -0.000205   0.000008   0.000000   0.000000   0.000221   0.000101
     8  H    0.000408  -0.000041   0.000000  -0.000000  -0.000003   0.000037
     9  Si  -0.175871   0.062091   0.049481   0.035839   0.055890  -0.005135
    10  O    0.097266  -0.006760   0.009609   0.230618  -0.006340   0.000394
    11  O    0.090747  -0.019806  -0.007367   0.000868   0.235169   0.003219
    12  O    0.022198   0.009293   0.235533  -0.001543   0.007265  -0.000088
    13  O    8.747699   0.218209  -0.008602  -0.004707  -0.024085   0.015865
    14  H    0.218209   0.335413  -0.000036  -0.000085   0.001243  -0.004394
    15  H   -0.008602  -0.000036   0.361922   0.000010  -0.000027   0.000001
    16  H   -0.004707  -0.000085   0.000010   0.359963  -0.000049   0.000007
    17  H   -0.024085   0.001243  -0.000027  -0.000049   0.342508  -0.000794
    18  H    0.015865  -0.004394   0.000001   0.000007  -0.000794   0.320130
 Mulliken charges:
               1
     1  Si   1.903386
     2  O   -1.001115
     3  O   -0.826569
     4  O   -0.864863
     5  O   -0.836512
     6  H    0.406985
     7  H    0.380852
     8  H    0.376283
     9  Si   2.185350
    10  O   -0.977030
    11  O   -0.930313
    12  O   -0.802162
    13  O   -0.964116
    14  H    0.399721
    15  H    0.359983
    16  H    0.379020
    17  H    0.386949
    18  H    0.424151
 Sum of Mulliken charges =  -0.00000
 Mulliken charges with hydrogens summed into heavy atoms:
               1
     1  Si   1.903386
     2  O   -0.576964
     3  O   -0.450286
     4  O   -0.484011
     5  O   -0.429526
     9  Si   2.185350
    10  O   -0.598010
    11  O   -0.543364
    12  O   -0.442179
    13  O   -0.564396
 Electronic spatial extent (au):  <R**2>=           2184.1884
 Charge=             -0.0000 electrons
 Dipole moment (field-independent basis, Debye):
    X=             -2.2835    Y=              0.4306    Z=              0.4288  Tot=              2.3630
 Quadrupole moment (field-independent basis, Debye-Ang):
   XX=            -66.6523   YY=            -66.5841   ZZ=            -76.3379
   XY=             -0.0256   XZ=             -2.3320   YZ=              0.7321
 Traceless Quadrupole moment (field-independent basis, Debye-Ang):
   XX=              3.2058   YY=              3.2740   ZZ=             -6.4798
   XY=             -0.0256   XZ=             -2.3320   YZ=              0.7321
 Octapole moment (field-independent basis, Debye-Ang**2):
  XXX=            -20.1765  YYY=             -3.4689  ZZZ=              6.6001  XYY=              4.8154
  XXY=              3.6126  XXZ=            -11.7003  XZZ=             -7.6286  YZZ=             -5.8118
  YYZ=              3.0731  XYZ=              2.5028
 Hexadecapole moment (field-independent basis, Debye-Ang**3):
 XXXX=          -1662.5956 YYYY=           -321.7219 ZZZZ=           -360.4859 XXXY=            102.8294
 XXXZ=             57.7682 YYYX=            -56.1504 YYYZ=              5.7858 ZZZX=            -13.3397
 ZZZY=             -2.7996 XXYY=           -353.2539 XXZZ=           -409.0040 YYZZ=           -110.2464
 XXYZ=            -13.6529 YYXZ=            -33.5386 ZZXY=             21.4370
 N-N= 8.820519215455D+02 E-N=-4.574176586769D+03  KE= 1.178755627042D+03
 Calling FoFJK, ICntrl=      2127 FMM=F ISym2X=0 I1Cent= 0 IOpClX= 0 NMat=1 NMatS=1 NMatT=0.
 ***** Axes restored to original set *****
 -------------------------------------------------------------------
 Center     Atomic                   Forces (Hartrees/Bohr)
 Number     Number              X              Y              Z
 -------------------------------------------------------------------
      1       14          -0.035029290   -0.005443207   -0.011070520
      2        8           0.009661512    0.040394770    0.038178447
      3        8           0.000518745    0.011698219    0.006397039
      4        8          -0.007186408   -0.007540754    0.005078659
      5        8          -0.004281820   -0.000831218    0.002922733
      6        1           0.001988245   -0.002645996    0.002091734
      7        1           0.000835209    0.003860027    0.002080434
      8        1           0.004535294    0.000623123   -0.002245245
      9       14          -0.002237354    0.002893239    0.003017929
     10        8           0.015226065   -0.005710721   -0.003682480
     11        8          -0.003947292   -0.012315248    0.012930949
     12        8          -0.005390396   -0.004944779   -0.003158871
     13        8           0.005986770   -0.004941144   -0.042618143
     14        1           0.010571213   -0.008007392   -0.008808237
     15        1           0.004327901   -0.001691152   -0.000952548
     16        1          -0.000301849    0.004463371    0.004203205
     17        1           0.002871417   -0.008363360   -0.004600112
     18        1           0.001852036   -0.001497781    0.000235027
 -------------------------------------------------------------------
 Cartesian Forces:  Max     0.042618143 RMS     0.012138689

 GradGradGradGradGradGradGradGradGradGradGradGradGradGradGradGradGradGrad
 Berny optimization.
 FormGI is forming the generalized inverse of G from B-inverse, IUseBI=4.
 Internal  Forces:  Max     0.037055174 RMS     0.011558370
 Search for a local minimum.
 Step number   1 out of a maximum of   81
 All quantities printed in internal units (Hartrees-Bohrs-Radians)
 Mixed Optimization -- RFO/linear search
 Second derivative matrix not updated -- first step.
 ITU=  0
     Eigenvalues ---    0.00568   0.03739   0.03799   0.03837   0.03844
     Eigenvalues ---    0.03851   0.03865   0.03875   0.03876   0.05071
     Eigenvalues ---    0.07178   0.10450   0.10703   0.10772   0.12173
     Eigenvalues ---    0.12189   0.12197   0.12246   0.12480   0.16000
     Eigenvalues ---    0.16000   0.16000   0.16000   0.16000   0.16000
     Eigenvalues ---    0.16000   0.20131   0.20260   0.20696   0.20836
     Eigenvalues ---    0.21272   0.41130   0.43799   0.44527   0.44613
     Eigenvalues ---    0.44696   0.44868   0.44990   0.45007   0.51704
     Eigenvalues ---    0.53098   0.53138   0.53337   0.53406   0.53477
     Eigenvalues ---    0.53571   0.538171000.000001000.000001000.00000
     Eigenvalues --- 1000.000001000.000001000.000001000.000001000.00000
     Eigenvalues --- 1000.000001000.000001000.000001000.000001000.00000
     Eigenvalues --- 1000.000001000.000001000.000001000.000001000.00000
     Eigenvalues --- 1000.000001000.000001000.000001000.000001000.00000
     Eigenvalues --- 1000.00000
 RFO step:  Lambda=-4.84121260D-02 EMin= 5.67723768D-03
 Linear search not attempted -- first point.
 Maximum step size (   0.300) exceeded in Quadratic search.
    -- Step size scaled by   0.737
 Iteration  1 RMS(Cart)=  0.25381523 RMS(Int)=  0.01612629
 Iteration  2 RMS(Cart)=  0.06980562 RMS(Int)=  0.00113830
 Iteration  3 RMS(Cart)=  0.00175963 RMS(Int)=  0.00065456
 Iteration  4 RMS(Cart)=  0.00000191 RMS(Int)=  0.00065456
 Iteration  5 RMS(Cart)=  0.00000000 RMS(Int)=  0.00065456
 Iteration  1 RMS(Cart)=  0.00031745 RMS(Int)=  0.00003142
 Iteration  2 RMS(Cart)=  0.00001930 RMS(Int)=  0.00003231
 Iteration  3 RMS(Cart)=  0.00000117 RMS(Int)=  0.00003242
 Iteration  4 RMS(Cart)=  0.00000007 RMS(Int)=  0.00003243
 Variable       Old X    -DE/DX   Delta X   Delta X   Delta X     New X
                                 (Linear)    (Quad)   (Total)
    R1        3.10932   0.01204   0.00000   0.02898   0.02828   3.13760
    R2        3.08968   0.00943   0.00000   0.01393   0.01393   3.10361
    R3        3.09129   0.00986   0.00000   0.01461   0.01461   3.10590
    R4        3.08988  -0.00050   0.00000  -0.00074  -0.00074   3.08913
    R5        7.18097   0.03378   0.00000   0.00000   0.00000   7.18097
    R6        2.95197   0.03553   0.00000   0.20223   0.20151   3.15347
    R7        1.83562  -0.00023   0.00000  -0.00029  -0.00029   1.83534
    R8        1.83124  -0.00447   0.00000  -0.00564  -0.00564   1.82560
    R9        1.83276  -0.00375   0.00000  -0.00475  -0.00475   1.82801
   R10        1.83526  -0.00008   0.00000  -0.00010  -0.00010   1.83516
   R11        3.09427   0.01367   0.00000   0.02037   0.02037   3.11464
   R12        3.09529   0.01142   0.00000   0.01705   0.01705   3.11234
   R13        3.09331   0.00773   0.00000   0.01150   0.01150   3.10481
   R14        3.10072   0.00567   0.00000   0.01771   0.01702   3.11774
   R15        1.83211  -0.00454   0.00000  -0.00573  -0.00573   1.82637
   R16        1.83340  -0.00973   0.00000  -0.01232  -0.01232   1.82108
   R17        1.82899  -0.00304   0.00000  -0.00382  -0.00382   1.82517
   R18        1.83812   0.02178   0.00000   0.03599   0.03514   1.87326
    A1        1.90027  -0.01410   0.00000  -0.04500  -0.04503   1.85524
    A2        1.91135   0.00546   0.00000   0.01127   0.01111   1.92247
    A3        1.90681   0.00446   0.00000   0.01562   0.01586   1.92267
    A4        1.90999   0.00088   0.00000  -0.00123  -0.00131   1.90868
    A5        1.92919   0.01034   0.00000   0.03599   0.03619   1.96538
    A6        1.90614  -0.00699   0.00000  -0.01663  -0.01671   1.88943
    A7        1.73382  -0.00594   0.00000   0.01549   0.01356   1.74738
    A8        1.95946   0.01579   0.00000   0.04698   0.04764   2.00710
    A9        2.11242  -0.00045   0.00000  -0.00337  -0.00426   2.10816
   A10        1.99270   0.00446   0.00000   0.01579   0.01579   2.00848
   A11        1.98626   0.00441   0.00000   0.01559   0.01559   2.00185
   A12        2.00160  -0.00065   0.00000  -0.00228  -0.00228   1.99932
   A13        1.91672  -0.00037   0.00000   0.00463   0.00320   1.91992
   A14        1.90914   0.00031   0.00000  -0.01631  -0.01682   1.89232
   A15        1.90878  -0.00299   0.00000  -0.00215  -0.00357   1.90521
   A16        1.91902  -0.01231   0.00000  -0.04167  -0.04131   1.87771
   A17        1.88955   0.02440   0.00000   0.08746   0.08711   1.97666
   A18        1.92053  -0.00886   0.00000  -0.03102  -0.03058   1.88995
   A19        1.97400   0.00756   0.00000   0.02672   0.02672   2.00072
   A20        1.98311   0.00053   0.00000   0.00187   0.00187   1.98498
   A21        1.98543   0.00662   0.00000   0.02339   0.02339   2.00882
   A22        1.96394   0.01175   0.00000   0.08972   0.08785   2.05178
   A23        2.23535   0.03706   0.00000   0.13143   0.12903   2.36437
    D1       -1.37391  -0.00540   0.00000  -0.02927  -0.02960  -1.40351
    D2        0.88091  -0.00126   0.00000   0.00256   0.00309   0.88399
    D3        2.82153  -0.00122   0.00000  -0.00739  -0.00780   2.81373
    D4       -1.20684   0.00292   0.00000   0.02444   0.02489  -1.18195
    D5        0.73451   0.00132   0.00000  -0.00335  -0.00389   0.73062
    D6        2.98933   0.00546   0.00000   0.02848   0.02879   3.01812
    D7       -2.69128   0.00128   0.00000   0.00785   0.00747  -2.68381
    D8       -0.60268  -0.00004   0.00000  -0.00622  -0.00611  -0.60880
    D9        1.49729  -0.00164   0.00000  -0.00501  -0.00474   1.49255
   D10       -1.74557  -0.00585   0.00000  -0.02058  -0.02062  -1.76619
   D11        2.45585   0.00754   0.00000   0.02829   0.02834   2.48419
   D12        0.34186  -0.00135   0.00000  -0.00481  -0.00482   0.33704
   D13       -0.69349   0.00661   0.00000   0.03050   0.03027  -0.66322
   D14        1.39720  -0.00159   0.00000   0.00707   0.00729   1.40449
   D15       -2.78372   0.00148   0.00000   0.01739   0.01740  -2.76632
   D16       -1.49019   0.02682   0.00000   0.20536   0.20632  -1.28387
   D17        2.64325   0.01135   0.00000   0.13313   0.13423   2.77748
   D18        2.27493  -0.01416   0.00000  -0.05433  -0.05414   2.22079
   D19        0.16739   0.00105   0.00000   0.00439   0.00446   0.17185
   D20       -1.93707   0.01356   0.00000   0.05380   0.05355  -1.88353
   D21        1.11425   0.00493   0.00000   0.02178   0.02237   1.13662
   D22       -3.06737  -0.00269   0.00000  -0.02175  -0.02119  -3.08856
   D23       -0.96874  -0.00584   0.00000  -0.03069  -0.03183  -1.00058
   D24        3.01248   0.00011   0.00000  -0.00150  -0.00138   3.01111
   D25        0.90635   0.00806   0.00000   0.02910   0.02899   0.93534
   D26       -1.17342  -0.00887   0.00000  -0.03356  -0.03357  -1.20699
   D27       -1.00292  -0.00058   0.00000   0.01747   0.01705  -0.98586
   D28        1.08508   0.01168   0.00000   0.07360   0.07441   1.15949
   D29       -3.10042   0.00639   0.00000   0.05808   0.05769  -3.04273
   D30       -0.80091   0.02634   0.00000   0.12868   0.13058  -0.67032
         Item               Value     Threshold  Converged?
 Maximum Force            0.034110     0.000450     NO 
 RMS     Force            0.010858     0.000300     NO 
 Maximum Displacement     0.862156     0.001800     NO 
 RMS     Displacement     0.313229     0.001200     NO 
 Predicted change in Energy=-2.720745D-02
 GradGradGradGradGradGradGradGradGradGradGradGradGradGradGradGradGradGrad

                          Input orientation:                          
 ---------------------------------------------------------------------
 Center     Atomic      Atomic             Coordinates (Angstroms)
 Number     Number       Type             X           Y           Z
 ---------------------------------------------------------------------
      1         14           0       -6.030961   -0.526300   -0.328061
      2          8           0       -4.385443   -0.401888   -0.144926
      3          8           0       -6.524682    0.877152   -1.023699
      4          8           0       -6.753087   -0.690656    1.139197
      5          8           0       -6.399824   -1.838639   -1.230249
      6          1           0       -5.786326   -2.009748   -1.963341
      7          1           0       -7.011734   -1.595438    1.363304
      8          1           0       -7.440013    1.125447   -0.839838
      9         14           0       -3.377261   -2.997513   -1.464298
     10          8           0       -1.911726   -2.759461   -0.748689
     11          8           0       -4.472045   -3.514648   -0.347799
     12          8           0       -3.218718   -4.183403   -2.590334
     13          8           0       -3.835975   -1.611675   -2.233065
     14          1           0       -3.888701   -0.782881   -1.691796
     15          1           0       -4.045535   -4.480744   -2.991336
     16          1           0       -1.175201   -3.215019   -1.177725
     17          1           0       -4.667982   -2.862588    0.334178
     18          1           0       -4.081114    0.412173    0.288608
 ---------------------------------------------------------------------
                    Distance matrix (angstroms):
                    1          2          3          4          5
     1  Si   0.000000
     2  O    1.660345   0.000000
     3  O    1.642361   2.642826   0.000000
     4  O    1.643571   2.708893   2.681103   0.000000
     5  O    1.634698   2.701835   2.726495   2.656490   0.000000
     6  H    2.221397   2.802555   3.124466   3.507189   0.971123
     7  H    2.228382   3.255261   3.471124   0.967343   2.675836
     8  H    2.230607   3.485118   0.966067   2.772486   3.165473
     9  Si   3.800007   3.081305   5.011329   4.847265   3.245559
    10  O    4.704470   3.470151   5.880472   5.593107   4.606825
    11  O    3.370584   3.120565   4.894698   3.922912   2.702602
    12  O    5.138190   4.652001   6.244435   6.212926   4.179376
    13  O    3.102425   2.475039   3.858234   4.553018   2.762331
    14  H    2.552427   1.668746   3.185978   4.028366   2.762859
    15  H    5.164551   4.985444   6.222927   6.225505   3.952825
    16  H    5.615118   4.391586   6.736953   6.546247   5.403135
    17  H    2.784693   2.522779   4.390538   3.116570   2.548564
    18  H    2.250092   0.971218   2.812362   3.013167   3.570644
                    6          7          8          9         10
     6  H    0.000000
     7  H    3.569291   0.000000
     8  H    3.718385   3.527105   0.000000
     9  Si   2.651097   4.813578   5.821915   0.000000
    10  O    4.129161   5.641413   6.757423   1.648199   0.000000
    11  O    2.569442   3.614036   5.530047   1.646982   2.699306
    12  O    3.422062   6.059355   7.004817   1.642993   2.669737
    13  O    2.008752   4.797872   4.735188   1.649839   2.687660
    14  H    2.275944   4.443784   4.120602   2.284277   2.950381
    15  H    3.192640   6.007180   6.897884   2.231235   3.541952
    16  H    4.830356   6.568484   7.629002   2.231256   0.966475
    17  H    2.693812   2.856211   4.996688   2.217810   2.963138
    18  H    3.720850   3.711335   3.614464   3.897954   3.980137
                   11         12         13         14         15
    11  O    0.000000
    12  O    2.654623   0.000000
    13  O    2.753202   2.668789   0.000000
    14  H    3.099866   3.580475   0.991288   0.000000
    15  H    2.846672   0.965837   2.974971   3.922703   0.000000
    16  H    3.412878   2.666307   3.280880   3.680034   3.623542
    17  H    0.963673   3.521035   2.974518   3.006166   3.750322
    18  H    3.997220   5.491025   3.242666   2.321029   5.890665
                   16         17         18
    16  H    0.000000
    17  H    3.822248   0.000000
    18  H    4.873498   3.327244   0.000000
 Stoichiometry    H8O8Si2
 Framework group  C1[X(H8O8Si2)]
 Deg. of freedom    48
 Full point group                 C1      NOp   1
 Largest Abelian subgroup         C1      NOp   1
 Largest concise Abelian subgroup C1      NOp   1
                         Standard orientation:                         
 ---------------------------------------------------------------------
 Center     Atomic      Atomic             Coordinates (Angstroms)
 Number     Number       Type             X           Y           Z
 ---------------------------------------------------------------------
      1         14           0       -1.899785   -0.013234   -0.014801
      2          8           0       -0.893220    1.170294    0.570722
      3          8           0       -2.946251    0.735231   -1.035614
      4          8           0       -2.740276   -0.702549    1.217978
      5          8           0       -1.026468   -1.180313   -0.754721
      6          1           0       -0.265890   -0.854201   -1.262906
      7          1           0       -2.398316   -1.558558    1.511347
      8          1           0       -3.799950    0.295619   -1.141562
      9         14           0        1.900149   -0.001016    0.005426
     10          8           0        2.545769    1.115635    1.031498
     11          8           0        1.137281   -1.181007    0.864614
     12          8           0        3.125511   -0.708470   -0.829694
     13          8           0        0.911710    0.762037   -1.072863
     14          1           0        0.170347    1.309427   -0.707629
     15          1           0        2.866715   -1.459337   -1.379297
     16          1           0        3.484842    1.296083    0.891305
     17          1           0        0.368857   -0.868445    1.355016
     18          1           0       -1.344157    1.952043    0.929594
 ---------------------------------------------------------------------
 Rotational constants (GHZ):           1.9551856           0.5308750           0.5257496
 Standard basis: 6-31+G(d,p) (6D, 7F)
 There are   238 symmetry adapted cartesian basis functions of A   symmetry.
 There are   238 symmetry adapted basis functions of A   symmetry.
   238 basis functions,   424 primitive gaussians,   238 cartesian basis functions
    50 alpha electrons       50 beta electrons
       nuclear repulsion energy       873.9779982924 Hartrees.
 NAtoms=   18 NActive=   18 NUniq=   18 SFac= 1.00D+00 NAtFMM=   60 NAOKFM=F Big=F
 Integral buffers will be    131072 words long.
 Raffenetti 2 integral format.
 Two-electron integral symmetry is turned on.
 Nuclear repulsion after empirical dispersion term =      873.9610209826 Hartrees.
 One-electron integrals computed using PRISM.
 NBasis=   238 RedAO= T EigKep=  2.33D-04  NBF=   238
 NBsUse=   238 1.00D-06 EigRej= -1.00D+00 NBFU=   238
 Initial guess from the checkpoint file:  "/localscratch/sarashs.37136500.0/Gau-200616.chk"
 B after Tr=    -0.000000    0.000000   -0.000000
         Rot=    0.980264   -0.196888    0.010482   -0.014386 Ang= -22.80 deg.
 ExpMin= 3.31D-02 ExpMax= 1.61D+04 ExpMxC= 2.43D+03 IAcc=3 IRadAn=         5 AccDes= 0.00D+00
 Harris functional with IExCor=  402 and IRadAn=       5 diagonalized for initial guess.
 HarFok:  IExCor=  402 AccDes= 0.00D+00 IRadAn=         5 IDoV= 1 UseB2=F ITyADJ=14
 ICtDFT=  3500011 ScaDFX=  1.000000  1.000000  1.000000  1.000000
 FoFCou: FMM=F IPFlag=           0 FMFlag=      100000 FMFlg1=           0
         NFxFlg=           0 DoJE=T BraDBF=F KetDBF=T FulRan=T
         wScrn=  0.000000 ICntrl=       500 IOpCl=  0 I1Cent=   200000004 NGrid=           0
         NMat0=    1 NMatS0=      1 NMatT0=    0 NMatD0=    1 NMtDS0=    0 NMtDT0=    0
 Petite list used in FoFCou.
 Requested convergence on RMS density matrix=1.00D-08 within 128 cycles.
 Requested convergence on MAX density matrix=1.00D-06.
 Requested convergence on             energy=1.00D-06.
 No special actions if energy rises.
 SCF Done:  E(RB3LYP) =  -1186.03874968     A.U. after   12 cycles
            NFock= 12  Conv=0.41D-08     -V/T= 2.0064
 Calling FoFJK, ICntrl=      2127 FMM=F ISym2X=0 I1Cent= 0 IOpClX= 0 NMat=1 NMatS=1 NMatT=0.
 ***** Axes restored to original set *****
 -------------------------------------------------------------------
 Center     Atomic                   Forces (Hartrees/Bohr)
 Number     Number              X              Y              Z
 -------------------------------------------------------------------
      1       14          -0.020101249    0.003674027   -0.003542008
      2        8           0.002468420    0.014206380    0.011287540
      3        8          -0.000431044    0.006256261    0.004520615
      4        8          -0.003105141   -0.005450785    0.002390330
      5        8          -0.005073809    0.005580891    0.002582546
      6        1          -0.001301020    0.001450554    0.000044744
      7        1          -0.001160815    0.002788419    0.001174514
      8        1           0.001507565    0.000822618   -0.001889352
      9       14           0.015812043   -0.000075926    0.000680158
     10        8           0.005450369   -0.003528680   -0.001603978
     11        8           0.003929239   -0.001276495    0.002768553
     12        8          -0.004423851   -0.001677211   -0.002389457
     13        8          -0.004571053    0.004081779   -0.010862726
     14        1           0.009040782   -0.018791035   -0.007691608
     15        1           0.003096871   -0.001962535   -0.000884718
     16        1          -0.000628263    0.001868632    0.002260543
     17        1          -0.000062904   -0.003429775    0.001590605
     18        1          -0.000446138   -0.004537119   -0.000436301
 -------------------------------------------------------------------
 Cartesian Forces:  Max     0.020101249 RMS     0.006102109

 GradGradGradGradGradGradGradGradGradGradGradGradGradGradGradGradGradGrad
 Berny optimization.
 Using GEDIIS/GDIIS optimizer.
 FormGI is forming the generalized inverse of G from B-inverse, IUseBI=4.
 Internal  Forces:  Max     0.029194556 RMS     0.008163662
 Search for a local minimum.
 Step number   2 out of a maximum of   81
 All quantities printed in internal units (Hartrees-Bohrs-Radians)
 Mixed Optimization -- RFO/linear search
 Update second derivatives using D2CorX and points    1    2
 DE= -1.11D-02 DEPred=-2.72D-02 R= 4.09D-01
 Trust test= 4.09D-01 RLast= 4.35D-01 DXMaxT set to 3.00D-01
 ITU=  0  0
 Use linear search instead of GDIIS.
     Eigenvalues ---    0.00659   0.03696   0.03832   0.03844   0.03848
     Eigenvalues ---    0.03851   0.03865   0.03876   0.03895   0.04735
     Eigenvalues ---    0.08262   0.10380   0.10686   0.10909   0.11676
     Eigenvalues ---    0.12082   0.12197   0.12869   0.14411   0.15700
     Eigenvalues ---    0.16000   0.16000   0.16000   0.16000   0.16000
     Eigenvalues ---    0.18354   0.19586   0.20250   0.20621   0.20914
     Eigenvalues ---    0.31725   0.41718   0.43682   0.44236   0.44570
     Eigenvalues ---    0.44704   0.44820   0.44971   0.45226   0.52945
     Eigenvalues ---    0.53135   0.53157   0.53383   0.53456   0.53557
     Eigenvalues ---    0.53804   0.545361000.000001000.000001000.00000
     Eigenvalues --- 1000.000001000.000001000.000001000.000001000.00000
     Eigenvalues --- 1000.000001000.000001000.000001000.000001000.00000
     Eigenvalues --- 1000.000001000.000001000.000001000.000001000.00000
     Eigenvalues --- 1000.000001000.000001000.000001000.000001000.00000
     Eigenvalues --- 1000.00000
 RFO step:  Lambda=-1.71251377D-02 EMin= 6.58704268D-03
 Quartic linear search produced a step of -0.24814.
 Maximum step size (   0.300) exceeded in Quadratic search.
    -- Step size scaled by   0.929
 Iteration  1 RMS(Cart)=  0.21781381 RMS(Int)=  0.01172188
 Iteration  2 RMS(Cart)=  0.03523095 RMS(Int)=  0.00049367
 Iteration  3 RMS(Cart)=  0.00056245 RMS(Int)=  0.00042464
 Iteration  4 RMS(Cart)=  0.00000028 RMS(Int)=  0.00042464
 Iteration  1 RMS(Cart)=  0.00016837 RMS(Int)=  0.00001726
 Iteration  2 RMS(Cart)=  0.00001084 RMS(Int)=  0.00001777
 Iteration  3 RMS(Cart)=  0.00000070 RMS(Int)=  0.00001784
 Variable       Old X    -DE/DX   Delta X   Delta X   Delta X     New X
                                 (Linear)    (Quad)   (Total)
    R1        3.13760   0.01045  -0.00702   0.02633   0.01973   3.15733
    R2        3.10361   0.00461  -0.00346   0.01901   0.01555   3.11916
    R3        3.10590   0.00532  -0.00363   0.02066   0.01703   3.12293
    R4        3.08913  -0.00566   0.00018  -0.00885  -0.00867   3.08046
    R5        7.18097   0.02824  -0.00000   0.00000  -0.00000   7.18097
    R6        3.15347   0.01095  -0.05000   0.17061   0.12096   3.27444
    R7        1.83534  -0.00414   0.00007  -0.00536  -0.00529   1.83004
    R8        1.82560  -0.00158   0.00140  -0.00695  -0.00555   1.82005
    R9        1.82801  -0.00203   0.00118  -0.00671  -0.00553   1.82248
   R10        1.83516  -0.00111   0.00002  -0.00146  -0.00143   1.83372
   R11        3.11464   0.00433  -0.00505   0.02435   0.01929   3.13394
   R12        3.11234   0.00186  -0.00423   0.01781   0.01358   3.12592
   R13        3.10481   0.00474  -0.00285   0.01709   0.01424   3.11904
   R14        3.11774  -0.00093  -0.00422   0.00016  -0.00370   3.11404
   R15        1.82637  -0.00236   0.00142  -0.00800  -0.00657   1.81980
   R16        1.82108  -0.00118   0.00306  -0.01241  -0.00936   1.81172
   R17        1.82517  -0.00168   0.00095  -0.00544  -0.00450   1.82067
   R18        1.87326  -0.01040  -0.00872   0.00490  -0.00339   1.86987
    A1        1.85524  -0.01044   0.01117  -0.07403  -0.06299   1.79225
    A2        1.92247   0.00128  -0.00276   0.01488   0.01142   1.93388
    A3        1.92267   0.01277  -0.00394   0.06234   0.05847   1.98115
    A4        1.90868   0.00098   0.00032  -0.00980  -0.00969   1.89899
    A5        1.96538   0.00044  -0.00898   0.03076   0.02245   1.98783
    A6        1.88943  -0.00495   0.00415  -0.02393  -0.02029   1.86915
    A7        1.74738   0.00162  -0.00336  -0.04311  -0.04563   1.70175
    A8        2.00710  -0.00870  -0.01182   0.05315   0.04094   2.04804
    A9        2.10816   0.00503   0.00106   0.03819   0.03947   2.14763
   A10        2.00848   0.00346  -0.00392   0.02643   0.02251   2.03100
   A11        2.00185   0.00428  -0.00387   0.02938   0.02551   2.02736
   A12        1.99932  -0.00088   0.00057  -0.00525  -0.00469   1.99463
   A13        1.91992  -0.00428  -0.00079  -0.01099  -0.01279   1.90713
   A14        1.89232   0.00023   0.00417  -0.02212  -0.01856   1.87376
   A15        1.90521  -0.00154   0.00089  -0.00747  -0.00741   1.89780
   A16        1.87771  -0.00250   0.01025  -0.04398  -0.03370   1.84401
   A17        1.97666   0.01153  -0.02162   0.11622   0.09458   2.07124
   A18        1.88995  -0.00382   0.00759  -0.03776  -0.03000   1.85996
   A19        2.00072   0.00337  -0.00663   0.03522   0.02859   2.02930
   A20        1.98498   0.00532  -0.00046   0.02187   0.02141   2.00638
   A21        2.00882   0.00611  -0.00580   0.04292   0.03711   2.04594
   A22        2.05178  -0.02919  -0.02180  -0.13000  -0.15077   1.90102
   A23        2.36437  -0.00768  -0.03202   0.01525  -0.01561   2.34876
    D1       -1.40351  -0.00663   0.00734  -0.09388  -0.08592  -1.48942
    D2        0.88399  -0.00455  -0.00077  -0.04431  -0.04475   0.83925
    D3        2.81373  -0.00248   0.00193  -0.04755  -0.04524   2.76850
    D4       -1.18195  -0.00040  -0.00618   0.00202  -0.00407  -1.18602
    D5        0.73062  -0.00518   0.00096  -0.06642  -0.06602   0.66461
    D6        3.01812  -0.00310  -0.00715  -0.01684  -0.02484   2.99328
    D7       -2.68381   0.00396  -0.00185   0.01998   0.01765  -2.66616
    D8       -0.60880   0.00012   0.00152  -0.00923  -0.00717  -0.61597
    D9        1.49255  -0.00517   0.00118  -0.02620  -0.02509   1.46746
   D10       -1.76619  -0.00874   0.00512  -0.05816  -0.05297  -1.81916
   D11        2.48419   0.00258  -0.00703   0.02864   0.02185   2.50604
   D12        0.33704   0.00457   0.00120   0.01210   0.01299   0.35003
   D13       -0.66322   0.00262  -0.00751   0.02599   0.01797  -0.64525
   D14        1.40449  -0.00165  -0.00181  -0.00555  -0.00688   1.39761
   D15       -2.76632  -0.00353  -0.00432  -0.01470  -0.01899  -2.78530
   D16       -1.28387  -0.01990  -0.05120  -0.04563  -0.09737  -1.38125
   D17        2.77748  -0.01302  -0.03331  -0.10498  -0.13878   2.63869
   D18        2.22079  -0.00525   0.01343  -0.06730  -0.05346   2.16733
   D19        0.17185   0.00004  -0.00111   0.00475   0.00358   0.17543
   D20       -1.88353   0.00534  -0.01329   0.06671   0.05307  -1.83046
   D21        1.13662   0.00100  -0.00555   0.01975   0.01425   1.15088
   D22       -3.08856  -0.00253   0.00526  -0.03833  -0.03266  -3.12122
   D23       -1.00058  -0.00196   0.00790  -0.04431  -0.03688  -1.03746
   D24        3.01111  -0.00107   0.00034  -0.00661  -0.00626   3.00485
   D25        0.93534   0.00527  -0.00719   0.04296   0.03565   0.97099
   D26       -1.20699  -0.00490   0.00833  -0.04880  -0.04037  -1.24736
   D27       -0.98586  -0.00404  -0.00423  -0.03750  -0.04207  -1.02794
   D28        1.15949  -0.00271  -0.01846   0.02325   0.00541   1.16490
   D29       -3.04273  -0.00129  -0.01432   0.01456  -0.00004  -3.04278
   D30       -0.67032  -0.02918  -0.03240  -0.02590  -0.05939  -0.72971
         Item               Value     Threshold  Converged?
 Maximum Force            0.032191     0.000450     NO 
 RMS     Force            0.007448     0.000300     NO 
 Maximum Displacement     0.478332     0.001800     NO 
 RMS     Displacement     0.245592     0.001200     NO 
 Predicted change in Energy=-1.112986D-02
 GradGradGradGradGradGradGradGradGradGradGradGradGradGradGradGradGradGrad

                          Input orientation:                          
 ---------------------------------------------------------------------
 Center     Atomic      Atomic             Coordinates (Angstroms)
 Number     Number       Type             X           Y           Z
 ---------------------------------------------------------------------
      1         14           0       -6.083318   -0.543788   -0.373926
      2          8           0       -4.429073   -0.565096   -0.140378
      3          8           0       -6.360194    1.007579   -0.864894
      4          8           0       -6.880538   -0.802055    1.050425
      5          8           0       -6.605974   -1.672883   -1.427129
      6          1           0       -6.008527   -1.826985   -2.176073
      7          1           0       -7.262282   -1.679457    1.170978
      8          1           0       -7.233274    1.367036   -0.674782
      9         14           0       -3.354760   -2.970173   -1.426387
     10          8           0       -1.837902   -2.564107   -0.892935
     11          8           0       -4.252584   -3.521335   -0.151082
     12          8           0       -3.190069   -4.258489   -2.444895
     13          8           0       -3.947473   -1.727771   -2.332280
     14          1           0       -3.974008   -0.909585   -1.776438
     15          1           0       -3.998134   -4.686151   -2.748849
     16          1           0       -1.100274   -2.995824   -1.336655
     17          1           0       -4.444870   -2.865797    0.521559
     18          1           0       -4.043077    0.159051    0.373870
 ---------------------------------------------------------------------
                    Distance matrix (angstroms):
                    1          2          3          4          5
     1  Si   0.000000
     2  O    1.670785   0.000000
     3  O    1.650590   2.593733   0.000000
     4  O    1.652585   2.735661   2.685885   0.000000
     5  O    1.630112   2.760764   2.749799   2.640455   0.000000
     6  H    2.213577   2.868987   3.142867   3.495880   0.970365
     7  H    2.250872   3.314894   3.489799   0.964415   2.679728
     8  H    2.250369   3.447066   0.963131   2.793871   3.193844
     9  Si   3.800007   2.931274   5.017013   4.823531   3.500479
    10  O    4.730182   3.358059   5.762712   5.684158   4.879975
    11  O    3.502433   2.961522   5.046049   3.967902   3.253232
    12  O    5.143813   4.526266   6.346461   6.146850   4.403364
    13  O    3.130304   2.527486   3.931486   4.571926   2.808903
    14  H    2.559304   1.732757   3.193792   4.055938   2.762587
    15  H    5.210319   4.896215   6.445709   6.150524   4.198518
    16  H    5.636494   4.291902   6.626956   6.627385   5.663135
    17  H    2.979620   2.394084   4.538034   3.235925   3.144964
    18  H    2.283805   0.968418   2.761081   3.071260   3.628777
                    6          7          8          9         10
     6  H    0.000000
     7  H    3.577208   0.000000
     8  H    3.735726   3.562133   0.000000
     9  Si   2.985194   4.866311   5.866785   0.000000
    10  O    4.425370   5.870796   6.679186   1.658409   0.000000
    11  O    3.170922   3.768108   5.749343   1.654168   2.701355
    12  O    3.732048   6.025684   7.150339   1.650527   2.666059
    13  O    2.069344   4.823184   4.808494   1.647881   2.687278
    14  H    2.267288   4.482489   4.125465   2.179915   2.842705
    15  H    3.541833   5.921141   7.170004   2.259959   3.551632
    16  H    5.114856   6.781695   7.555549   2.256417   0.962996
    17  H    3.286543   3.125214   5.208004   2.234665   2.981290
    18  H    3.782795   3.791935   3.568790   3.675153   3.726014
                   11         12         13         14         15
    11  O    0.000000
    12  O    2.633233   0.000000
    13  O    2.840350   2.644027   0.000000
    14  H    3.088790   3.503792   0.989491   0.000000
    15  H    2.858310   0.963458   2.987994   3.899823   0.000000
    16  H    3.408637   2.681374   3.271968   3.578289   3.639930
    17  H    0.958722   3.509126   3.112379   3.054385   3.769460
    18  H    3.723534   5.309211   3.300376   2.402202   5.764492
                   16         17         18
    16  H    0.000000
    17  H    3.828340   0.000000
    18  H    4.641036   3.054988   0.000000
 Stoichiometry    H8O8Si2
 Framework group  C1[X(H8O8Si2)]
 Deg. of freedom    48
 Full point group                 C1      NOp   1
 Largest Abelian subgroup         C1      NOp   1
 Largest concise Abelian subgroup C1      NOp   1
                         Standard orientation:                         
 ---------------------------------------------------------------------
 Center     Atomic      Atomic             Coordinates (Angstroms)
 Number     Number       Type             X           Y           Z
 ---------------------------------------------------------------------
      1         14           0       -1.908818   -0.022950   -0.025374
      2          8           0       -0.783580    1.011489    0.649385
      3          8           0       -2.962038    1.015268   -0.758367
      4          8           0       -2.715982   -0.859240    1.149421
      5          8           0       -1.256674   -1.124013   -1.035143
      6          1           0       -0.519245   -0.788352   -1.569126
      7          1           0       -2.458970   -1.781210    1.267794
      8          1           0       -3.868568    0.705520   -0.857764
      9         14           0        1.890993   -0.001313    0.006535
     10          8           0        2.558768    1.241499    0.878208
     11          8           0        1.242582   -1.111444    1.047422
     12          8           0        3.124927   -0.780947   -0.764059
     13          8           0        0.929213    0.634812   -1.170681
     14          1           0        0.227036    1.188441   -0.746964
     15          1           0        2.910461   -1.601296   -1.221535
     16          1           0        3.487371    1.431034    0.707518
     17          1           0        0.493538   -0.798485    1.557459
     18          1           0       -1.119797    1.764645    1.156875
 ---------------------------------------------------------------------
 Rotational constants (GHZ):           1.8980932           0.5236710           0.5165390
 Standard basis: 6-31+G(d,p) (6D, 7F)
 There are   238 symmetry adapted cartesian basis functions of A   symmetry.
 There are   238 symmetry adapted basis functions of A   symmetry.
   238 basis functions,   424 primitive gaussians,   238 cartesian basis functions
    50 alpha electrons       50 beta electrons
       nuclear repulsion energy       867.0498708568 Hartrees.
 NAtoms=   18 NActive=   18 NUniq=   18 SFac= 1.00D+00 NAtFMM=   60 NAOKFM=F Big=F
 Integral buffers will be    131072 words long.
 Raffenetti 2 integral format.
 Two-electron integral symmetry is turned on.
 Nuclear repulsion after empirical dispersion term =      867.0335081397 Hartrees.
 One-electron integrals computed using PRISM.
 NBasis=   238 RedAO= T EigKep=  2.65D-04  NBF=   238
 NBsUse=   238 1.00D-06 EigRej= -1.00D+00 NBFU=   238
 Initial guess from the checkpoint file:  "/localscratch/sarashs.37136500.0/Gau-200616.chk"
 B after Tr=     0.000000    0.000000   -0.000000
         Rot=    0.999846   -0.014830   -0.007814    0.005235 Ang=  -2.01 deg.
 ExpMin= 3.31D-02 ExpMax= 1.61D+04 ExpMxC= 2.43D+03 IAcc=3 IRadAn=         5 AccDes= 0.00D+00
 Harris functional with IExCor=  402 and IRadAn=       5 diagonalized for initial guess.
 HarFok:  IExCor=  402 AccDes= 0.00D+00 IRadAn=         5 IDoV= 1 UseB2=F ITyADJ=14
 ICtDFT=  3500011 ScaDFX=  1.000000  1.000000  1.000000  1.000000
 FoFCou: FMM=F IPFlag=           0 FMFlag=      100000 FMFlg1=           0
         NFxFlg=           0 DoJE=T BraDBF=F KetDBF=T FulRan=T
         wScrn=  0.000000 ICntrl=       500 IOpCl=  0 I1Cent=   200000004 NGrid=           0
         NMat0=    1 NMatS0=      1 NMatT0=    0 NMatD0=    1 NMtDS0=    0 NMtDT0=    0
 Petite list used in FoFCou.
 Requested convergence on RMS density matrix=1.00D-08 within 128 cycles.
 Requested convergence on MAX density matrix=1.00D-06.
 Requested convergence on             energy=1.00D-06.
 No special actions if energy rises.
 SCF Done:  E(RB3LYP) =  -1186.04674846     A.U. after   11 cycles
            NFock= 11  Conv=0.58D-08     -V/T= 2.0065
 Calling FoFJK, ICntrl=      2127 FMM=F ISym2X=0 I1Cent= 0 IOpClX= 0 NMat=1 NMatS=1 NMatT=0.
 ***** Axes restored to original set *****
 -------------------------------------------------------------------
 Center     Atomic                   Forces (Hartrees/Bohr)
 Number     Number              X              Y              Z
 -------------------------------------------------------------------
      1       14          -0.017435325    0.015551129    0.011194930
      2        8          -0.000722561    0.001435663    0.006935884
      3        8           0.001333955   -0.000055134    0.003371218
      4        8           0.001518361   -0.000746149   -0.001970171
      5        8           0.004646155   -0.001064383   -0.000147517
      6        1           0.000937326   -0.002362682   -0.001934972
      7        1          -0.000835093   -0.000030842    0.000119905
      8        1          -0.001224503    0.000675041   -0.001175555
      9       14           0.022144311   -0.018559458   -0.003500548
     10        8          -0.002950349    0.000617318    0.001120932
     11        8          -0.003192424    0.004566080   -0.006750295
     12        8          -0.001394039   -0.000137702   -0.000670310
     13        8          -0.008595513    0.010841858    0.001433618
     14        1           0.007343350   -0.011387485   -0.012071267
     15        1           0.001164009   -0.001052107   -0.000064360
     16        1          -0.000090984   -0.000057115   -0.000501665
     17        1           0.000044788    0.002855013    0.006008920
     18        1          -0.002691464   -0.001089045   -0.001398747
 -------------------------------------------------------------------
 Cartesian Forces:  Max     0.022144311 RMS     0.006519693

 GradGradGradGradGradGradGradGradGradGradGradGradGradGradGradGradGradGrad
 Berny optimization.
 Using GEDIIS/GDIIS optimizer.
 FormGI is forming the generalized inverse of G from B-inverse, IUseBI=4.
 Internal  Forces:  Max     0.013472516 RMS     0.003623057
 Search for a local minimum.
 Step number   3 out of a maximum of   81
 All quantities printed in internal units (Hartrees-Bohrs-Radians)
 Mixed Optimization -- RFO/linear search
 Update second derivatives using D2CorX and points    1    2    3
 DE= -8.00D-03 DEPred=-1.11D-02 R= 7.19D-01
 TightC=F SS=  1.41D+00  RLast= 3.68D-01 DXNew= 5.0454D-01 1.1054D+00
 Trust test= 7.19D-01 RLast= 3.68D-01 DXMaxT set to 5.05D-01
 ITU=  1  0  0
 Use linear search instead of GDIIS.
     Eigenvalues ---    0.00628   0.03596   0.03818   0.03844   0.03851
     Eigenvalues ---    0.03856   0.03864   0.03875   0.03901   0.04580
     Eigenvalues ---    0.07207   0.09991   0.10616   0.11310   0.11715
     Eigenvalues ---    0.12246   0.13602   0.14178   0.14555   0.15583
     Eigenvalues ---    0.16000   0.16000   0.16000   0.16000   0.16157
     Eigenvalues ---    0.18210   0.20401   0.20523   0.21048   0.26659
     Eigenvalues ---    0.30468   0.41154   0.44113   0.44338   0.44576
     Eigenvalues ---    0.44766   0.44915   0.44969   0.45562   0.52931
     Eigenvalues ---    0.53105   0.53375   0.53422   0.53452   0.53554
     Eigenvalues ---    0.53799   0.550261000.000001000.000001000.00000
     Eigenvalues --- 1000.000001000.000001000.000001000.000001000.00000
     Eigenvalues --- 1000.000001000.000001000.000001000.000001000.00000
     Eigenvalues --- 1000.000001000.000001000.000001000.000001000.00000
     Eigenvalues --- 1000.000001000.000001000.000001000.000001000.00000
     Eigenvalues --- 1000.00000
 RFO step:  Lambda=-5.01470099D-03 EMin= 6.27971865D-03
 Quartic linear search produced a step of -0.04203.
 Iteration  1 RMS(Cart)=  0.09773112 RMS(Int)=  0.00255771
 Iteration  2 RMS(Cart)=  0.00379298 RMS(Int)=  0.00040364
 Iteration  3 RMS(Cart)=  0.00000733 RMS(Int)=  0.00040362
 Iteration  4 RMS(Cart)=  0.00000001 RMS(Int)=  0.00040362
 Iteration  1 RMS(Cart)=  0.00024297 RMS(Int)=  0.00002468
 Iteration  2 RMS(Cart)=  0.00001537 RMS(Int)=  0.00002540
 Iteration  3 RMS(Cart)=  0.00000097 RMS(Int)=  0.00002549
 Variable       Old X    -DE/DX   Delta X   Delta X   Delta X     New X
                                 (Linear)    (Quad)   (Total)
    R1        3.15733   0.00160  -0.00083   0.01044   0.00902   3.16634
    R2        3.11916  -0.00009  -0.00065   0.00541   0.00475   3.12392
    R3        3.12293  -0.00180  -0.00072   0.00240   0.00168   3.12462
    R4        3.08046   0.00193   0.00036   0.00094   0.00131   3.08177
    R5        7.18097   0.01202   0.00000   0.00000   0.00000   7.18097
    R6        3.27444   0.01347  -0.00508   0.16598   0.16037   3.43480
    R7        1.83004  -0.00263   0.00022  -0.00643  -0.00621   1.82383
    R8        1.82005   0.00113   0.00023  -0.00005   0.00018   1.82023
    R9        1.82248   0.00037   0.00023  -0.00134  -0.00111   1.82137
   R10        1.83372   0.00245   0.00006   0.00376   0.00382   1.83755
   R11        3.13394  -0.00245  -0.00081   0.00191   0.00110   3.13504
   R12        3.12592  -0.00134  -0.00057   0.00217   0.00160   3.12753
   R13        3.11904   0.00136  -0.00060   0.00791   0.00731   3.12636
   R14        3.11404   0.00507   0.00016   0.00949   0.00915   3.12320
   R15        1.81980   0.00019   0.00028  -0.00204  -0.00176   1.81804
   R16        1.81172   0.00616   0.00039   0.00727   0.00767   1.81939
   R17        1.82067  -0.00049   0.00019  -0.00246  -0.00227   1.81840
   R18        1.86987  -0.00585   0.00014  -0.01103  -0.01147   1.85840
    A1        1.79225   0.00128   0.00265  -0.01708  -0.01431   1.77794
    A2        1.93388   0.00370  -0.00048   0.01909   0.01867   1.95255
    A3        1.98115  -0.00856  -0.00246  -0.02729  -0.02963   1.95152
    A4        1.89899  -0.00170   0.00041  -0.00129  -0.00091   1.89808
    A5        1.98783   0.00402  -0.00094   0.02885   0.02768   2.01551
    A6        1.86915   0.00149   0.00085  -0.00102  -0.00016   1.86899
    A7        1.70175   0.00405   0.00192   0.01182   0.01257   1.71432
    A8        2.04804  -0.00280  -0.00172   0.00219   0.00091   2.04894
    A9        2.14763   0.00012  -0.00166   0.02023   0.01867   2.16630
   A10        2.03100   0.00140  -0.00095   0.01582   0.01487   2.04587
   A11        2.02736   0.00070  -0.00107   0.01289   0.01181   2.03918
   A12        1.99463   0.00318   0.00020   0.01638   0.01657   2.01120
   A13        1.90713   0.00104   0.00054  -0.00498  -0.00452   1.90261
   A14        1.87376  -0.00035   0.00078   0.00484   0.00562   1.87937
   A15        1.89780   0.00233   0.00031   0.00303   0.00320   1.90100
   A16        1.84401   0.00400   0.00142   0.01063   0.01212   1.85613
   A17        2.07124  -0.00958  -0.00398  -0.02051  -0.02454   2.04670
   A18        1.85996   0.00332   0.00126   0.00989   0.01117   1.87113
   A19        2.02930  -0.00069  -0.00120   0.00623   0.00503   2.03433
   A20        2.00638   0.00212  -0.00090   0.01925   0.01835   2.02473
   A21        2.04594   0.00246  -0.00156   0.02690   0.02534   2.07127
   A22        1.90102  -0.00387   0.00634  -0.07197  -0.06708   1.83394
   A23        2.34876   0.00057   0.00066  -0.00123  -0.00221   2.34655
    D1       -1.48942  -0.00197   0.00361  -0.05583  -0.05246  -1.54188
    D2        0.83925  -0.00030   0.00188  -0.01797  -0.01623   0.82302
    D3        2.76850  -0.00231   0.00190  -0.05357  -0.05174   2.71675
    D4       -1.18602  -0.00064   0.00017  -0.01571  -0.01551  -1.20153
    D5        0.66461  -0.00096   0.00277  -0.04714  -0.04419   0.62042
    D6        2.99328   0.00071   0.00104  -0.00927  -0.00796   2.98532
    D7       -2.66616  -0.00451  -0.00074  -0.02943  -0.03025  -2.69642
    D8       -0.61597  -0.00037   0.00030  -0.01675  -0.01654  -0.63251
    D9        1.46746   0.00290   0.00105  -0.00047   0.00076   1.46822
   D10       -1.81916   0.00292   0.00223  -0.00553  -0.00329  -1.82246
   D11        2.50604   0.00039  -0.00092   0.00553   0.00453   2.51057
   D12        0.35003  -0.00438  -0.00055  -0.02806  -0.02853   0.32150
   D13       -0.64525   0.00123  -0.00076   0.02219   0.02166  -0.62358
   D14        1.39761  -0.00038   0.00029   0.00086   0.00090   1.39851
   D15       -2.78530   0.00099   0.00080   0.01630   0.01712  -2.76818
   D16       -1.38125   0.00057   0.00409   0.11897   0.12417  -1.25707
   D17        2.63869   0.00050   0.00583   0.09027   0.09648   2.73517
   D18        2.16733   0.00513   0.00225   0.01727   0.01952   2.18686
   D19        0.17543   0.00011  -0.00015   0.00477   0.00464   0.18007
   D20       -1.83046  -0.00477  -0.00223  -0.01083  -0.01308  -1.84354
   D21        1.15088  -0.00314  -0.00060  -0.04076  -0.04127   1.10961
   D22       -3.12122  -0.00098   0.00137  -0.03199  -0.03060   3.13137
   D23       -1.03746   0.00046   0.00155  -0.02367  -0.02223  -1.05969
   D24        3.00485  -0.00074   0.00026  -0.01151  -0.01125   2.99360
   D25        0.97099  -0.00372  -0.00150  -0.01327  -0.01475   0.95624
   D26       -1.24736   0.00343   0.00170  -0.00075   0.00093  -1.24644
   D27       -1.02794   0.00111   0.00177  -0.01435  -0.01259  -1.04052
   D28        1.16490  -0.00306  -0.00023  -0.03514  -0.03531   1.12958
   D29       -3.04278  -0.00135   0.00000  -0.02659  -0.02664  -3.06942
   D30       -0.72971  -0.00249   0.00250  -0.11673  -0.11254  -0.84226
         Item               Value     Threshold  Converged?
 Maximum Force            0.012995     0.000450     NO 
 RMS     Force            0.003333     0.000300     NO 
 Maximum Displacement     0.333715     0.001800     NO 
 RMS     Displacement     0.096504     0.001200     NO 
 Predicted change in Energy=-2.787815D-03
 GradGradGradGradGradGradGradGradGradGradGradGradGradGradGradGradGradGrad

                          Input orientation:                          
 ---------------------------------------------------------------------
 Center     Atomic      Atomic             Coordinates (Angstroms)
 Number     Number       Type             X           Y           Z
 ---------------------------------------------------------------------
      1         14           0       -6.097974   -0.557010   -0.368759
      2          8           0       -4.443467   -0.564700   -0.104108
      3          8           0       -6.367762    1.018905   -0.788836
      4          8           0       -6.944199   -0.891450    1.011833
      5          8           0       -6.538882   -1.664957   -1.481221
      6          1           0       -5.907665   -1.795246   -2.209318
      7          1           0       -7.325519   -1.773566    1.085535
      8          1           0       -7.249501    1.372517   -0.629772
      9         14           0       -3.350998   -2.953884   -1.440757
     10          8           0       -1.805542   -2.577575   -0.969370
     11          8           0       -4.233244   -3.378785   -0.106522
     12          8           0       -3.270805   -4.302967   -2.394997
     13          8           0       -3.939270   -1.726303   -2.378028
     14          1           0       -3.910117   -0.928976   -1.803102
     15          1           0       -4.090936   -4.733240   -2.656133
     16          1           0       -1.094037   -3.054256   -1.407664
[...]

                          Input orientation:                          
 ---------------------------------------------------------------------
 Center     Atomic      Atomic             Coordinates (Angstroms)
 Number     Number       Type             X           Y           Z
 ---------------------------------------------------------------------
      1         14           0       -6.173544   -0.572375   -0.760600
      2          8           0       -4.833408    0.393652   -0.982084
      3          8           0       -7.467640    0.438053   -0.648399
      4          8           0       -6.129924   -1.528744    0.548451
      5          8           0       -6.203538   -1.516675   -2.130697
      6          1           0       -6.183786   -1.038379   -2.969720
      7          1           0       -5.319609   -2.062093    0.714224
      8          1           0       -8.214781    0.134447   -0.119993
      9         14           0       -3.186470   -2.910480   -0.985788
     10          8           0       -1.897210   -3.932244   -0.941392
     11          8           0       -3.766873   -2.842663    0.592768
     12          8           0       -4.296002   -3.584583   -1.994167
     13          8           0       -2.731220   -1.400997   -1.404422
     14          1           0       -3.335459   -0.647283   -1.285291
     15          1           0       -5.074037   -3.037722   -2.200587
     16          1           0       -1.741375   -4.455873   -1.735145
     17          1           0       -3.683153   -3.672361    1.079901
     18          1           0       -4.768301    1.180488   -0.426928
 ---------------------------------------------------------------------
                    Distance matrix (angstroms):
                    1          2          3          4          5
     1  Si   0.000000
     2  O    1.666802   0.000000
     3  O    1.645673   2.655653   0.000000
     4  O    1.621777   2.778326   2.662747   0.000000
     5  O    1.664261   2.616470   2.759733   2.680186   0.000000
     6  H    2.257758   2.797308   3.035896   3.552588   0.965980
     7  H    2.263531   3.023994   3.566723   0.984151   3.028595
     8  H    2.253136   3.499152   0.964162   2.749481   3.288500
     9  Si   3.800007   3.691843   5.445633   3.595414   3.515139
    10  O    5.441363   5.228412   7.086256   5.090413   5.078767
    11  O    3.574616   3.753850   5.098948   2.704137   3.887523
    12  O    3.757692   4.139985   5.296413   3.748953   2.816661
    13  O    3.598711   2.796128   5.136862   3.921891   3.549345
    14  H    2.887151   1.849144   4.319550   3.456678   3.113909
    15  H    3.059479   3.649244   4.496625   3.308945   1.895849
    16  H    5.972890   5.800488   7.610627   5.748239   5.357821
    17  H    4.381712   4.701843   5.848492   3.296092   4.615978
    18  H    2.271250   0.965167   2.808325   3.185172   3.498203
                    6          7          8          9         10
     6  H    0.000000
     7  H    3.919979   0.000000
     8  H    3.690718   3.728636   0.000000
     9  Si   4.052733   2.856586   5.941808   0.000000
    10  O    5.555475   4.236902   7.558066   1.645650   0.000000
    11  O    4.667786   1.742133   5.399546   1.683243   2.652635
    12  O    3.316413   3.271258   5.718439   1.643868   2.642613
    13  O    3.808131   3.409614   5.837533   1.631271   2.705029
    14  H    3.332150   3.152238   5.077086   2.287785   3.602470
    15  H    2.412568   3.083550   4.925018   2.248296   3.532416
    16  H    5.739204   4.953115   8.098440   2.244566   0.963595
    17  H    5.439711   2.324794   6.038806   2.257040   2.709752
    18  H    3.659612   3.481451   3.614780   4.421598   5.886243
                   11         12         13         14         15
    11  O    0.000000
    12  O    2.742745   0.000000
    13  O    2.672031   2.750344   0.000000
    14  H    2.921116   3.170628   0.973335   0.000000
    15  H    3.090235   0.973142   2.966739   3.094288   0.000000
    16  H    3.481992   2.711523   3.228225   4.153171   3.651633
    17  H    0.965767   3.135790   3.498161   3.855661   3.619243
    18  H    4.269471   5.038373   3.430635   2.475999   4.586135
                   16         17         18
    16  H    0.000000
    17  H    3.508401   0.000000
    18  H    6.530105   5.195981   0.000000
 Stoichiometry    H8O8Si2
 Framework group  C1[X(H8O8Si2)]
 Deg. of freedom    48
 Full point group                 C1      NOp   1
 Largest Abelian subgroup         C1      NOp   1
 Largest concise Abelian subgroup C1      NOp   1
                         Standard orientation:                         
 ---------------------------------------------------------------------
 Center     Atomic      Atomic             Coordinates (Angstroms)
 Number     Number       Type             X           Y           Z
 ---------------------------------------------------------------------
      1         14           0       -1.899588   -0.035865   -0.031074
      2          8           0       -1.466092    0.847510    1.314272
      3          8           0       -3.544454   -0.082876   -0.052215
      4          8           0       -1.323136   -1.550920   -0.080789
      5          8           0       -1.258398    0.838119   -1.293925
      6          1           0       -1.505703    1.771362   -1.325777
      7          1           0       -0.367506   -1.696614    0.103868
      8          1           0       -3.954527   -0.852078   -0.464254
      9         14           0        1.899188    0.040200    0.028640
     10          8           0        3.539947   -0.058587    0.108100
     11          8           0        1.331898   -1.493179    0.428937
     12          8           0        1.518135    0.423845   -1.523751
     13          8           0        1.314583    1.082798    1.138718
     14          1           0        0.364729    1.104700    1.350092
     15          1           0        0.580832    0.618896   -1.698172
     16          1           0        4.030316    0.498945   -0.506076
     17          1           0        1.898708   -2.214674    0.127479
     18          1           0       -1.941097    0.655082    2.132129
 ---------------------------------------------------------------------
 Rotational constants (GHZ):           1.9440004           0.5300884           0.5268836

 **********************************************************************

            Population analysis using the SCF Density.

 **********************************************************************

 Orbital symmetries:
       Occupied  (A) (A) (A) (A) (A) (A) (A) (A) (A) (A) (A) (A)
                 (A) (A) (A) (A) (A) (A) (A) (A) (A) (A) (A) (A)
                 (A) (A) (A) (A) (A) (A) (A) (A) (A) (A) (A) (A)
                 (A) (A) (A) (A) (A) (A) (A) (A) (A) (A) (A) (A)
                 (A) (A)
       Virtual   (A) (A) (A) (A) (A) (A) (A) (A) (A) (A) (A) (A)
                 (A) (A) (A) (A) (A) (A) (A) (A) (A) (A) (A) (A)
                 (A) (A) (A) (A) (A) (A) (A) (A) (A) (A) (A) (A)
                 (A) (A) (A) (A) (A) (A) (A) (A) (A) (A) (A) (A)
                 (A) (A) (A) (A) (A) (A) (A) (A) (A) (A) (A) (A)
                 (A) (A) (A) (A) (A) (A) (A) (A) (A) (A) (A) (A)
                 (A) (A) (A) (A) (A) (A) (A) (A) (A) (A) (A) (A)
                 (A) (A) (A) (A) (A) (A) (A) (A) (A) (A) (A) (A)
                 (A) (A) (A) (A) (A) (A) (A) (A) (A) (A) (A) (A)
                 (A) (A) (A) (A) (A) (A) (A) (A) (A) (A) (A) (A)
                 (A) (A) (A) (A) (A) (A) (A) (A) (A) (A) (A) (A)
                 (A) (A) (A) (A) (A) (A) (A) (A) (A) (A) (A) (A)
                 (A) (A) (A) (A) (A) (A) (A) (A) (A) (A) (A) (A)
                 (A) (A) (A) (A) (A) (A) (A) (A) (A) (A) (A) (A)
                 (A) (A) (A) (A) (A) (A) (A) (A) (A) (A) (A) (A)
                 (A) (A) (A) (A) (A) (A) (A) (A)
 The electronic state is 1-A.
 Alpha  occ. eigenvalues --  -66.23768 -66.21644 -19.19616 -19.19451 -19.18296
 Alpha  occ. eigenvalues --  -19.18081 -19.16584 -19.16426 -19.15204 -19.15113
 Alpha  occ. eigenvalues --   -5.37132  -5.34988  -3.73139  -3.73118  -3.73062
 Alpha  occ. eigenvalues --   -3.71034  -3.70949  -3.70908  -1.06616  -1.04366
 Alpha  occ. eigenvalues --   -1.03349  -1.02758  -1.01561  -1.00533  -0.99836
 Alpha  occ. eigenvalues --   -0.99145  -0.61608  -0.59473  -0.56006  -0.55599
 Alpha  occ. eigenvalues --   -0.54357  -0.52851  -0.52586  -0.51724  -0.43314
 Alpha  occ. eigenvalues --   -0.42799  -0.41282  -0.40019  -0.39698  -0.38837
 Alpha  occ. eigenvalues --   -0.38075  -0.37669  -0.37119  -0.35856  -0.35111
 Alpha  occ. eigenvalues --   -0.34643  -0.34141  -0.33919  -0.33127  -0.30962
 Alpha virt. eigenvalues --   -0.03633  -0.00828   0.00503   0.00809   0.02186
 Alpha virt. eigenvalues --    0.04551   0.05310   0.06732   0.08801   0.09027
 Alpha virt. eigenvalues --    0.10312   0.11229   0.12515   0.13353   0.13583
 Alpha virt. eigenvalues --    0.14508   0.14786   0.14986   0.15249   0.15471
 Alpha virt. eigenvalues --    0.16336   0.17007   0.17086   0.17913   0.18389
 Alpha virt. eigenvalues --    0.19235   0.19662   0.20894   0.21082   0.21450
 Alpha virt. eigenvalues --    0.22564   0.23209   0.23295   0.23729   0.24120
 Alpha virt. eigenvalues --    0.25896   0.26089   0.26475   0.27394   0.27937
 Alpha virt. eigenvalues --    0.28429   0.29047   0.29763   0.30495   0.30726
 Alpha virt. eigenvalues --    0.31986   0.33001   0.34752   0.35506   0.37619
 Alpha virt. eigenvalues --    0.37893   0.38961   0.40148   0.42496   0.43730
 Alpha virt. eigenvalues --    0.45569   0.46376   0.46956   0.49308   0.51047
 Alpha virt. eigenvalues --    0.52772   0.58897   0.61467   0.62033   0.62807
 Alpha virt. eigenvalues --    0.63941   0.65588   0.79575   0.91979   0.92569
 Alpha virt. eigenvalues --    0.94324   0.96178   0.96444   0.97767   0.99223
 Alpha virt. eigenvalues --    1.00781   1.01491   1.02621   1.04113   1.12488
 Alpha virt. eigenvalues --    1.12935   1.14452   1.15231   1.16099   1.16294
 Alpha virt. eigenvalues --    1.17341   1.17907   1.18913   1.20154   1.20755
 Alpha virt. eigenvalues --    1.21106   1.22102   1.23228   1.24009   1.24773
 Alpha virt. eigenvalues --    1.25749   1.26619   1.28560   1.29278   1.30885
 Alpha virt. eigenvalues --    1.31487   1.32197   1.33901   1.35461   1.36477
 Alpha virt. eigenvalues --    1.38280   1.49896   1.50812   1.53412   1.55112
 Alpha virt. eigenvalues --    1.56803   1.57922   1.58589   1.59291   1.60149
 Alpha virt. eigenvalues --    1.61169   1.62952   1.64421   1.66244   1.68906
 Alpha virt. eigenvalues --    1.69951   1.71892   1.72723   1.73413   1.75802
 Alpha virt. eigenvalues --    1.78365   1.79368   1.83215   1.85520   1.88953
 Alpha virt. eigenvalues --    1.89686   1.91136   1.98059   2.01622   2.02549
 Alpha virt. eigenvalues --    2.04519   2.09934   2.12157   2.34831   2.36129
 Alpha virt. eigenvalues --    2.37987   2.38602   2.39638   2.44901   2.46237
 Alpha virt. eigenvalues --    2.49392   2.50547   2.54098   2.56894   2.58845
 Alpha virt. eigenvalues --    2.59141   2.60540   2.61171   2.62468   2.62887
 Alpha virt. eigenvalues --    2.63692   2.64308   2.66059   2.67164   2.68180
 Alpha virt. eigenvalues --    2.69255   2.70322   2.71642   2.74149   2.76466
 Alpha virt. eigenvalues --    2.78462   2.79163   2.84916   2.86573   2.87354
 Alpha virt. eigenvalues --    3.00952   3.03662   3.40659   3.42495   3.43595
 Alpha virt. eigenvalues --    3.43764   3.44502   3.56347   3.59469   3.61291
 Alpha virt. eigenvalues --    4.16881   4.19914   4.25209   4.28381   4.31419
 Alpha virt. eigenvalues --    4.32338   4.38985   4.42255
          Condensed to atoms (all electrons):
               1          2          3          4          5          6
     1  Si  11.772122  -0.058897   0.020066   0.103508  -0.098005   0.046364
     2  O   -0.058897   8.733802  -0.011779   0.036553   0.109587  -0.008068
     3  O    0.020066  -0.011779   8.657036  -0.047745  -0.060111  -0.003431
     4  O    0.103508   0.036553  -0.047745   8.563535   0.086210   0.005765
     5  O   -0.098005   0.109587  -0.060111   0.086210   8.680702   0.239449
     6  H    0.046364  -0.008068  -0.003431   0.005765   0.239449   0.347796
     7  H    0.023358  -0.002691   0.006917   0.227155  -0.003874  -0.000042
     8  H    0.032082   0.003843   0.236805  -0.000993  -0.002995   0.000028
     9  Si  -0.156805   0.082674  -0.010630   0.070563   0.110362  -0.003600
    10  O   -0.004801   0.002802  -0.000284   0.003832   0.003101   0.000017
    11  O    0.090685  -0.032364   0.003115  -0.072106  -0.032731   0.000431
    12  O    0.035638  -0.028987   0.002959  -0.013924  -0.043459   0.000351
    13  O    0.091245  -0.055192   0.005358  -0.047188  -0.044901  -0.000721
    14  H    0.010001   0.003676  -0.000007   0.001020  -0.001237   0.000079
    15  H   -0.000969   0.001211  -0.000001   0.001576   0.007022  -0.000961
    16  H    0.000342  -0.000011   0.000000  -0.000006  -0.000035  -0.000000
    17  H   -0.003714   0.000352  -0.000067   0.004215   0.000491  -0.000000
    18  H    0.024026   0.244203   0.000264  -0.007146   0.005843   0.000030
               7          8          9         10         11         12
     1  Si   0.023358   0.032082  -0.156805  -0.004801   0.090685   0.035638
     2  O   -0.002691   0.003843   0.082674   0.002802  -0.032364  -0.028987
     3  O    0.006917   0.236805  -0.010630  -0.000284   0.003115   0.002959
     4  O    0.227155  -0.000993   0.070563   0.003832  -0.072106  -0.013924
     5  O   -0.003874  -0.002995   0.110362   0.003101  -0.032731  -0.043459
     6  H   -0.000042   0.000028  -0.003600   0.000017   0.000431   0.000351
     7  H    0.273940   0.000033   0.007702  -0.000135   0.018349   0.001662
     8  H    0.000033   0.352665   0.000141   0.000000   0.000006  -0.000004
     9  Si   0.007702   0.000141  11.764335   0.026286  -0.157790   0.090803
    10  O   -0.000135   0.000000   0.026286   8.620834  -0.007500  -0.012529
    11  O    0.018349   0.000006  -0.157790  -0.007500   8.810312   0.081842
    12  O    0.001662  -0.000004   0.090803  -0.012529   0.081842   8.549675
    13  O   -0.000851  -0.000003  -0.039274  -0.033793   0.114093   0.038662
    14  H   -0.000192  -0.000002   0.031863   0.004501  -0.001059  -0.004951
    15  H    0.000047  -0.000002   0.028749   0.008406  -0.007184   0.234203
    16  H   -0.000004  -0.000000   0.033493   0.236840   0.003026  -0.000637
    17  H   -0.002823   0.000000   0.028949   0.006996   0.234003  -0.010142
    18  H    0.000172   0.000059  -0.002003   0.000008   0.000108  -0.000007
              13         14         15         16         17         18
     1  Si   0.091245   0.010001  -0.000969   0.000342  -0.003714   0.024026
     2  O   -0.055192   0.003676   0.001211  -0.000011   0.000352   0.244203
     3  O    0.005358  -0.000007  -0.000001   0.000000  -0.000067   0.000264
     4  O   -0.047188   0.001020   0.001576  -0.000006   0.004215  -0.007146
     5  O   -0.044901  -0.001237   0.007022  -0.000035   0.000491   0.005843
     6  H   -0.000721   0.000079  -0.000961  -0.000000  -0.000000   0.000030
     7  H   -0.000851  -0.000192   0.000047  -0.000004  -0.002823   0.000172
     8  H   -0.000003  -0.000002  -0.000002  -0.000000   0.000000   0.000059
     9  Si  -0.039274   0.031863   0.028749   0.033493   0.028949  -0.002003
    10  O   -0.033793   0.004501   0.008406   0.236840   0.006996   0.000008
    11  O    0.114093  -0.001059  -0.007184   0.003026   0.234003   0.000108
    12  O    0.038662  -0.004951   0.234203  -0.000637  -0.010142  -0.000007
    13  O    8.635089   0.230523  -0.005327  -0.003883   0.004539   0.000884
    14  H    0.230523   0.298215  -0.000013  -0.000034  -0.000065  -0.000624
    15  H   -0.005327  -0.000013   0.303290   0.000068   0.000129  -0.000013
    16  H   -0.003883  -0.000034   0.000068   0.358368   0.000074   0.000000
    17  H    0.004539  -0.000065   0.000129   0.000074   0.339905  -0.000001
    18  H    0.000884  -0.000624  -0.000013   0.000000  -0.000001   0.336232
 Mulliken charges:
               1
     1  Si   2.073753
     2  O   -1.020713
     3  O   -0.798466
     4  O   -0.914826
     5  O   -0.955418
     6  H    0.376516
     7  H    0.451277
     8  H    0.378336
     9  Si   2.094182
    10  O   -0.854581
    11  O   -1.045238
    12  O   -0.921156
    13  O   -0.889258
    14  H    0.428305
    15  H    0.429768
    16  H    0.372400
    17  H    0.397156
    18  H    0.397964
 Sum of Mulliken charges =  -0.00000
 Mulliken charges with hydrogens summed into heavy atoms:
               1
     1  Si   2.073753
     2  O   -0.622749
     3  O   -0.420130
     4  O   -0.463549
     5  O   -0.578902
     9  Si   2.094182
    10  O   -0.482181
    11  O   -0.648081
    12  O   -0.491388
    13  O   -0.460953
 Electronic spatial extent (au):  <R**2>=           2214.7349
 Charge=             -0.0000 electrons
 Dipole moment (field-independent basis, Debye):
    X=             -2.3229    Y=             -0.1916    Z=             -0.4926  Tot=              2.3823
 Quadrupole moment (field-independent basis, Debye-Ang):
   XX=            -67.7283   YY=            -67.8245   ZZ=            -72.5248
   XY=             -1.6597   XZ=             -4.6266   YZ=             -1.9095
 Traceless Quadrupole moment (field-independent basis, Debye-Ang):
   XX=              1.6309   YY=              1.5347   ZZ=             -3.1656
   XY=             -1.6597   XZ=             -4.6266   YZ=             -1.9095
 Octapole moment (field-independent basis, Debye-Ang**2):
  XXX=             -1.2868  YYY=             -3.3705  ZZZ=             18.2893  XYY=              3.2937
  XXY=             -9.8381  XXZ=            -23.9530  XZZ=            -23.5823  YZZ=              3.7342
  YYZ=            -11.1528  XYZ=             -3.6196
 Hexadecapole moment (field-independent basis, Debye-Ang**3):
 XXXX=          -1796.0886 YYYY=           -331.9338 ZZZZ=           -340.0179 XXXY=            140.7182
 XXXZ=            -44.8569 YYYX=            -58.8095 YYYZ=            -18.1538 ZZZX=            -27.3841
 ZZZY=              4.0720 XXYY=           -336.7591 XXZZ=           -369.5992 YYZZ=           -119.7015
 XXYZ=              1.5935 YYXZ=              5.6864 ZZXY=            -13.4003
 N-N= 8.668988376126D+02 E-N=-4.543426646694D+03  KE= 1.178276283601D+03
 1\1\GINC-GRA1306\FOpt\RB3LYP\6-31+G(d,p)\H8O8Si2\SARASHS\11-Aug-2020\0
 \\#n B3LYP/6-31+G(d,p) EmpiricalDispersion=GD3 Opt=modredundant\\Title
 \\0,1\Si,-6.1735440159,-0.5723749718,-0.7606003475\O,-4.8334083605,0.3
 936523759,-0.9820837349\O,-7.4676398339,0.4380534916,-0.6483985119\O,-
 6.1299243062,-1.5287440708,0.5484507363\O,-6.2035379195,-1.5166749272,
 -2.1306967063\H,-6.1837864088,-1.0383786302,-2.9697195433\H,-5.3196087
 873,-2.0620933951,0.7142240776\H,-8.2147807131,0.1344470791,-0.1199931
 318\Si,-3.1864702196,-2.9104795328,-0.985788496\O,-1.8972104908,-3.932
 2438758,-0.9413921776\O,-3.7668731897,-2.8426628438,0.5927675892\O,-4.
 2960016647,-3.5845831573,-1.9941666925\O,-2.7312197004,-1.4009966666,-
 1.404422326\H,-3.3354586498,-0.6472828992,-1.2852914136\H,-5.074036979
 9,-3.037722132,-2.2005865971\H,-1.7413750708,-4.455872934,-1.735144957
 1\H,-3.6831531458,-3.672360976,1.0799005509\H,-4.7683005434,1.18048806
 58,-0.4269283185\\Version=ES64L-G16RevB.01\State=1-A\HF=-1186.0731304\
 RMSD=9.525e-09\RMSF=1.502e-03\Dipole=-0.8377951,0.4193554,0.0264665\Qu
 adrupole=-4.0059331,2.3816279,1.6243052,-2.6615298,-0.5123689,-0.01480
 7\PG=C01 [X(H8O8Si2)]\\@


 Democracy is the recurrent suspicion that more than half of the people
 are right more than half of the time.
 -- E. B. White
 Job cpu time:       0 days  3 hours  4 minutes 40.8 seconds.
 Elapsed time:       0 days  0 hours 11 minutes 39.7 seconds.
 File lengths (MBytes):  RWF=     40 Int=      0 D2E=      0 Chk=      5 Scr=      1
 Normal termination of Gaussian 16 at Tue Aug 11 13:29:23 2020.
