 Entering Gaussian System, Link 0=g16
 Initial command:
 /opt/software/gaussian/g16.b01/l1.exe "/localscratch/sarashs.36560084.0/Gau-23912.inp" -scrdir="/localscratch/sarashs.36560084.0/"
 Entering Link 1 = /opt/software/gaussian/g16.b01/l1.exe PID=     23913.
  
 Copyright (c) 1988-2017, Gaussian, Inc.  All Rights Reserved.
  
 This is part of the Gaussian(R) 16 program.  It is based on
 the Gaussian(R) 09 system (copyright 2009, Gaussian, Inc.),
 the Gaussian(R) 03 system (copyright 2003, Gaussian, Inc.),
 the Gaussian(R) 98 system (copyright 1998, Gaussian, Inc.),
 the Gaussian(R) 94 system (copyright 1995, Gaussian, Inc.),
 the Gaussian 92(TM) system (copyright 1992, Gaussian, Inc.),
 the Gaussian 90(TM) system (copyright 1990, Gaussian, Inc.),
 the Gaussian 88(TM) system (copyright 1988, Gaussian, Inc.),
 the Gaussian 86(TM) system (copyright 1986, Carnegie Mellon
 University), and the Gaussian 82(TM) system (copyright 1983,
 Carnegie Mellon University). Gaussian is a federally registered
 trademark of Gaussian, Inc.
  
 This software contains proprietary and confidential information,
 including trade secrets, belonging to Gaussian, Inc.
  
 This software is provided under written license and may be
 used, copied, transmitted, or stored only in accord with that
 written license.
  
 The following legend is applicable only to US Government
 contracts under FAR:
  
                    RESTRICTED RIGHTS LEGEND
  
 Use, reproduction and disclosure by the US Government is
 subject to restrictions as set forth in subparagraphs (a)
 and (c) of the Commercial Computer Software - Restricted
 Rights clause in FAR 52.227-19.
  
 Gaussian, Inc.
 340 Quinnipiac St., Bldg. 40, Wallingford CT 06492
  
  
 ---------------------------------------------------------------
 Warning -- This program may not be used in any manner that
 competes with the business of Gaussian, Inc. or will provide
 assistance to any competitor of Gaussian, Inc.  The licensee
 of this program is prohibited from giving any competitor of
 Gaussian, Inc. access to this program.  By using this program,
 the user acknowledges that Gaussian, Inc. is engaged in the
 business of creating and licensing software in the field of
 computational chemistry and represents and warrants to the
 licensee that it is not a competitor of Gaussian, Inc. and that
 it will not use this program in any manner prohibited above.
 ---------------------------------------------------------------
  

 Cite this work as:
 Gaussian 16, Revision B.01,
 M. J. Frisch, G. W. Trucks, H. B. Schlegel, G. E. Scuseria, 
 M. A. Robb, J. R. Cheeseman, G. Scalmani, V. Barone, 
 G. A. Petersson, H. Nakatsuji, X. Li, M. Caricato, A. V. Marenich, 
 J. Bloino, B. G. Janesko, R. Gomperts, B. Mennucci, H. P. Hratchian, 
 J. V. Ortiz, A. F. Izmaylov, J. L. Sonnenberg, D. Williams-Young, 
 F. Ding, F. Lipparini, F. Egidi, J. Goings, B. Peng, A. Petrone, 
 T. Henderson, D. Ranasinghe, V. G. Zakrzewski, J. Gao, N. Rega, 
 G. Zheng, W. Liang, M. Hada, M. Ehara, K. Toyota, R. Fukuda, 
 J. Hasegawa, M. Ishida, T. Nakajima, Y. Honda, O. Kitao, H. Nakai, 
 T. Vreven, K. Throssell, J. A. Montgomery, Jr., J. E. Peralta, 
 F. Ogliaro, M. J. Bearpark, J. J. Heyd, E. N. Brothers, K. N. Kudin, 
 V. N. Staroverov, T. A. Keith, R. Kobayashi, J. Normand, 
 K. Raghavachari, A. P. Rendell, J. C. Burant, S. S. Iyengar, 
 J. Tomasi, M. Cossi, J. M. Millam, M. Klene, C. Adamo, R. Cammi, 
 J. W. Ochterski, R. L. Martin, K. Morokuma, O. Farkas, 
 J. B. Foresman, and D. J. Fox, Gaussian, Inc., Wallingford CT, 2016.
 
 ******************************************
 Gaussian 16:  ES64L-G16RevB.01 20-Dec-2017
                29-Jul-2020 
 ******************************************
 %NProcShared=16
 Will use up to   16 processors via shared memory.
 -------------------------------------------------------------
 #n B3LYP/6-31+G(d,p) EmpiricalDispersion=GD3 Opt=modredundant
 -------------------------------------------------------------
 1/18=120,19=15,26=3,38=1/1,3;
 2/9=110,12=2,17=6,18=5,40=1/2;
 3/5=1,6=6,7=111,11=2,25=1,30=1,71=1,74=-5,124=31/1,2,3;
 4//1;
 5/5=2,38=5/2;
 6/7=2,8=2,9=2,10=2,28=1/1;
 7//1,2,3,16;
 1/18=20,19=15,26=3/3(2);
 2/9=110/2;
 99//99;
 2/9=110/2;
 3/5=1,6=6,7=111,11=2,25=1,30=1,71=1,74=-5,124=31/1,2,3;
 4/5=5,16=3,69=1/1;
 5/5=2,38=5/2;
 7//1,2,3,16;
 1/18=20,19=15,26=3/3(-5);
 2/9=110/2;
 6/7=2,8=2,9=2,10=2,19=2,28=1/1;
 99/9=1/99;
 -----
 Title
 -----
 Symbolic Z-matrix:
 Charge =  0 Multiplicity = 1
 Si                   -6.86641   0.13454  -0.10246 
 O                    -5.24559  -0.04381   0.11757 
 O                    -7.17016   1.66955  -0.57645 
 O                    -7.64504  -0.16476   1.30471 
 O                    -7.37666  -0.92742  -1.23622 
 H                    -6.7723   -1.0395   -1.98813 
 H                    -8.03035  -1.05322   1.35759 
 H                    -8.06023   1.9838   -0.35717 
 Si                   -3.31018  -2.97416  -1.406 
 O                    -1.79319  -2.57507  -0.93631 
 O                    -4.23059  -3.30155  -0.09125 
 O                    -3.24876  -4.28448  -2.38516 
 O                    -3.98384  -1.70788  -2.2029 
 H                    -4.00478  -0.89769  -1.66505 
 H                    -4.11864  -4.64444  -2.60985 
 H                    -1.10594  -3.06413  -1.41428 
 H                    -4.35706  -2.53859   0.49456 
 H                    -4.87158   0.65381   0.6806 
 
 Add virtual bond connecting atoms H14        and O2         Dist= 4.41D+00.
 The following ModRedundant input section has been read:
 B       1       9 F                                                           
 

 GradGradGradGradGradGradGradGradGradGradGradGradGradGradGradGradGradGrad
 Berny optimization.
 Initialization pass.
                           ----------------------------
                           !    Initial Parameters    !
                           ! (Angstroms and Degrees)  !
 --------------------------                            --------------------------
 ! Name  Definition              Value          Derivative Info.                !
 --------------------------------------------------------------------------------
 ! R1    R(1,2)                  1.6454         estimate D2E/DX2                !
 ! R2    R(1,3)                  1.635          estimate D2E/DX2                !
 ! R3    R(1,4)                  1.6358         estimate D2E/DX2                !
 ! R4    R(1,5)                  1.6351         estimate D2E/DX2                !
 ! R5    R(1,9)                  4.9            Frozen                          !
 ! R6    R(2,14)                 2.3338         estimate D2E/DX2                !
 ! R7    R(2,18)                 0.9714         estimate D2E/DX2                !
 ! R8    R(3,8)                  0.9691         estimate D2E/DX2                !
 ! R9    R(4,7)                  0.9699         estimate D2E/DX2                !
 ! R10   R(5,6)                  0.9712         estimate D2E/DX2                !
 ! R11   R(9,10)                 1.6374         estimate D2E/DX2                !
 ! R12   R(9,11)                 1.638          estimate D2E/DX2                !
 ! R13   R(9,12)                 1.6369         estimate D2E/DX2                !
 ! R14   R(9,13)                 1.6408         estimate D2E/DX2                !
 ! R15   R(10,16)                0.9695         estimate D2E/DX2                !
 ! R16   R(11,17)                0.9702         estimate D2E/DX2                !
 ! R17   R(12,15)                0.9679         estimate D2E/DX2                !
 ! R18   R(13,14)                0.9727         estimate D2E/DX2                !
 ! A1    A(2,1,3)              108.8772         estimate D2E/DX2                !
 ! A2    A(2,1,4)              109.5124         estimate D2E/DX2                !
 ! A3    A(2,1,5)              109.2523         estimate D2E/DX2                !
 ! A4    A(3,1,4)              109.4344         estimate D2E/DX2                !
 ! A5    A(3,1,5)              110.5346         estimate D2E/DX2                !
 ! A6    A(4,1,5)              109.214          estimate D2E/DX2                !
 ! A7    A(1,2,14)             117.4681         estimate D2E/DX2                !
 ! A8    A(1,2,18)             112.2687         estimate D2E/DX2                !
 ! A9    A(14,2,18)            120.0526         estimate D2E/DX2                !
 ! A10   A(1,3,8)              114.1731         estimate D2E/DX2                !
 ! A11   A(1,4,7)              113.8041         estimate D2E/DX2                !
 ! A12   A(1,5,6)              114.6833         estimate D2E/DX2                !
 ! A13   A(10,9,11)            109.82           estimate D2E/DX2                !
 ! A14   A(10,9,12)            109.3858         estimate D2E/DX2                !
 ! A15   A(10,9,13)            109.3648         estimate D2E/DX2                !
 ! A16   A(11,9,12)            109.9517         estimate D2E/DX2                !
 ! A17   A(11,9,13)            108.2631         estimate D2E/DX2                !
 ! A18   A(12,9,13)            110.0383         estimate D2E/DX2                !
 ! A19   A(9,10,16)            113.1017         estimate D2E/DX2                !
 ! A20   A(9,11,17)            113.6237         estimate D2E/DX2                !
 ! A21   A(9,12,15)            113.7569         estimate D2E/DX2                !
 ! A22   A(9,13,14)            112.5252         estimate D2E/DX2                !
 ! A23   A(2,14,13)            137.6094         estimate D2E/DX2                !
 ! D1    D(3,1,2,14)           -94.8929         estimate D2E/DX2                !
 ! D2    D(3,1,2,18)            50.4723         estimate D2E/DX2                !
 ! D3    D(4,1,2,14)           145.4878         estimate D2E/DX2                !
 ! D4    D(4,1,2,18)           -69.147          estimate D2E/DX2                !
 ! D5    D(5,1,2,14)            25.9106         estimate D2E/DX2                !
 ! D6    D(5,1,2,18)           171.2758         estimate D2E/DX2                !
 ! D7    D(2,1,3,8)           -154.199          estimate D2E/DX2                !
 ! D8    D(4,1,3,8)            -34.5313         estimate D2E/DX2                !
 ! D9    D(5,1,3,8)             85.7881         estimate D2E/DX2                !
 ! D10   D(2,1,4,7)           -100.0138         estimate D2E/DX2                !
 ! D11   D(3,1,4,7)            140.7097         estimate D2E/DX2                !
 ! D12   D(5,1,4,7)             19.587          estimate D2E/DX2                !
 ! D13   D(2,1,5,6)            -39.7339         estimate D2E/DX2                !
 ! D14   D(3,1,5,6)             80.0535         estimate D2E/DX2                !
 ! D15   D(4,1,5,6)           -159.4953         estimate D2E/DX2                !
 ! D16   D(1,2,14,13)          -59.5533         estimate D2E/DX2                !
 ! D17   D(18,2,14,13)         157.866          estimate D2E/DX2                !
 ! D18   D(11,9,10,16)         130.3438         estimate D2E/DX2                !
 ! D19   D(12,9,10,16)           9.5908         estimate D2E/DX2                !
 ! D20   D(13,9,10,16)        -110.9862         estimate D2E/DX2                !
 ! D21   D(10,9,11,17)          63.842          estimate D2E/DX2                !
 ! D22   D(12,9,11,17)        -175.7474         estimate D2E/DX2                !
 ! D23   D(13,9,11,17)         -55.5049         estimate D2E/DX2                !
 ! D24   D(10,9,12,15)         172.6026         estimate D2E/DX2                !
 ! D25   D(11,9,12,15)          51.9299         estimate D2E/DX2                !
 ! D26   D(13,9,12,15)         -67.2318         estimate D2E/DX2                !
 ! D27   D(10,9,13,14)         -57.463          estimate D2E/DX2                !
 ! D28   D(11,9,13,14)          62.1705         estimate D2E/DX2                !
 ! D29   D(12,9,13,14)        -177.6412         estimate D2E/DX2                !
 ! D30   D(9,13,14,2)          -75.7527         estimate D2E/DX2                !
 --------------------------------------------------------------------------------
 Trust Radius=3.00D-01 FncErr=1.00D-07 GrdErr=1.00D-06 EigMax=2.50D+02 EigMin=1.00D-04
 Number of steps in this run=     81 maximum allowed number of steps=    108.
 GradGradGradGradGradGradGradGradGradGradGradGradGradGradGradGradGradGrad

                          Input orientation:                          
 ---------------------------------------------------------------------
 Center     Atomic      Atomic             Coordinates (Angstroms)
 Number     Number       Type             X           Y           Z
 ---------------------------------------------------------------------
      1         14           0       -6.866410    0.134540   -0.102460
      2          8           0       -5.245590   -0.043810    0.117570
      3          8           0       -7.170160    1.669550   -0.576450
      4          8           0       -7.645040   -0.164760    1.304710
      5          8           0       -7.376660   -0.927420   -1.236220
      6          1           0       -6.772300   -1.039500   -1.988130
      7          1           0       -8.030350   -1.053220    1.357590
      8          1           0       -8.060230    1.983800   -0.357170
      9         14           0       -3.310180   -2.974160   -1.406000
     10          8           0       -1.793190   -2.575070   -0.936310
     11          8           0       -4.230590   -3.301550   -0.091250
     12          8           0       -3.248760   -4.284480   -2.385160
     13          8           0       -3.983840   -1.707880   -2.202900
     14          1           0       -4.004780   -0.897690   -1.665050
     15          1           0       -4.118640   -4.644440   -2.609850
     16          1           0       -1.105940   -3.064130   -1.414280
     17          1           0       -4.357060   -2.538590    0.494560
     18          1           0       -4.871580    0.653810    0.680600
 ---------------------------------------------------------------------
                    Distance matrix (angstroms):
                    1          2          3          4          5
     1  Si   0.000000
     2  O    1.645381   0.000000
     3  O    1.634988   2.668564   0.000000
     4  O    1.635840   2.679793   2.670013   0.000000
     5  O    1.635092   2.674878   2.687414   2.666459   0.000000
     6  H    2.223281   2.784998   3.080598   3.517050   0.971175
     7  H    2.212979   3.211144   3.448755   0.969856   2.677870
     8  H    2.215817   3.501254   0.969052   2.747824   3.116921
     9  Si   4.900000   3.828058   6.095215   5.833669   4.555681
    10  O    5.811614   4.408742   6.859891   6.713860   5.829222
    11  O    4.330634   3.418582   5.795544   4.842171   4.104291
    12  O    6.150272   5.313593   7.355221   7.065020   5.443296
    13  O    4.014420   3.121814   4.919859   5.299899   3.613145
    14  H    3.419958   2.333764   4.218460   4.754803   3.399170
    15  H    6.056063   5.465769   7.301572   6.915693   5.130087
    16  H    6.718287   5.348420   7.738504   7.652391   6.627154
    17  H    3.714686   2.674983   5.173880   4.135484   3.835290
    18  H    2.205033   0.971370   2.809871   2.958319   3.528443
                    6          7          8          9         10
     6  H    0.000000
     7  H    3.574454   0.000000
     8  H    3.668670   3.487805   0.000000
     9  Si   4.008498   5.797193   6.945818   0.000000
    10  O    5.315622   6.817637   7.771389   1.637419   0.000000
    11  O    3.895550   4.646752   6.532364   1.637958   2.680078
    12  O    4.806544   6.878432   8.158083   1.636907   2.672065
    13  O    2.875477   5.429541   5.801050   1.640833   2.674924
    14  H    2.789921   5.036443   5.143949   2.204836   2.869808
    15  H    4.519296   6.628644   8.033945   2.211944   3.534225
    16  H    6.044507   7.724926   8.658015   2.206091   0.969509
    17  H    3.774176   4.055145   5.906854   2.213099   2.936350
    18  H    3.688110   3.653778   3.607399   4.466994   4.745161
                   11         12         13         14         15
    11  O    0.000000
    12  O    2.681821   0.000000
    13  O    2.657016   2.685597   0.000000
    14  H    2.882079   3.544076   0.972692   0.000000
    15  H    2.856437   0.967857   2.967687   3.865714   0.000000
    16  H    3.401502   2.650196   3.277750   3.627619   3.605985
    17  H    0.970194   3.545314   2.847045   2.735063   3.758831
    18  H    4.080624   6.034827   3.831479   2.942884   6.282152
                   16         17         18
    16  H    0.000000
    17  H    3.806526   0.000000
    18  H    5.691366   3.238944   0.000000
 Stoichiometry    H8O8Si2
 Framework group  C1[X(H8O8Si2)]
 Deg. of freedom    48
 Full point group                 C1      NOp   1
 Largest Abelian subgroup         C1      NOp   1
 Largest concise Abelian subgroup C1      NOp   1
                         Standard orientation:                         
 ---------------------------------------------------------------------
 Center     Atomic      Atomic             Coordinates (Angstroms)
 Number     Number       Type             X           Y           Z
 ---------------------------------------------------------------------
      1         14           0       -2.438260   -0.004464   -0.010037
      2          8           0       -1.207720    1.063138    0.220784
      3          8           0       -3.503308    0.637374   -1.071594
      4          8           0       -3.191939   -0.285804    1.414318
      5          8           0       -1.831917   -1.409989   -0.584819
      6          1           0       -1.120277   -1.307785   -1.237740
      7          1           0       -2.923392   -1.113559    1.842483
      8          1           0       -4.407333    0.300812   -0.979264
      9         14           0        2.461721   -0.005594    0.003892
     10          8           0        3.184260    1.447197    0.224064
     11          8           0        1.647712   -0.432187    1.359736
     12          8           0        3.598815   -1.131038   -0.342312
     13          8           0        1.384965    0.103618   -1.229397
     14          1           0        0.712399    0.789638   -1.077211
     15          1           0        3.255512   -2.035429   -0.373419
     16          1           0        4.121179    1.447743   -0.025195
     17          1           0        0.915553    0.165796    1.577995
     18          1           0       -1.529047    1.955124    0.432136
 ---------------------------------------------------------------------
 Rotational constants (GHZ):           2.0083152           0.3611084           0.3596420
 Standard basis: 6-31+G(d,p) (6D, 7F)
 There are   238 symmetry adapted cartesian basis functions of A   symmetry.
 There are   238 symmetry adapted basis functions of A   symmetry.
   238 basis functions,   424 primitive gaussians,   238 cartesian basis functions
    50 alpha electrons       50 beta electrons
       nuclear repulsion energy       807.8784891473 Hartrees.
 NAtoms=   18 NActive=   18 NUniq=   18 SFac= 1.00D+00 NAtFMM=   60 NAOKFM=F Big=F
 Integral buffers will be    131072 words long.
 Raffenetti 2 integral format.
 Two-electron integral symmetry is turned on.
 Nuclear repulsion after empirical dispersion term =      807.8650316853 Hartrees.
 One-electron integrals computed using PRISM.
 NBasis=   238 RedAO= T EigKep=  2.60D-04  NBF=   238
 NBsUse=   238 1.00D-06 EigRej= -1.00D+00 NBFU=   238
 ExpMin= 3.31D-02 ExpMax= 1.61D+04 ExpMxC= 2.43D+03 IAcc=3 IRadAn=         5 AccDes= 0.00D+00
 Harris functional with IExCor=  402 and IRadAn=       5 diagonalized for initial guess.
 HarFok:  IExCor=  402 AccDes= 0.00D+00 IRadAn=         5 IDoV= 1 UseB2=F ITyADJ=14
 ICtDFT=  3500011 ScaDFX=  1.000000  1.000000  1.000000  1.000000
 FoFCou: FMM=F IPFlag=           0 FMFlag=      100000 FMFlg1=           0
         NFxFlg=           0 DoJE=T BraDBF=F KetDBF=T FulRan=T
         wScrn=  0.000000 ICntrl=       500 IOpCl=  0 I1Cent=   200000004 NGrid=           0
         NMat0=    1 NMatS0=      1 NMatT0=    0 NMatD0=    1 NMtDS0=    0 NMtDT0=    0
 Petite list used in FoFCou.
 Requested convergence on RMS density matrix=1.00D-08 within 128 cycles.
 Requested convergence on MAX density matrix=1.00D-06.
 Requested convergence on             energy=1.00D-06.
 No special actions if energy rises.
 SCF Done:  E(RB3LYP) =  -1186.05065997     A.U. after   11 cycles
            NFock= 11  Conv=0.77D-08     -V/T= 2.0065

 **********************************************************************

            Population analysis using the SCF Density.

 **********************************************************************

 Orbital symmetries:
       Occupied  (A) (A) (A) (A) (A) (A) (A) (A) (A) (A) (A) (A)
                 (A) (A) (A) (A) (A) (A) (A) (A) (A) (A) (A) (A)
                 (A) (A) (A) (A) (A) (A) (A) (A) (A) (A) (A) (A)
                 (A) (A) (A) (A) (A) (A) (A) (A) (A) (A) (A) (A)
                 (A) (A)
       Virtual   (A) (A) (A) (A) (A) (A) (A) (A) (A) (A) (A) (A)
                 (A) (A) (A) (A) (A) (A) (A) (A) (A) (A) (A) (A)
                 (A) (A) (A) (A) (A) (A) (A) (A) (A) (A) (A) (A)
                 (A) (A) (A) (A) (A) (A) (A) (A) (A) (A) (A) (A)
                 (A) (A) (A) (A) (A) (A) (A) (A) (A) (A) (A) (A)
                 (A) (A) (A) (A) (A) (A) (A) (A) (A) (A) (A) (A)
                 (A) (A) (A) (A) (A) (A) (A) (A) (A) (A) (A) (A)
                 (A) (A) (A) (A) (A) (A) (A) (A) (A) (A) (A) (A)
                 (A) (A) (A) (A) (A) (A) (A) (A) (A) (A) (A) (A)
                 (A) (A) (A) (A) (A) (A) (A) (A) (A) (A) (A) (A)
                 (A) (A) (A) (A) (A) (A) (A) (A) (A) (A) (A) (A)
                 (A) (A) (A) (A) (A) (A) (A) (A) (A) (A) (A) (A)
                 (A) (A) (A) (A) (A) (A) (A) (A) (A) (A) (A) (A)
                 (A) (A) (A) (A) (A) (A) (A) (A) (A) (A) (A) (A)
                 (A) (A) (A) (A) (A) (A) (A) (A) (A) (A) (A) (A)
                 (A) (A) (A) (A) (A) (A) (A) (A)
 The electronic state is 1-A.
 Alpha  occ. eigenvalues --  -66.22748 -66.20842 -19.19427 -19.18105 -19.17851
 Alpha  occ. eigenvalues --  -19.17680 -19.17177 -19.16317 -19.15844 -19.15819
 Alpha  occ. eigenvalues --   -5.36349  -5.34442  -3.72356  -3.72319  -3.72255
 Alpha  occ. eigenvalues --   -3.70468  -3.70379  -3.70362  -1.06455  -1.04505
 Alpha  occ. eigenvalues --   -1.02996  -1.02068  -1.01823  -1.00981  -1.00405
 Alpha  occ. eigenvalues --   -0.99817  -0.60645  -0.58833  -0.54988  -0.54350
 Alpha  occ. eigenvalues --   -0.54104  -0.53290  -0.52114  -0.51958  -0.43073
 Alpha  occ. eigenvalues --   -0.41246  -0.40304  -0.39981  -0.39624  -0.38924
 Alpha  occ. eigenvalues --   -0.38448  -0.38134  -0.37912  -0.36848  -0.35139
 Alpha  occ. eigenvalues --   -0.34913  -0.34189  -0.33308  -0.33223  -0.30626
 Alpha virt. eigenvalues --   -0.04072  -0.01281   0.00177   0.00926   0.01736
 Alpha virt. eigenvalues --    0.02409   0.04144   0.05879   0.08670   0.09663
 Alpha virt. eigenvalues --    0.10036   0.11141   0.11236   0.12059   0.12762
 Alpha virt. eigenvalues --    0.13552   0.13849   0.14480   0.15275   0.15700
 Alpha virt. eigenvalues --    0.16310   0.16468   0.17005   0.17603   0.18271
 Alpha virt. eigenvalues --    0.18461   0.18883   0.19634   0.20248   0.20459
 Alpha virt. eigenvalues --    0.20590   0.21388   0.22137   0.23155   0.24046
 Alpha virt. eigenvalues --    0.24283   0.25371   0.25855   0.26440   0.26802
 Alpha virt. eigenvalues --    0.27143   0.28044   0.28193   0.30043   0.30126
 Alpha virt. eigenvalues --    0.30752   0.32052   0.33043   0.34548   0.35445
 Alpha virt. eigenvalues --    0.35844   0.37305   0.38454   0.40615   0.42198
 Alpha virt. eigenvalues --    0.44895   0.45670   0.47072   0.47971   0.48518
 Alpha virt. eigenvalues --    0.49696   0.51974   0.61005   0.62182   0.63341
 Alpha virt. eigenvalues --    0.64241   0.65823   0.67020   0.93752   0.94460
 Alpha virt. eigenvalues --    0.95284   0.95924   0.96690   0.97426   0.98198
 Alpha virt. eigenvalues --    0.98383   0.99409   1.01279   1.03196   1.04354
 Alpha virt. eigenvalues --    1.05575   1.07828   1.14697   1.15994   1.16335
 Alpha virt. eigenvalues --    1.17370   1.17464   1.18206   1.18979   1.19878
 Alpha virt. eigenvalues --    1.20717   1.21428   1.22887   1.23453   1.23844
 Alpha virt. eigenvalues --    1.24905   1.25459   1.26011   1.27009   1.28205
 Alpha virt. eigenvalues --    1.29726   1.30372   1.31357   1.33199   1.34843
 Alpha virt. eigenvalues --    1.35896   1.45675   1.48962   1.51607   1.54885
 Alpha virt. eigenvalues --    1.54920   1.56134   1.56769   1.57264   1.58472
 Alpha virt. eigenvalues --    1.59477   1.61341   1.62955   1.63316   1.65797
 Alpha virt. eigenvalues --    1.67130   1.68297   1.68783   1.70982   1.72811
 Alpha virt. eigenvalues --    1.75481   1.77913   1.79407   1.86095   1.87625
 Alpha virt. eigenvalues --    1.89341   1.91631   1.92398   2.00553   2.01799
 Alpha virt. eigenvalues --    2.08988   2.10695   2.15388   2.35185   2.35979
 Alpha virt. eigenvalues --    2.36807   2.37110   2.37828   2.38076   2.38935
 Alpha virt. eigenvalues --    2.41150   2.47033   2.49287   2.58439   2.58738
 Alpha virt. eigenvalues --    2.59211   2.60409   2.60827   2.61494   2.61990
 Alpha virt. eigenvalues --    2.62417   2.64477   2.65124   2.68726   2.69167
 Alpha virt. eigenvalues --    2.71272   2.72077   2.73356   2.73855   2.77181
 Alpha virt. eigenvalues --    2.78512   2.78744   2.79872   2.81677   2.82190
 Alpha virt. eigenvalues --    2.98509   3.00955   3.39048   3.40183   3.41669
 Alpha virt. eigenvalues --    3.43829   3.44450   3.45270   3.49392   3.50985
 Alpha virt. eigenvalues --    4.10374   4.14932   4.16303   4.19745   4.20606
 Alpha virt. eigenvalues --    4.21537   4.27143   4.38503
          Condensed to atoms (all electrons):
               1          2          3          4          5          6
     1  Si  11.731597  -0.036291   0.064476   0.049249   0.089105   0.032971
     2  O   -0.036291   8.627895   0.045593   0.025917   0.032631  -0.006180
     3  O    0.064476   0.045593   8.491193   0.004876  -0.014810  -0.007374
     4  O    0.049249   0.025917   0.004876   8.491235   0.069377   0.006375
     5  O    0.089105   0.032631  -0.014810   0.069377   8.441676   0.249713
     6  H    0.032971  -0.006180  -0.007374   0.006375   0.249713   0.336344
     7  H    0.036774  -0.006423   0.004661   0.241706  -0.003285   0.000069
     8  H    0.037115   0.003743   0.239487  -0.002112  -0.007081   0.000072
     9  Si   0.003022  -0.003732   0.001261   0.000036  -0.014533   0.001103
    10  O    0.000621  -0.000018  -0.000002  -0.000044   0.000057   0.000047
    11  O   -0.011855   0.008817  -0.000442  -0.001113   0.008594  -0.000878
    12  O    0.001443  -0.001365  -0.000014   0.000017  -0.000222  -0.000067
    13  O   -0.020927   0.011038  -0.001766  -0.000867   0.019232   0.004842
    14  H    0.006256   0.000508  -0.000358   0.000246  -0.003328  -0.000052
    15  H   -0.000161   0.000054   0.000000  -0.000000  -0.000015   0.000004
    16  H   -0.000128   0.000022   0.000000   0.000000   0.000002  -0.000000
    17  H    0.002589   0.004849   0.000077   0.000146  -0.001282   0.000055
    18  H    0.043486   0.222282  -0.003024  -0.008058   0.007164   0.000091
               7          8          9         10         11         12
     1  Si   0.036774   0.037115   0.003022   0.000621  -0.011855   0.001443
     2  O   -0.006423   0.003743  -0.003732  -0.000018   0.008817  -0.001365
     3  O    0.004661   0.239487   0.001261  -0.000002  -0.000442  -0.000014
     4  O    0.241706  -0.002112   0.000036  -0.000044  -0.001113   0.000017
     5  O   -0.003285  -0.007081  -0.014533   0.000057   0.008594  -0.000222
     6  H    0.000069   0.000072   0.001103   0.000047  -0.000878  -0.000067
     7  H    0.350806   0.000089   0.000039  -0.000000  -0.000075  -0.000001
     8  H    0.000089   0.357616  -0.000043   0.000000   0.000006   0.000000
     9  Si   0.000039  -0.000043  11.768310   0.010571   0.017331   0.042719
    10  O   -0.000000   0.000000   0.010571   8.524967   0.052345   0.025926
    11  O   -0.000075   0.000006   0.017331   0.052345   8.501289   0.033098
    12  O   -0.000001   0.000000   0.042719   0.025926   0.033098   8.475313
    13  O    0.000016   0.000026   0.027292   0.036063   0.030675   0.039705
    14  H   -0.000001  -0.000002   0.048944  -0.006447  -0.018291   0.007303
    15  H   -0.000000   0.000000   0.036723   0.007849  -0.007437   0.248163
    16  H   -0.000000   0.000000   0.031317   0.240802   0.001647  -0.000642
    17  H    0.000018  -0.000000   0.051028  -0.007946   0.231170   0.007182
    18  H    0.000084   0.000133   0.000217   0.000008   0.000437  -0.000003
              13         14         15         16         17         18
     1  Si  -0.020927   0.006256  -0.000161  -0.000128   0.002589   0.043486
     2  O    0.011038   0.000508   0.000054   0.000022   0.004849   0.222282
     3  O   -0.001766  -0.000358   0.000000   0.000000   0.000077  -0.003024
     4  O   -0.000867   0.000246  -0.000000   0.000000   0.000146  -0.008058
     5  O    0.019232  -0.003328  -0.000015   0.000002  -0.001282   0.007164
     6  H    0.004842  -0.000052   0.000004  -0.000000   0.000055   0.000091
     7  H    0.000016  -0.000001  -0.000000  -0.000000   0.000018   0.000084
     8  H    0.000026  -0.000002   0.000000   0.000000  -0.000000   0.000133
     9  Si   0.027292   0.048944   0.036723   0.031317   0.051028   0.000217
    10  O    0.036063  -0.006447   0.007849   0.240802  -0.007946   0.000008
    11  O    0.030675  -0.018291  -0.007437   0.001647   0.231170   0.000437
    12  O    0.039705   0.007303   0.248163  -0.000642   0.007182  -0.000003
    13  O    8.502695   0.226932  -0.008011  -0.003051  -0.017174   0.001863
    14  H    0.226932   0.352770   0.000006  -0.000008   0.000423  -0.000479
    15  H   -0.008011   0.000006   0.359200   0.000062   0.000021   0.000000
    16  H   -0.003051  -0.000008   0.000062   0.354621  -0.000030   0.000000
    17  H   -0.017174   0.000423   0.000021  -0.000030   0.354751  -0.000074
    18  H    0.001863  -0.000479   0.000000   0.000000  -0.000074   0.352564
 Mulliken charges:
               1
     1  Si   1.970658
     2  O   -0.929340
     3  O   -0.823835
     4  O   -0.876986
     5  O   -0.872995
     6  H    0.382867
     7  H    0.375524
     8  H    0.370950
     9  Si   1.978396
    10  O   -0.884799
    11  O   -0.845317
    12  O   -0.878557
    13  O   -0.848583
    14  H    0.385579
    15  H    0.363544
    16  H    0.375385
    17  H    0.374199
    18  H    0.383310
 Sum of Mulliken charges =  -0.00000
 Mulliken charges with hydrogens summed into heavy atoms:
               1
     1  Si   1.970658
     2  O   -0.546029
     3  O   -0.452885
     4  O   -0.501461
     5  O   -0.490128
     9  Si   1.978396
    10  O   -0.509415
    11  O   -0.471118
    12  O   -0.515013
    13  O   -0.463005
 Electronic spatial extent (au):  <R**2>=           3034.6062
 Charge=             -0.0000 electrons
 Dipole moment (field-independent basis, Debye):
    X=             -2.0517    Y=              0.1061    Z=              0.2811  Tot=              2.0736
 Quadrupole moment (field-independent basis, Debye-Ang):
   XX=            -66.9917   YY=            -66.7311   ZZ=            -75.8689
   XY=              0.3183   XZ=             -2.4593   YZ=              0.7732
 Traceless Quadrupole moment (field-independent basis, Debye-Ang):
   XX=              2.8722   YY=              3.1328   ZZ=             -6.0050
   XY=              0.3183   XZ=             -2.4593   YZ=              0.7732
 Octapole moment (field-independent basis, Debye-Ang**2):
  XXX=            -23.6271  YYY=             -4.3078  ZZZ=              6.0305  XYY=              5.1839
  XXY=              1.3802  XXZ=            -12.9721  XZZ=             -9.1816  YZZ=             -6.2733
  YYZ=              3.1360  XYZ=              2.4142
 Hexadecapole moment (field-independent basis, Debye-Ang**3):
 XXXX=          -2585.2470 YYYY=           -322.2199 ZZZZ=           -357.7473 XXXY=            130.9440
 XXXZ=             61.7575 YYYX=            -73.1865 YYYZ=              5.9111 ZZZX=            -13.3648
 ZZZY=             -2.7216 XXYY=           -511.7918 XXZZ=           -598.4661 YYZZ=           -110.3617
 XXYZ=            -16.4871 YYXZ=            -41.3874 ZZXY=             29.2985
 N-N= 8.078650316853D+02 E-N=-4.425677345552D+03  KE= 1.178409524461D+03
 Calling FoFJK, ICntrl=      2127 FMM=F ISym2X=0 I1Cent= 0 IOpClX= 0 NMat=1 NMatS=1 NMatT=0.
 ***** Axes restored to original set *****
 -------------------------------------------------------------------
 Center     Atomic                   Forces (Hartrees/Bohr)
 Number     Number              X              Y              Z
 -------------------------------------------------------------------
      1       14          -0.006014286   -0.003097035   -0.004755376
      2        8           0.015615382    0.005356132    0.000205722
      3        8          -0.003099350    0.012300238    0.005170552
      4        8          -0.011666767   -0.007890282    0.004216215
      5        8           0.006668338   -0.007958033   -0.005803582
      6        1          -0.003606066   -0.003237976    0.002309969
      7        1           0.001194230    0.004396385    0.002806993
      8        1           0.004541017    0.000807454   -0.002151507
      9       14          -0.002761052    0.002016861    0.002100401
     10        8           0.014228538   -0.006037356   -0.003791689
     11        8          -0.004408219    0.000586999    0.011963562
     12        8          -0.005295140   -0.003789366   -0.002385390
     13        8          -0.005708966    0.014125615   -0.004194028
     14        1          -0.002359477   -0.002087778   -0.003535375
     15        1           0.004180297   -0.001585235   -0.001316121
     16        1           0.000001606    0.004414127    0.004217454
     17        1          -0.002988908   -0.003830817   -0.001600709
     18        1           0.001478822   -0.004489932   -0.003457092
 -------------------------------------------------------------------
 Cartesian Forces:  Max     0.015615382 RMS     0.005839744

 GradGradGradGradGradGradGradGradGradGradGradGradGradGradGradGradGradGrad
 Berny optimization.
 FormGI is forming the generalized inverse of G from B-inverse, IUseBI=4.
 Internal  Forces:  Max     0.014321331 RMS     0.005552677
 Search for a local minimum.
 Step number   1 out of a maximum of   81
 All quantities printed in internal units (Hartrees-Bohrs-Radians)
 Mixed Optimization -- RFO/linear search
 Second derivative matrix not updated -- first step.
 ITU=  0
     Eigenvalues ---    0.00393   0.02343   0.03493   0.03739   0.03799
     Eigenvalues ---    0.03837   0.03844   0.03851   0.03865   0.03875
     Eigenvalues ---    0.03876   0.07258   0.10703   0.10772   0.12173
     Eigenvalues ---    0.12197   0.12246   0.12480   0.14663   0.16000
     Eigenvalues ---    0.16000   0.16000   0.16000   0.16000   0.16000
     Eigenvalues ---    0.16000   0.20131   0.20260   0.20696   0.20836
     Eigenvalues ---    0.21232   0.41361   0.43803   0.44527   0.44613
     Eigenvalues ---    0.44696   0.44868   0.44990   0.45007   0.51774
     Eigenvalues ---    0.53098   0.53138   0.53337   0.53406   0.53477
     Eigenvalues ---    0.53571   0.538171000.000001000.000001000.00000
     Eigenvalues --- 1000.000001000.000001000.000001000.000001000.00000
     Eigenvalues --- 1000.000001000.000001000.000001000.000001000.00000
     Eigenvalues --- 1000.000001000.000001000.000001000.000001000.00000
     Eigenvalues --- 1000.000001000.000001000.000001000.000001000.00000
     Eigenvalues --- 1000.00000
 RFO step:  Lambda=-7.84561937D-03 EMin= 3.92762225D-03
 Linear search not attempted -- first point.
 Iteration  1 RMS(Cart)=  0.06626342 RMS(Int)=  0.00143651
 Iteration  2 RMS(Cart)=  0.00230416 RMS(Int)=  0.00023692
 Iteration  3 RMS(Cart)=  0.00000313 RMS(Int)=  0.00023692
 Iteration  4 RMS(Cart)=  0.00000000 RMS(Int)=  0.00023692
 Iteration  1 RMS(Cart)=  0.00001112 RMS(Int)=  0.00000121
 Iteration  2 RMS(Cart)=  0.00000078 RMS(Int)=  0.00000125
 Variable       Old X    -DE/DX   Delta X   Delta X   Delta X     New X
                                 (Linear)    (Quad)   (Total)
    R1        3.10932   0.01367   0.00000   0.03318   0.03321   3.14253
    R2        3.08968   0.01116   0.00000   0.02438   0.02438   3.11406
    R3        3.09129   0.01167   0.00000   0.02555   0.02555   3.11684
    R4        3.08988   0.00874   0.00000   0.01909   0.01909   3.10897
    R5        9.25966  -0.00349   0.00000   0.00000  -0.00000   9.25966
    R6        4.41017  -0.00236   0.00000  -0.03800  -0.03797   4.37220
    R7        1.83562  -0.00466   0.00000  -0.00865  -0.00865   1.82698
    R8        1.83124  -0.00440   0.00000  -0.00809  -0.00809   1.82316
    R9        1.83276  -0.00435   0.00000  -0.00802  -0.00802   1.82474
   R10        1.83526  -0.00366   0.00000  -0.00679  -0.00679   1.82847
   R11        3.09427   0.01291   0.00000   0.02844   0.02844   3.12271
   R12        3.09529   0.01312   0.00000   0.02896   0.02896   3.12425
   R13        3.09331   0.00647   0.00000   0.01424   0.01424   3.10754
   R14        3.10072   0.01432   0.00000   0.03385   0.03388   3.13460
   R15        1.83211  -0.00430   0.00000  -0.00793  -0.00793   1.82417
   R16        1.83340  -0.00359   0.00000  -0.00663  -0.00663   1.82677
   R17        1.82899  -0.00286   0.00000  -0.00524  -0.00524   1.82374
   R18        1.83812  -0.00532   0.00000  -0.00824  -0.00821   1.82991
    A1        1.90027  -0.00738   0.00000  -0.03769  -0.03720   1.86307
    A2        1.91135   0.01122   0.00000   0.04916   0.04917   1.96052
    A3        1.90681  -0.00769   0.00000  -0.04127  -0.04073   1.86608
    A4        1.90999  -0.00351   0.00000  -0.01222  -0.01190   1.89809
    A5        1.92919   0.01180   0.00000   0.06098   0.06059   1.98978
    A6        1.90614  -0.00435   0.00000  -0.01863  -0.01830   1.88784
    A7        2.05021  -0.00664   0.00000  -0.03167  -0.03162   2.01859
    A8        1.95946   0.00621   0.00000   0.03145   0.03136   1.99082
    A9        2.09531  -0.00025   0.00000  -0.00760  -0.00752   2.08779
   A10        1.99270   0.00469   0.00000   0.02796   0.02796   2.02066
   A11        1.98626   0.00560   0.00000   0.03338   0.03338   2.01964
   A12        2.00160   0.00637   0.00000   0.03796   0.03796   2.03956
   A13        1.91672   0.00205   0.00000   0.01317   0.01295   1.92967
   A14        1.90914  -0.00309   0.00000  -0.01992  -0.01988   1.88927
   A15        1.90878   0.00205   0.00000   0.01417   0.01399   1.92276
   A16        1.91902  -0.00115   0.00000  -0.00998  -0.00994   1.90908
   A17        1.88955   0.00071   0.00000   0.00902   0.00884   1.89839
   A18        1.92053  -0.00050   0.00000  -0.00593  -0.00587   1.91466
   A19        1.97400   0.00792   0.00000   0.04718   0.04718   2.02118
   A20        1.98311   0.00520   0.00000   0.03099   0.03099   2.01409
   A21        1.98543   0.00673   0.00000   0.04008   0.04008   2.02551
   A22        1.96394   0.00080   0.00000   0.01628   0.01634   1.98027
   A23        2.40174  -0.00139   0.00000   0.00416   0.00423   2.40597
    D1       -1.65619  -0.00181   0.00000  -0.00101  -0.00151  -1.65770
    D2        0.88091  -0.00269   0.00000  -0.01435  -0.01500   0.86591
    D3        2.53924   0.00023   0.00000   0.00730   0.00734   2.54658
    D4       -1.20684  -0.00065   0.00000  -0.00604  -0.00615  -1.21299
    D5        0.45222   0.00343   0.00000   0.02539   0.02608   0.47831
    D6        2.98933   0.00255   0.00000   0.01205   0.01259   3.00191
    D7       -2.69128  -0.00472   0.00000  -0.02348  -0.02401  -2.71529
    D8       -0.60268   0.00239   0.00000   0.00638   0.00639  -0.59629
    D9        1.49729   0.00217   0.00000   0.01377   0.01428   1.51157
   D10       -1.74557   0.00064   0.00000   0.01013   0.01020  -1.73536
   D11        2.45585   0.00500   0.00000   0.03385   0.03370   2.48955
   D12        0.34186  -0.00461   0.00000  -0.02189  -0.02181   0.32005
   D13       -0.69349   0.00539   0.00000   0.04154   0.04223  -0.65125
   D14        1.39720  -0.00128   0.00000   0.00662   0.00615   1.40335
   D15       -2.78372  -0.00104   0.00000   0.01768   0.01745  -2.76627
   D16       -1.03940   0.00105   0.00000  -0.01986  -0.01968  -1.05908
   D17        2.75528  -0.00003   0.00000  -0.01830  -0.01852   2.73677
   D18        2.27493  -0.00167   0.00000  -0.01185  -0.01198   2.26295
   D19        0.16739   0.00040   0.00000   0.00475   0.00475   0.17214
   D20       -1.93707   0.00166   0.00000   0.01557   0.01570  -1.92138
   D21        1.11425   0.00373   0.00000   0.04535   0.04544   1.15969
   D22       -3.06737   0.00049   0.00000   0.02274   0.02273  -3.04464
   D23       -0.96874  -0.00037   0.00000   0.01512   0.01505  -0.95370
   D24        3.01248  -0.00017   0.00000  -0.00199  -0.00196   3.01053
   D25        0.90635  -0.00004   0.00000   0.00056   0.00050   0.90685
   D26       -1.17342   0.00011   0.00000  -0.00069  -0.00065  -1.17407
   D27       -1.00292  -0.00196   0.00000  -0.00873  -0.00881  -1.01173
   D28        1.08508   0.00213   0.00000   0.02073   0.02081   1.10589
   D29       -3.10042   0.00087   0.00000   0.01059   0.01060  -3.08982
   D30       -1.32213   0.00233   0.00000   0.00631   0.00624  -1.31589
         Item               Value     Threshold  Converged?
 Maximum Force            0.014495     0.000450     NO 
 RMS     Force            0.005575     0.000300     NO 
 Maximum Displacement     0.227683     0.001800     NO 
 RMS     Displacement     0.067212     0.001200     NO 
 Predicted change in Energy=-4.091993D-03
 GradGradGradGradGradGradGradGradGradGradGradGradGradGradGradGradGradGrad

                          Input orientation:                          
 ---------------------------------------------------------------------
 Center     Atomic      Atomic             Coordinates (Angstroms)
 Number     Number       Type             X           Y           Z
 ---------------------------------------------------------------------
      1         14           0       -6.876934    0.137796   -0.093915
      2          8           0       -5.238198   -0.023471    0.138387
      3          8           0       -7.137421    1.691741   -0.576552
      4          8           0       -7.735839   -0.139725    1.286541
      5          8           0       -7.316107   -0.991313   -1.206975
      6          1           0       -6.693085   -1.159985   -1.927818
      7          1           0       -8.128878   -1.018135    1.366022
      8          1           0       -8.018904    2.043005   -0.402239
      9         14           0       -3.316697   -2.961795   -1.408165
     10          8           0       -1.768904   -2.574603   -0.977971
     11          8           0       -4.213538   -3.339759   -0.071690
     12          8           0       -3.261703   -4.261613   -2.413965
     13          8           0       -4.031015   -1.682652   -2.186002
     14          1           0       -4.050628   -0.871896   -1.656864
     15          1           0       -4.112221   -4.654111   -2.646240
     16          1           0       -1.070968   -3.031444   -1.463776
     17          1           0       -4.373187   -2.609062    0.540741
     18          1           0       -4.847074    0.672023    0.684282
 ---------------------------------------------------------------------
                    Distance matrix (angstroms):
                    1          2          3          4          5
     1  Si   0.000000
     2  O    1.662957   0.000000
     3  O    1.647889   2.657092   0.000000
     4  O    1.649362   2.751360   2.680202   0.000000
     5  O    1.645194   2.657899   2.761908   2.668145   0.000000
     6  H    2.254159   2.770842   3.186800   3.529925   0.967585
     7  H    2.243871   3.294310   3.478507   0.965610   2.698449
     8  H    2.242539   3.506413   0.964772   2.774241   3.216925
     9  Si   4.900000   3.836370   6.078232   5.895281   4.463021
    10  O    5.850695   4.448655   6.869046   6.830883   5.773276
    11  O    4.380361   3.477331   5.841230   4.948901   4.053395
    12  O    6.148766   5.327559   7.337554   7.120506   5.346951
    13  O    3.973677   3.100477   4.860721   5.307061   3.496895
    14  H    3.383828   2.313671   4.155430   4.772891   3.298487
    15  H    6.092649   5.519493   7.328388   6.998361   5.074688
    16  H    6.754986   5.383366   7.739347   7.768320   6.574941
    17  H    3.770512   2.755978   5.233186   4.238074   3.785816
    18  H    2.238598   0.966795   2.806282   3.060493   3.526991
                    6          7          8          9         10
     6  H    0.000000
     7  H    3.595970   0.000000
     8  H    3.787391   3.536866   0.000000
     9  Si   3.862196   5.884813   6.940509   0.000000
    10  O    5.210654   6.954579   7.792065   1.652467   0.000000
    11  O    3.787451   4.773557   6.600320   1.653284   2.717175
    12  O    4.650895   6.964040   8.150228   1.644441   2.671429
    13  O    2.725153   5.463601   5.741567   1.658761   2.715155
    14  H    2.671889   5.078518   5.081137   2.228942   2.926836
    15  H    4.402943   6.741818   8.071498   2.242682   3.549452
    16  H    5.943560   7.866083   8.668951   2.247496   0.965311
    17  H    3.684500   4.161412   5.985164   2.244734   3.014957
    18  H    3.686066   3.753884   3.622241   4.463746   4.772714
                   11         12         13         14         15
    11  O    0.000000
    12  O    2.691107   0.000000
    13  O    2.692515   2.700898   0.000000
    14  H    2.937629   3.561711   0.968347   0.000000
    15  H    2.892421   0.965084   3.007986   3.909962   0.000000
    16  H    3.450899   2.686167   3.332076   3.685011   3.644240
    17  H    0.966684   3.563231   2.900077   2.819797   3.795679
    18  H    4.131254   6.037657   3.801181   2.915301   6.324563
                   16         17         18
    16  H    0.000000
    17  H    3.886019   0.000000
    18  H    5.708660   3.318236   0.000000
 Stoichiometry    H8O8Si2
 Framework group  C1[X(H8O8Si2)]
 Deg. of freedom    48
 Full point group                 C1      NOp   1
 Largest Abelian subgroup         C1      NOp   1
 Largest concise Abelian subgroup C1      NOp   1
                         Standard orientation:                         
 ---------------------------------------------------------------------
 Center     Atomic      Atomic             Coordinates (Angstroms)
 Number     Number       Type             X           Y           Z
 ---------------------------------------------------------------------
      1         14           0       -2.446064   -0.005939   -0.015240
      2          8           0       -1.218887    0.982242    0.516702
      3          8           0       -3.485632    0.945703   -0.869181
      4          8           0       -3.270080   -0.707261    1.229565
      5          8           0       -1.747344   -1.200269   -0.905199
      6          1           0       -0.992261   -0.950160   -1.456121
      7          1           0       -3.021584   -1.617080    1.436640
      8          1           0       -4.394553    0.627412   -0.926965
      9         14           0        2.453882   -0.002227    0.007464
     10          8           0        3.214447    1.343393    0.591840
     11          8           0        1.677836   -0.805915    1.226146
     12          8           0        3.589682   -0.987040   -0.659086
     13          8           0        1.339353    0.425603   -1.144176
     14          1           0        0.668345    1.044113   -0.820310
     15          1           0        3.284236   -1.859593   -0.936107
     16          1           0        4.141922    1.443060    0.343481
     17          1           0        0.933148   -0.335625    1.624574
     18          1           0       -1.523697    1.790547    0.950782
 ---------------------------------------------------------------------
 Rotational constants (GHZ):           1.9896308           0.3605119           0.3576673
 Standard basis: 6-31+G(d,p) (6D, 7F)
 There are   238 symmetry adapted cartesian basis functions of A   symmetry.
 There are   238 symmetry adapted basis functions of A   symmetry.
   238 basis functions,   424 primitive gaussians,   238 cartesian basis functions
    50 alpha electrons       50 beta electrons
       nuclear repulsion energy       803.9216293723 Hartrees.
 NAtoms=   18 NActive=   18 NUniq=   18 SFac= 1.00D+00 NAtFMM=   60 NAOKFM=F Big=F
 Integral buffers will be    131072 words long.
 Raffenetti 2 integral format.
 Two-electron integral symmetry is turned on.
 Nuclear repulsion after empirical dispersion term =      803.9082634193 Hartrees.
 One-electron integrals computed using PRISM.
 NBasis=   238 RedAO= T EigKep=  2.67D-04  NBF=   238
 NBsUse=   238 1.00D-06 EigRej= -1.00D+00 NBFU=   238
 Initial guess from the checkpoint file:  "/localscratch/sarashs.36560084.0/Gau-23913.chk"
 B after Tr=    -0.000000    0.000000    0.000000
         Rot=    0.990246   -0.139320    0.001250   -0.000599 Ang= -16.02 deg.
 ExpMin= 3.31D-02 ExpMax= 1.61D+04 ExpMxC= 2.43D+03 IAcc=3 IRadAn=         5 AccDes= 0.00D+00
 Harris functional with IExCor=  402 and IRadAn=       5 diagonalized for initial guess.
 HarFok:  IExCor=  402 AccDes= 0.00D+00 IRadAn=         5 IDoV= 1 UseB2=F ITyADJ=14
 ICtDFT=  3500011 ScaDFX=  1.000000  1.000000  1.000000  1.000000
 FoFCou: FMM=F IPFlag=           0 FMFlag=      100000 FMFlg1=           0
         NFxFlg=           0 DoJE=T BraDBF=F KetDBF=T FulRan=T
         wScrn=  0.000000 ICntrl=       500 IOpCl=  0 I1Cent=   200000004 NGrid=           0
         NMat0=    1 NMatS0=      1 NMatT0=    0 NMatD0=    1 NMtDS0=    0 NMtDT0=    0
 Petite list used in FoFCou.
 Requested convergence on RMS density matrix=1.00D-08 within 128 cycles.
 Requested convergence on MAX density matrix=1.00D-06.
 Requested convergence on             energy=1.00D-06.
 No special actions if energy rises.
 SCF Done:  E(RB3LYP) =  -1186.05582028     A.U. after   10 cycles
            NFock= 10  Conv=0.25D-08     -V/T= 2.0067
 Calling FoFJK, ICntrl=      2127 FMM=F ISym2X=0 I1Cent= 0 IOpClX= 0 NMat=1 NMatS=1 NMatT=0.
 ***** Axes restored to original set *****
 -------------------------------------------------------------------
 Center     Atomic                   Forces (Hartrees/Bohr)
 Number     Number              X              Y              Z
 -------------------------------------------------------------------
      1       14          -0.001019867   -0.004008429   -0.003833566
      2        8           0.003179635    0.001230874   -0.000142980
      3        8           0.000517194    0.000719788    0.003942597
      4        8          -0.002748010   -0.000548645   -0.002567290
      5        8           0.002411555    0.000374431    0.001223813
      6        1           0.000352923   -0.002069522    0.000845062
      7        1           0.000717697    0.000693888    0.000864132
      8        1           0.000559528    0.000710893   -0.000576675
      9       14          -0.001667177    0.002715672    0.002344947
     10        8           0.000277888   -0.002856963   -0.002154198
     11        8           0.002138438    0.000677658    0.001520100
     12        8          -0.002527513    0.000699820    0.000550713
     13        8          -0.000955937    0.001546324   -0.000298786
     14        1          -0.001835061    0.000984486    0.000069705
     15        1           0.001663649   -0.000778700   -0.000649027
     16        1          -0.000193298    0.001328980    0.001149284
     17        1          -0.002161740   -0.000659506   -0.000984205
     18        1           0.001290096   -0.000761049   -0.001303624
 -------------------------------------------------------------------
 Cartesian Forces:  Max     0.004008429 RMS     0.001707416

 GradGradGradGradGradGradGradGradGradGradGradGradGradGradGradGradGradGrad
 Berny optimization.
 Using GEDIIS/GDIIS optimizer.
 FormGI is forming the generalized inverse of G from B-inverse, IUseBI=4.
 Internal  Forces:  Max     0.005710881 RMS     0.001909342
 Search for a local minimum.
 Step number   2 out of a maximum of   81
 All quantities printed in internal units (Hartrees-Bohrs-Radians)
 Mixed Optimization -- RFO/linear search
 Update second derivatives using D2CorX and points    1    2
 DE= -5.16D-03 DEPred=-4.09D-03 R= 1.26D+00
 TightC=F SS=  1.41D+00  RLast= 1.98D-01 DXNew= 5.0454D-01 5.9303D-01
 Trust test= 1.26D+00 RLast= 1.98D-01 DXMaxT set to 5.05D-01
 ITU=  1  0
 Use linear search instead of GDIIS.
     Eigenvalues ---    0.00405   0.02300   0.03467   0.03683   0.03741
     Eigenvalues ---    0.03801   0.03844   0.03851   0.03858   0.03867
     Eigenvalues ---    0.03876   0.07192   0.10617   0.10967   0.11032
     Eigenvalues ---    0.12103   0.12391   0.12404   0.12993   0.14667
     Eigenvalues ---    0.16000   0.16000   0.16000   0.16000   0.16000
     Eigenvalues ---    0.16372   0.17739   0.20634   0.20662   0.20861
     Eigenvalues ---    0.21225   0.41196   0.43792   0.44538   0.44679
     Eigenvalues ---    0.44755   0.44928   0.44984   0.49303   0.52426
     Eigenvalues ---    0.53094   0.53265   0.53361   0.53412   0.53460
     Eigenvalues ---    0.53788   0.541391000.000001000.000001000.00000
     Eigenvalues --- 1000.000001000.000001000.000001000.000001000.00000
     Eigenvalues --- 1000.000001000.000001000.000001000.000001000.00000
     Eigenvalues --- 1000.000001000.000001000.000001000.000001000.00000
     Eigenvalues --- 1000.000001000.000001000.000001000.000001000.00000
     Eigenvalues --- 1000.00000
 RFO step:  Lambda=-1.54481103D-03 EMin= 4.05290165D-03
 Quartic linear search produced a step of  0.50368.
 Iteration  1 RMS(Cart)=  0.10700138 RMS(Int)=  0.00335859
 Iteration  2 RMS(Cart)=  0.00621507 RMS(Int)=  0.00041676
 Iteration  3 RMS(Cart)=  0.00002063 RMS(Int)=  0.00041665
 Iteration  4 RMS(Cart)=  0.00000001 RMS(Int)=  0.00041665
 Iteration  1 RMS(Cart)=  0.00014035 RMS(Int)=  0.00001588
 Iteration  2 RMS(Cart)=  0.00001039 RMS(Int)=  0.00001642
 Iteration  3 RMS(Cart)=  0.00000077 RMS(Int)=  0.00001650
 Variable       Old X    -DE/DX   Delta X   Delta X   Delta X     New X
                                 (Linear)    (Quad)   (Total)
    R1        3.14253   0.00226   0.01673  -0.00262   0.01450   3.15703
    R2        3.11406   0.00019   0.01228  -0.00729   0.00499   3.11905
    R3        3.11684  -0.00039   0.01287  -0.00961   0.00326   3.12010
    R4        3.10897  -0.00097   0.00961  -0.00944   0.00018   3.10914
    R5        9.25966  -0.00463  -0.00000   0.00000  -0.00000   9.25966
    R6        4.37220  -0.00148  -0.01913  -0.06196  -0.08065   4.29155
    R7        1.82698  -0.00076  -0.00436   0.00067  -0.00369   1.82329
    R8        1.82316  -0.00036  -0.00407   0.00164  -0.00244   1.82072
    R9        1.82474  -0.00085  -0.00404   0.00022  -0.00382   1.82092
   R10        1.82847  -0.00004  -0.00342   0.00209  -0.00133   1.82714
   R11        3.12271  -0.00054   0.01432  -0.01105   0.00327   3.12598
   R12        3.12425   0.00044   0.01459  -0.00793   0.00665   3.13091
   R13        3.10754   0.00009   0.00717  -0.00432   0.00286   3.11040
   R14        3.13460   0.00203   0.01706  -0.00383   0.01361   3.14822
   R15        1.82417  -0.00135  -0.00400  -0.00119  -0.00518   1.81899
   R16        1.82677  -0.00076  -0.00334   0.00001  -0.00333   1.82344
   R17        1.82374  -0.00099  -0.00264  -0.00106  -0.00370   1.82005
   R18        1.82991   0.00008  -0.00413   0.00319  -0.00059   1.82932
    A1        1.86307  -0.00276  -0.01873  -0.01044  -0.02837   1.83470
    A2        1.96052   0.00563   0.02476   0.02261   0.04735   2.00787
    A3        1.86608  -0.00434  -0.02052  -0.02246  -0.04216   1.82392
    A4        1.89809  -0.00232  -0.00599  -0.01013  -0.01577   1.88232
    A5        1.98978   0.00571   0.03052   0.02644   0.05640   2.04618
    A6        1.88784  -0.00157  -0.00922  -0.00468  -0.01336   1.87448
    A7        2.01859  -0.00564  -0.01592  -0.04667  -0.06231   1.95628
    A8        1.99082   0.00375   0.01579   0.01722   0.03198   2.02280
    A9        2.08779   0.00079  -0.00379   0.00245  -0.00178   2.08602
   A10        2.02066   0.00183   0.01408   0.00793   0.02201   2.04267
   A11        2.01964   0.00122   0.01681   0.00051   0.01732   2.03695
   A12        2.03956   0.00159   0.01912   0.00240   0.02152   2.06108
   A13        1.92967   0.00057   0.00652   0.00085   0.00722   1.93688
   A14        1.88927  -0.00086  -0.01001  -0.00143  -0.01140   1.87786
   A15        1.92276   0.00040   0.00705  -0.00044   0.00648   1.92924
   A16        1.90908  -0.00012  -0.00501   0.00112  -0.00386   1.90522
   A17        1.89839  -0.00015   0.00445  -0.00217   0.00215   1.90053
   A18        1.91466   0.00016  -0.00296   0.00213  -0.00079   1.91387
   A19        2.02118   0.00206   0.02377   0.00379   0.02755   2.04873
   A20        2.01409   0.00173   0.01561   0.00599   0.02160   2.03569
   A21        2.02551   0.00305   0.02019   0.01533   0.03552   2.06103
   A22        1.98027   0.00108   0.00823   0.00671   0.01565   1.99592
   A23        2.40597   0.00047   0.00213   0.00298   0.00605   2.41203
    D1       -1.65770  -0.00071  -0.00076   0.01392   0.01254  -1.64516
    D2        0.86591  -0.00197  -0.00756  -0.02403  -0.03251   0.83340
    D3        2.54658   0.00067   0.00370   0.02001   0.02375   2.57034
    D4       -1.21299  -0.00059  -0.00310  -0.01794  -0.02130  -1.23429
    D5        0.47831   0.00213   0.01314   0.02706   0.04123   0.51953
    D6        3.00191   0.00087   0.00634  -0.01089  -0.00382   2.99809
    D7       -2.71529  -0.00263  -0.01209  -0.01347  -0.02625  -2.74154
    D8       -0.59629   0.00118   0.00322   0.00182   0.00510  -0.59119
    D9        1.51157   0.00127   0.00719   0.00601   0.01384   1.52541
   D10       -1.73536   0.00091   0.00514   0.01692   0.02210  -1.71326
   D11        2.48955   0.00245   0.01698   0.02275   0.03953   2.52909
   D12        0.32005  -0.00212  -0.01099  -0.00042  -0.01127   0.30878
   D13       -0.65125   0.00326   0.02127   0.04325   0.06553  -0.58572
   D14        1.40335   0.00026   0.00310   0.03072   0.03309   1.43644
   D15       -2.76627  -0.00010   0.00879   0.03169   0.04020  -2.72607
   D16       -1.05908  -0.00016  -0.00991  -0.02244  -0.03202  -1.09110
   D17        2.73677   0.00025  -0.00933   0.01367   0.00342   2.74019
   D18        2.26295  -0.00016  -0.00603   0.00418  -0.00196   2.26099
   D19        0.17214   0.00019   0.00239   0.00319   0.00558   0.17772
   D20       -1.92138   0.00029   0.00791   0.00173   0.00974  -1.91164
   D21        1.15969   0.00169   0.02289   0.03501   0.05796   1.21766
   D22       -3.04464   0.00091   0.01145   0.03448   0.04591  -2.99873
   D23       -0.95370   0.00094   0.00758   0.03642   0.04395  -0.90975
   D24        3.01053  -0.00002  -0.00099  -0.00090  -0.00186   3.00867
   D25        0.90685  -0.00013   0.00025  -0.00173  -0.00153   0.90531
   D26       -1.17407   0.00003  -0.00033  -0.00104  -0.00134  -1.17541
   D27       -1.01173  -0.00035  -0.00444   0.00413  -0.00036  -1.01210
   D28        1.10589   0.00051   0.01048   0.00352   0.01405   1.11994
   D29       -3.08982   0.00036   0.00534   0.00483   0.01018  -3.07964
   D30       -1.31589  -0.00032   0.00314  -0.05585  -0.05354  -1.36944
         Item               Value     Threshold  Converged?
 Maximum Force            0.005711     0.000450     NO 
 RMS     Force            0.001835     0.000300     NO 
 Maximum Displacement     0.285001     0.001800     NO 
 RMS     Displacement     0.110321     0.001200     NO 
 Predicted change in Energy=-1.345371D-03
 GradGradGradGradGradGradGradGradGradGradGradGradGradGradGradGradGradGrad

                          Input orientation:                          
 ---------------------------------------------------------------------
 Center     Atomic      Atomic             Coordinates (Angstroms)
 Number     Number       Type             X           Y           Z
 ---------------------------------------------------------------------
      1         14           0       -6.886467    0.141295   -0.091387
      2          8           0       -5.252820   -0.032101    0.212152
      3          8           0       -7.068379    1.704473   -0.589016
      4          8           0       -7.868655   -0.091412    1.215229
      5          8           0       -7.230617   -1.041170   -1.182399
      6          1           0       -6.549246   -1.279415   -1.825695
      7          1           0       -8.277395   -0.959828    1.300584
      8          1           0       -7.942500    2.097101   -0.488753
      9         14           0       -3.323309   -2.953740   -1.408451
     10          8           0       -1.754507   -2.543753   -1.081123
     11          8           0       -4.122389   -3.393332   -0.025255
     12          8           0       -3.297564   -4.230790   -2.446545
     13          8           0       -4.126771   -1.675363   -2.112467
     14          1           0       -4.135245   -0.867071   -1.579844
     15          1           0       -4.132234   -4.665429   -2.651555
     16          1           0       -1.068284   -2.957331   -1.614592
     17          1           0       -4.308056   -2.690321    0.609080
     18          1           0       -4.846861    0.663189    0.743837
 ---------------------------------------------------------------------
                    Distance matrix (angstroms):
                    1          2          3          4          5
     1  Si   0.000000
     2  O    1.670630   0.000000
     3  O    1.650531   2.637009   0.000000
     4  O    1.651087   2.802191   2.668510   0.000000
     5  O    1.645287   2.621959   2.813713   2.656643   0.000000
     6  H    2.267148   2.718332   3.271463   3.521280   0.966880
     7  H    2.254936   3.345657   3.482932   0.963588   2.695843
     8  H    2.257938   3.501307   0.963482   2.774635   3.291910
     9  Si   4.900000   3.858153   6.032908   5.978026   4.356154
    10  O    5.875890   4.496571   6.821058   6.976390   5.679418
    11  O    4.487549   3.554168   5.914753   5.145482   4.066046
    12  O    6.127163   5.340476   7.273019   7.172023   5.219257
    13  O    3.873104   3.061396   4.732574   5.252062   3.301679
    14  H    3.286568   2.270990   4.024656   4.727835   3.125635
    15  H    6.102856   5.560958   7.310997   7.059355   4.989353
    16  H    6.765566   5.422573   7.667161   7.903570   6.467828
    17  H    3.893187   2.848906   5.326259   4.449675   3.804005
    18  H    2.264943   0.964842   2.792116   3.150059   3.506781
                    6          7          8          9         10
     6  H    0.000000
     7  H    3.586399   0.000000
     8  H    3.889658   3.557907   0.000000
     9  Si   3.658432   5.988116   6.906068   0.000000
    10  O    5.014225   7.122459   7.757557   1.654198   0.000000
    11  O    3.687799   4.994384   6.704696   1.656805   2.728279
    12  O    4.435031   7.038387   8.090154   1.645952   2.662986
    13  O    2.471314   5.421124   5.606043   1.665965   2.728628
    14  H    2.461274   5.046076   4.946917   2.245619   2.954302
    15  H    4.241353   6.821528   8.057770   2.264850   3.552654
    16  H    5.735931   8.028670   8.606372   2.264429   0.962568
    17  H    3.597459   4.385024   6.110142   2.260431   3.065760
    18  H    3.643394   3.835716   3.627446   4.476129   4.814313
                   11         12         13         14         15
    11  O    0.000000
    12  O    2.691527   0.000000
    13  O    2.703311   2.707286   0.000000
    14  H    2.966296   3.573162   0.968036   0.000000
    15  H    2.918181   0.963127   3.038279   3.946656   0.000000
    16  H    3.470395   2.698802   3.353455   3.711690   3.657961
    17  H    0.964923   3.568050   2.910295   2.854031   3.816242
    18  H    4.191864   6.043996   3.761093   2.871861   6.358738
                   16         17         18
    16  H    0.000000
    17  H    3.938544   0.000000
    18  H    5.740034   3.399191   0.000000
 Stoichiometry    H8O8Si2
 Framework group  C1[X(H8O8Si2)]
 Deg. of freedom    48
 Full point group                 C1      NOp   1
 Largest Abelian subgroup         C1      NOp   1
 Largest concise Abelian subgroup C1      NOp   1
                         Standard orientation:                         
 ---------------------------------------------------------------------
 Center     Atomic      Atomic             Coordinates (Angstroms)
 Number     Number       Type             X           Y           Z
 ---------------------------------------------------------------------
      1         14           0       -2.451550   -0.008290   -0.020924
      2          8           0       -1.241575    0.916180    0.666333
      3          8           0       -3.434093    1.071784   -0.790537
      4          8           0       -3.375717   -0.858570    1.051003
      5          8           0       -1.653814   -1.100704   -0.957522
      6          1           0       -0.832560   -0.820841   -1.384226
      7          1           0       -3.146764   -1.785613    1.180133
      8          1           0       -4.343206    0.797670   -0.953849
      9         14           0        2.448339   -0.000696    0.011190
     10          8           0        3.236206    1.323369    0.613261
     11          8           0        1.766513   -0.890634    1.231078
     12          8           0        3.559341   -0.925336   -0.776130
     13          8           0        1.252053    0.463990   -1.051074
     14          1           0        0.588750    1.057574   -0.670572
     15          1           0        3.285435   -1.793192   -1.091431
     16          1           0        4.141539    1.470546    0.321288
     17          1           0        1.013335   -0.494953    1.686308
     18          1           0       -1.532886    1.693984    1.157331
 ---------------------------------------------------------------------
 Rotational constants (GHZ):           2.0033942           0.3612278           0.3566562
 Standard basis: 6-31+G(d,p) (6D, 7F)
 There are   238 symmetry adapted cartesian basis functions of A   symmetry.
 There are   238 symmetry adapted basis functions of A   symmetry.
   238 basis functions,   424 primitive gaussians,   238 cartesian basis functions
    50 alpha electrons       50 beta electrons
       nuclear repulsion energy       803.8691061797 Hartrees.
 NAtoms=   18 NActive=   18 NUniq=   18 SFac= 1.00D+00 NAtFMM=   60 NAOKFM=F Big=F
 Integral buffers will be    131072 words long.
 Raffenetti 2 integral format.
 Two-electron integral symmetry is turned on.
 Nuclear repulsion after empirical dispersion term =      803.8556487005 Hartrees.
 One-electron integrals computed using PRISM.
 NBasis=   238 RedAO= T EigKep=  2.66D-04  NBF=   238
 NBsUse=   238 1.00D-06 EigRej= -1.00D+00 NBFU=   238
 Initial guess from the checkpoint file:  "/localscratch/sarashs.36560084.0/Gau-23913.chk"
 B after Tr=     0.000000   -0.000000   -0.000000
         Rot=    0.999092   -0.042607    0.000617   -0.000574 Ang=  -4.88 deg.
 ExpMin= 3.31D-02 ExpMax= 1.61D+04 ExpMxC= 2.43D+03 IAcc=3 IRadAn=         5 AccDes= 0.00D+00
 Harris functional with IExCor=  402 and IRadAn=       5 diagonalized for initial guess.
 HarFok:  IExCor=  402 AccDes= 0.00D+00 IRadAn=         5 IDoV= 1 UseB2=F ITyADJ=14
 ICtDFT=  3500011 ScaDFX=  1.000000  1.000000  1.000000  1.000000
 FoFCou: FMM=F IPFlag=           0 FMFlag=      100000 FMFlg1=           0
         NFxFlg=           0 DoJE=T BraDBF=F KetDBF=T FulRan=T
         wScrn=  0.000000 ICntrl=       500 IOpCl=  0 I1Cent=   200000004 NGrid=           0
         NMat0=    1 NMatS0=      1 NMatT0=    0 NMatD0=    1 NMtDS0=    0 NMtDT0=    0
 Petite list used in FoFCou.
 Requested convergence on RMS density matrix=1.00D-08 within 128 cycles.
 Requested convergence on MAX density matrix=1.00D-06.
 Requested convergence on             energy=1.00D-06.
 No special actions if energy rises.
 SCF Done:  E(RB3LYP) =  -1186.05771784     A.U. after   10 cycles
            NFock= 10  Conv=0.44D-08     -V/T= 2.0068
 Calling FoFJK, ICntrl=      2127 FMM=F ISym2X=0 I1Cent= 0 IOpClX= 0 NMat=1 NMatS=1 NMatT=0.
 ***** Axes restored to original set *****
 -------------------------------------------------------------------
 Center     Atomic                   Forces (Hartrees/Bohr)
 Number     Number              X              Y              Z
 -------------------------------------------------------------------
      1       14           0.003823954   -0.004619885   -0.003146536
      2        8          -0.000545726   -0.000562965    0.001061730
      3        8           0.000499690   -0.002462855    0.001743377
      4        8           0.000713530    0.002329008   -0.002537685
      5        8          -0.002052472    0.003325309    0.001264551
      6        1           0.002304153   -0.001491233    0.000246004
      7        1           0.000706880   -0.001139794    0.000125546
      8        1          -0.000616191    0.000164370    0.000001484
      9       14          -0.002308646    0.002006518    0.001645490
     10        8          -0.003956010   -0.000394673    0.000227071
     11        8           0.003660842    0.000445334   -0.001816847
     12        8          -0.000407858    0.002051819    0.001097329
     13        8           0.000017986   -0.001678103    0.000625286
     14        1          -0.000641994    0.001054052    0.001369665
     15        1          -0.000064766   -0.000239904   -0.000058039
     16        1           0.000290096   -0.000339530   -0.000710712
     17        1          -0.001828180    0.000620632   -0.000618267
     18        1           0.000404713    0.000931903   -0.000519446
 -------------------------------------------------------------------
 Cartesian Forces:  Max     0.004619885 RMS     0.001717077

 GradGradGradGradGradGradGradGradGradGradGradGradGradGradGradGradGradGrad
 Berny optimization.
 Using GEDIIS/GDIIS optimizer.
 FormGI is forming the generalized inverse of G from B-inverse, IUseBI=4.
 Internal  Forces:  Max     0.005210216 RMS     0.001414865
 Search for a local minimum.
 Step number   3 out of a maximum of   81
 All quantities printed in internal units (Hartrees-Bohrs-Radians)
 Mixed Optimization -- RFO/linear search
 Update second derivatives using D2CorX and points    1    2    3
 DE= -1.90D-03 DEPred=-1.35D-03 R= 1.41D+00
 TightC=F SS=  1.41D+00  RLast= 2.25D-01 DXNew= 8.4853D-01 6.7394D-01
 Trust test= 1.41D+00 RLast= 2.25D-01 DXMaxT set to 6.74D-01
 ITU=  1  1  0
 Use linear search instead of GDIIS.
     Eigenvalues ---    0.00422   0.01692   0.02855   0.03740   0.03786
     Eigenvalues ---    0.03803   0.03844   0.03851   0.03856   0.03869
     Eigenvalues ---    0.03876   0.06850   0.10578   0.11022   0.11244
     Eigenvalues ---    0.11999   0.12378   0.12439   0.12537   0.14334
     Eigenvalues ---    0.16000   0.16000   0.16000   0.16000   0.16015
     Eigenvalues ---    0.16876   0.18466   0.20633   0.20879   0.20984
     Eigenvalues ---    0.21680   0.41123   0.43759   0.44550   0.44680
     Eigenvalues ---    0.44797   0.44937   0.45004   0.50669   0.52636
     Eigenvalues ---    0.53083   0.53254   0.53366   0.53453   0.53561
     Eigenvalues ---    0.53798   0.625711000.000001000.000001000.00000
     Eigenvalues --- 1000.000001000.000001000.000001000.000001000.00000
     Eigenvalues --- 1000.000001000.000001000.000001000.000001000.00000
     Eigenvalues --- 1000.000001000.000001000.000001000.000001000.00000
     Eigenvalues --- 1000.000001000.000001000.000001000.000001000.00000
     Eigenvalues --- 1000.00000
 RFO step:  Lambda=-8.70961449D-04 EMin= 4.21602886D-03
 Quartic linear search produced a step of  0.45440.
 Iteration  1 RMS(Cart)=  0.13317120 RMS(Int)=  0.00462228
 Iteration  2 RMS(Cart)=  0.00946807 RMS(Int)=  0.00073772
 Iteration  3 RMS(Cart)=  0.00005078 RMS(Int)=  0.00073746
 Iteration  4 RMS(Cart)=  0.00000011 RMS(Int)=  0.00073746
 Iteration  1 RMS(Cart)=  0.00045209 RMS(Int)=  0.00005296
 Iteration  2 RMS(Cart)=  0.00003535 RMS(Int)=  0.00005484
 Iteration  3 RMS(Cart)=  0.00000276 RMS(Int)=  0.00005513
 Iteration  4 RMS(Cart)=  0.00000022 RMS(Int)=  0.00005516
 Variable       Old X    -DE/DX   Delta X   Delta X   Delta X     New X
                                 (Linear)    (Quad)   (Total)
    R1        3.15703  -0.00145   0.00659   0.00096   0.00874   3.16577
    R2        3.11905  -0.00269   0.00227  -0.00338  -0.00111   3.11794
    R3        3.12010  -0.00292   0.00148  -0.00353  -0.00204   3.11806
    R4        3.10914  -0.00237   0.00008  -0.00279  -0.00271   3.10643
    R5        9.25966  -0.00521  -0.00000   0.00000   0.00000   9.25966
    R6        4.29155  -0.00108  -0.03665  -0.03435  -0.06960   4.22195
    R7        1.82329   0.00056  -0.00168   0.00009  -0.00158   1.82170
    R8        1.82072   0.00063  -0.00111   0.00017  -0.00093   1.81978
    R9        1.82092   0.00074  -0.00174   0.00070  -0.00103   1.81988
   R10        1.82714   0.00183  -0.00061   0.00329   0.00269   1.82983
   R11        3.12598  -0.00375   0.00149  -0.00542  -0.00393   3.12205
   R12        3.13091  -0.00320   0.00302  -0.00425  -0.00122   3.12968
   R13        3.11040  -0.00207   0.00130  -0.00348  -0.00218   3.10822
   R14        3.14822  -0.00175   0.00619   0.00045   0.00798   3.15620
   R15        1.81899   0.00075  -0.00236   0.00097  -0.00138   1.81761
   R16        1.82344   0.00040  -0.00151   0.00008  -0.00143   1.82201
   R17        1.82005   0.00018  -0.00168  -0.00010  -0.00178   1.81826
   R18        1.82932   0.00123  -0.00027   0.00177   0.00264   1.83196
    A1        1.83470   0.00011  -0.01289  -0.00271  -0.01512   1.81958
    A2        2.00787   0.00094   0.02152   0.00892   0.03043   2.03830
    A3        1.82392  -0.00090  -0.01916  -0.00644  -0.02514   1.79878
    A4        1.88232  -0.00101  -0.00716  -0.00731  -0.01430   1.86802
    A5        2.04618   0.00079   0.02563   0.00896   0.03431   2.08049
    A6        1.87448   0.00018  -0.00607  -0.00028  -0.00602   1.86846
    A7        1.95628  -0.00477  -0.02831  -0.03990  -0.06667   1.88961
    A8        2.02280   0.00185   0.01453   0.00709   0.01910   2.04189
    A9        2.08602   0.00156  -0.00081   0.00456   0.00203   2.08805
   A10        2.04267  -0.00013   0.01000   0.00128   0.01128   2.05396
   A11        2.03695  -0.00100   0.00787  -0.00386   0.00401   2.04096
   A12        2.06108  -0.00090   0.00978  -0.00271   0.00707   2.06815
   A13        1.93688   0.00003   0.00328   0.00155   0.00481   1.94169
   A14        1.87786   0.00032  -0.00518   0.00083  -0.00435   1.87352
   A15        1.92924  -0.00044   0.00294  -0.00223   0.00069   1.92993
   A16        1.90522   0.00019  -0.00175   0.00109  -0.00066   1.90456
   A17        1.90053  -0.00019   0.00097  -0.00087   0.00008   1.90061
   A18        1.91387   0.00010  -0.00036  -0.00032  -0.00068   1.91320
   A19        2.04873  -0.00060   0.01252   0.00075   0.01327   2.06201
   A20        2.03569   0.00004   0.00981   0.00348   0.01329   2.04898
   A21        2.06103   0.00029   0.01614   0.00500   0.02114   2.08217
   A22        1.99592   0.00119   0.00711   0.01258   0.02162   2.01754
   A23        2.41203   0.00106   0.00275   0.00724   0.01286   2.42488
    D1       -1.64516   0.00024   0.00570   0.01465   0.01998  -1.62518
    D2        0.83340  -0.00098  -0.01477  -0.02074  -0.03591   0.79749
    D3        2.57034   0.00089   0.01079   0.02053   0.03126   2.60160
    D4       -1.23429  -0.00033  -0.00968  -0.01486  -0.02463  -1.25892
    D5        0.51953   0.00076   0.01873   0.02037   0.03958   0.55911
    D6        2.99809  -0.00047  -0.00174  -0.01502  -0.01631   2.98178
    D7       -2.74154  -0.00047  -0.01193  -0.00488  -0.01717  -2.75872
    D8       -0.59119   0.00016   0.00232   0.00021   0.00262  -0.58856
    D9        1.52541   0.00014   0.00629   0.00018   0.00674   1.53215
   D10       -1.71326   0.00069   0.01004   0.01569   0.02570  -1.68756
   D11        2.52909   0.00068   0.01796   0.01878   0.03669   2.56578
   D12        0.30878   0.00023  -0.00512   0.01261   0.00757   0.31635
   D13       -0.58572   0.00133   0.02978   0.03359   0.06388  -0.52184
   D14        1.43644   0.00127   0.01504   0.03053   0.04515   1.48159
   D15       -2.72607   0.00063   0.01827   0.02681   0.04497  -2.68110
   D16       -1.09110  -0.00029  -0.01455   0.09509   0.08023  -1.01087
   D17        2.74019   0.00099   0.00155   0.13176   0.13171   2.87190
   D18        2.26099   0.00043  -0.00089   0.00465   0.00374   2.26473
   D19        0.17772  -0.00002   0.00254   0.00192   0.00446   0.18218
   D20       -1.91164  -0.00009   0.00442   0.00309   0.00753  -1.90411
   D21        1.21766   0.00068   0.02634   0.02979   0.05614   1.27380
   D22       -2.99873   0.00122   0.02086   0.03243   0.05328  -2.94545
   D23       -0.90975   0.00134   0.01997   0.03216   0.05212  -0.85763
   D24        3.00867   0.00015  -0.00085   0.00024  -0.00060   3.00807
   D25        0.90531  -0.00019  -0.00070  -0.00274  -0.00344   0.90187
   D26       -1.17541  -0.00012  -0.00061  -0.00214  -0.00274  -1.17815
   D27       -1.01210   0.00045  -0.00017   0.00890   0.00873  -1.00337
   D28        1.11994   0.00008   0.00638   0.00883   0.01522   1.13516
   D29       -3.07964   0.00026   0.00463   0.00944   0.01407  -3.06558
   D30       -1.36944  -0.00124  -0.02433  -0.11025  -0.13713  -1.50656
         Item               Value     Threshold  Converged?
 Maximum Force            0.004242     0.000450     NO 
 RMS     Force            0.001269     0.000300     NO 
 Maximum Displacement     0.333484     0.001800     NO 
 RMS     Displacement     0.137568     0.001200     NO 
 Predicted change in Energy=-7.693039D-04
 GradGradGradGradGradGradGradGradGradGradGradGradGradGradGradGradGradGrad

                          Input orientation:                          
 ---------------------------------------------------------------------
 Center     Atomic      Atomic             Coordinates (Angstroms)
 Number     Number       Type             X           Y           Z
 ---------------------------------------------------------------------
      1         14           0       -6.888826    0.145371   -0.091656
      2          8           0       -5.271745    0.005171    0.322907
      3          8           0       -7.028739    1.685505   -0.666745
      4          8           0       -7.986295   -0.015906    1.129848
      5          8           0       -7.120237   -1.117992   -1.117623
      6          1           0       -6.372773   -1.420788   -1.653556
      7          1           0       -8.387125   -0.884037    1.244440
      8          1           0       -7.903772    2.087530   -0.660765
      9         14           0       -3.330203   -2.953521   -1.411910
     10          8           0       -1.745619   -2.548324   -1.178673
     11          8           0       -4.027479   -3.483355   -0.006230
     12          8           0       -3.367890   -4.166148   -2.522531
     13          8           0       -4.193310   -1.642761   -1.983296
     14          1           0       -4.172836   -0.851569   -1.423480
     15          1           0       -4.201156   -4.610898   -2.705998
     16          1           0       -1.090548   -2.913647   -1.780794
     17          1           0       -4.219979   -2.823379    0.669781
     18          1           0       -4.882768    0.733746    0.820080
 ---------------------------------------------------------------------
                    Distance matrix (angstroms):
[...]

                          Input orientation:                          
 ---------------------------------------------------------------------
 Center     Atomic      Atomic             Coordinates (Angstroms)
 Number     Number       Type             X           Y           Z
 ---------------------------------------------------------------------
      1         14           0       -6.774043    0.314753   -0.066659
      2          8           0       -5.200682    0.545695   -0.578537
      3          8           0       -7.685196    1.258019   -1.065471
      4          8           0       -7.088954    0.839460    1.465770
      5          8           0       -7.028245   -1.302031   -0.119088
      6          1           0       -6.419626   -1.795290   -0.700954
      7          1           0       -6.908003    0.213515    2.176430
      8          1           0       -8.539026    1.549548   -0.726284
      9         14           0       -3.510405   -3.088595   -1.399286
     10          8           0       -2.572182   -2.582682   -0.142101
     11          8           0       -4.226811   -4.564426   -1.213228
     12          8           0       -2.517211   -3.227681   -2.707999
     13          8           0       -4.726648   -1.984122   -1.544304
     14          1           0       -4.532496   -1.051445   -1.324552
     15          1           0       -2.821118   -3.795496   -3.425222
     16          1           0       -1.666347   -2.911452   -0.119587
     17          1           0       -4.988868   -4.622600   -0.626328
     18          1           0       -4.985439    1.429828   -0.898801
 ---------------------------------------------------------------------
                    Distance matrix (angstroms):
                    1          2          3          4          5
     1  Si   0.000000
     2  O    1.670574   0.000000
     3  O    1.648507   2.630080   0.000000
     4  O    1.650099   2.798403   2.633985   0.000000
     5  O    1.637485   2.639161   2.807326   2.664854   0.000000
     6  H    2.231642   2.642162   3.325243   3.476291   0.975853
     7  H    2.249365   3.258086   3.493557   0.964152   2.753314
     8  H    2.252774   3.489139   0.963879   2.722505   3.283695
     9  Si   4.900000   4.091299   6.036006   6.036901   4.148001
    10  O    5.104552   4.109286   6.461154   5.890462   4.636495
    11  O    5.622224   5.240668   6.773709   6.676143   4.437161
    12  O    6.135645   5.096469   7.037576   7.406945   5.546172
    13  O    3.414687   2.749071   4.415175   4.755382   2.791745
    14  H    2.910898   1.885171   3.916665   4.230473   2.782930
    15  H    6.618136   5.710682   7.400385   7.976156   5.903204
    16  H    6.041504   4.965283   7.382800   6.781399   5.598231
    17  H    5.279918   5.172854   6.484189   6.214607   3.929698
    18  H    2.266044   0.964671   2.710348   3.219395   3.499151
                    6          7          8          9         10
     6  H    0.000000
     7  H    3.543042   0.000000
     8  H    3.959854   3.587614   0.000000
     9  Si   3.259428   5.935768   6.874033   0.000000
    10  O    3.966752   5.656292   7.281471   1.648249   0.000000
    11  O    3.569171   6.442615   7.497533   1.651040   2.795070
    12  O    4.616148   7.414751   7.937971   1.648791   2.646296
    13  O    1.900808   4.840638   5.262149   1.649284   2.639350
    14  H    2.122131   4.415884   4.814081   2.280402   2.754216
    15  H    4.936773   8.009576   8.279387   2.253718   3.508814
    16  H    4.917059   6.520128   8.215980   2.251568   0.963916
    17  H    3.169592   5.909867   7.121027   2.266382   3.199392
    18  H    3.535169   3.825273   3.559786   4.779368   4.743062
                   11         12         13         14         15
    11  O    0.000000
    12  O    2.635140   0.000000
    13  O    2.649041   2.789666   0.000000
    14  H    3.528013   3.272813   0.977687   0.000000
    15  H    2.731326   0.963941   3.232642   3.856351   0.000000
    16  H    3.237954   2.742964   3.500743   3.623034   3.611406
    17  H    0.963622   3.519693   2.805887   3.667279   3.635526
    18  H    6.050245   5.572948   3.484064   2.557956   6.194442
                   16         17         18
    16  H    0.000000
    17  H    3.771467   0.000000
    18  H    5.519988   6.058559   0.000000
 Stoichiometry    H8O8Si2
 Framework group  C1[X(H8O8Si2)]
 Deg. of freedom    48
 Full point group                 C1      NOp   1
 Largest Abelian subgroup         C1      NOp   1
 Largest concise Abelian subgroup C1      NOp   1
                         Standard orientation:                         
 ---------------------------------------------------------------------
 Center     Atomic      Atomic             Coordinates (Angstroms)
 Number     Number       Type             X           Y           Z
 ---------------------------------------------------------------------
      1         14           0       -2.451833   -0.021494   -0.016437
      2          8           0       -1.431930    1.257248    0.323318
      3          8           0       -3.438797    0.533160   -1.214701
      4          8           0       -3.446909   -0.463406    1.223469
      5          8           0       -1.477030   -1.288759   -0.370211
      6          1           0       -0.570503   -1.047640   -0.639206
      7          1           0       -3.085326   -1.094766    1.856107
      8          1           0       -4.300101    0.108535   -1.297837
      9         14           0        2.448070   -0.001412    0.006933
     10          8           0        2.370480    0.377262    1.609215
     11          8           0        2.953334   -1.533078   -0.346111
     12          8           0        3.561204    1.010761   -0.667567
     13          8           0        0.912491    0.139820   -0.578034
     14          1           0        0.329573    0.820058   -0.186429
     15          1           0        3.953367    0.730392   -1.502302
     16          1           0        3.192917    0.656352    2.027356
     17          1           0        2.328850   -2.254234   -0.210017
     18          1           0       -1.818821    2.137920    0.250361
 ---------------------------------------------------------------------
 Rotational constants (GHZ):           2.0260971           0.3581394           0.3554351

 **********************************************************************

            Population analysis using the SCF Density.

 **********************************************************************

 Orbital symmetries:
       Occupied  (A) (A) (A) (A) (A) (A) (A) (A) (A) (A) (A) (A)
                 (A) (A) (A) (A) (A) (A) (A) (A) (A) (A) (A) (A)
                 (A) (A) (A) (A) (A) (A) (A) (A) (A) (A) (A) (A)
                 (A) (A) (A) (A) (A) (A) (A) (A) (A) (A) (A) (A)
                 (A) (A)
       Virtual   (A) (A) (A) (A) (A) (A) (A) (A) (A) (A) (A) (A)
                 (A) (A) (A) (A) (A) (A) (A) (A) (A) (A) (A) (A)
                 (A) (A) (A) (A) (A) (A) (A) (A) (A) (A) (A) (A)
                 (A) (A) (A) (A) (A) (A) (A) (A) (A) (A) (A) (A)
                 (A) (A) (A) (A) (A) (A) (A) (A) (A) (A) (A) (A)
                 (A) (A) (A) (A) (A) (A) (A) (A) (A) (A) (A) (A)
                 (A) (A) (A) (A) (A) (A) (A) (A) (A) (A) (A) (A)
                 (A) (A) (A) (A) (A) (A) (A) (A) (A) (A) (A) (A)
                 (A) (A) (A) (A) (A) (A) (A) (A) (A) (A) (A) (A)
                 (A) (A) (A) (A) (A) (A) (A) (A) (A) (A) (A) (A)
                 (A) (A) (A) (A) (A) (A) (A) (A) (A) (A) (A) (A)
                 (A) (A) (A) (A) (A) (A) (A) (A) (A) (A) (A) (A)
                 (A) (A) (A) (A) (A) (A) (A) (A) (A) (A) (A) (A)
                 (A) (A) (A) (A) (A) (A) (A) (A) (A) (A) (A) (A)
                 (A) (A) (A) (A) (A) (A) (A) (A) (A) (A) (A) (A)
                 (A) (A) (A) (A) (A) (A) (A) (A)
 The electronic state is 1-A.
 Alpha  occ. eigenvalues --  -66.22396 -66.22306 -19.18339 -19.17149 -19.17125
 Alpha  occ. eigenvalues --  -19.17095 -19.17013 -19.16981 -19.16964 -19.15896
 Alpha  occ. eigenvalues --   -5.35752  -5.35649  -3.71771  -3.71719  -3.71690
 Alpha  occ. eigenvalues --   -3.71628  -3.71627  -3.71619  -1.05237  -1.04622
 Alpha  occ. eigenvalues --   -1.01934  -1.01166  -1.01127  -1.00885  -1.00617
 Alpha  occ. eigenvalues --   -0.99917  -0.60184  -0.59873  -0.54966  -0.53865
 Alpha  occ. eigenvalues --   -0.53483  -0.53319  -0.52863  -0.52526  -0.41501
 Alpha  occ. eigenvalues --   -0.41263  -0.39740  -0.39310  -0.38519  -0.38451
 Alpha  occ. eigenvalues --   -0.38088  -0.37520  -0.36508  -0.36193  -0.35742
 Alpha  occ. eigenvalues --   -0.35404  -0.33581  -0.32977  -0.32743  -0.32338
 Alpha virt. eigenvalues --   -0.03120  -0.01441   0.00885   0.01632   0.02138
 Alpha virt. eigenvalues --    0.02429   0.04118   0.06749   0.09953   0.10527
 Alpha virt. eigenvalues --    0.10878   0.11515   0.12089   0.12831   0.13513
 Alpha virt. eigenvalues --    0.14092   0.14668   0.14838   0.15208   0.15396
 Alpha virt. eigenvalues --    0.15529   0.16388   0.16585   0.17259   0.18072
 Alpha virt. eigenvalues --    0.18577   0.18769   0.19423   0.19924   0.20822
 Alpha virt. eigenvalues --    0.21345   0.22397   0.22645   0.23213   0.23993
 Alpha virt. eigenvalues --    0.24271   0.25011   0.26230   0.26636   0.27090
 Alpha virt. eigenvalues --    0.27545   0.28193   0.29709   0.30138   0.30788
 Alpha virt. eigenvalues --    0.31198   0.32477   0.34683   0.35305   0.35758
 Alpha virt. eigenvalues --    0.36423   0.38403   0.39707   0.40986   0.42880
 Alpha virt. eigenvalues --    0.43934   0.45491   0.46858   0.47299   0.48285
 Alpha virt. eigenvalues --    0.48994   0.52399   0.60726   0.61620   0.63365
 Alpha virt. eigenvalues --    0.64348   0.69844   0.70748   0.93159   0.93925
 Alpha virt. eigenvalues --    0.94454   0.94995   0.95912   0.96091   0.99298
 Alpha virt. eigenvalues --    0.99663   1.00679   1.00869   1.01684   1.03032
 Alpha virt. eigenvalues --    1.10297   1.14702   1.15019   1.15858   1.16367
 Alpha virt. eigenvalues --    1.17000   1.17681   1.19059   1.19205   1.19776
 Alpha virt. eigenvalues --    1.20605   1.21380   1.21521   1.22822   1.23768
 Alpha virt. eigenvalues --    1.25126   1.25452   1.26302   1.26953   1.29529
 Alpha virt. eigenvalues --    1.30522   1.30686   1.31485   1.33558   1.34033
 Alpha virt. eigenvalues --    1.38365   1.47008   1.48808   1.51316   1.53765
 Alpha virt. eigenvalues --    1.54592   1.55161   1.58414   1.59863   1.60762
 Alpha virt. eigenvalues --    1.61078   1.61919   1.62394   1.63898   1.65965
 Alpha virt. eigenvalues --    1.67518   1.68097   1.70938   1.72516   1.74443
 Alpha virt. eigenvalues --    1.74902   1.76482   1.77342   1.87314   1.88354
 Alpha virt. eigenvalues --    1.89415   1.91718   1.92950   1.94815   2.03151
 Alpha virt. eigenvalues --    2.03737   2.11841   2.13386   2.33116   2.36150
 Alpha virt. eigenvalues --    2.37939   2.38180   2.38621   2.39834   2.39992
 Alpha virt. eigenvalues --    2.43686   2.45978   2.46719   2.58653   2.58965
 Alpha virt. eigenvalues --    2.59513   2.59952   2.61183   2.61298   2.62664
 Alpha virt. eigenvalues --    2.63714   2.64644   2.64965   2.65460   2.66188
 Alpha virt. eigenvalues --    2.67545   2.69549   2.70428   2.73424   2.78728
 Alpha virt. eigenvalues --    2.80340   2.80959   2.82720   2.84284   2.89152
 Alpha virt. eigenvalues --    3.00868   3.02016   3.39724   3.41647   3.42119
 Alpha virt. eigenvalues --    3.43272   3.45661   3.46977   3.53195   3.60267
 Alpha virt. eigenvalues --    4.12158   4.14681   4.17770   4.19665   4.21629
 Alpha virt. eigenvalues --    4.26013   4.28571   4.35783
          Condensed to atoms (all electrons):
               1          2          3          4          5          6
     1  Si  11.597903  -0.039983   0.087037   0.065311   0.149545   0.022412
     2  O   -0.039983   8.635488   0.065083   0.033089   0.027464  -0.003376
     3  O    0.087037   0.065083   8.467251   0.015620   0.004470  -0.005082
     4  O    0.065311   0.033089   0.015620   8.482644   0.033995   0.004256
     5  O    0.149545   0.027464   0.004470   0.033995   8.456129   0.221281
     6  H    0.022412  -0.003376  -0.005082   0.004256   0.221281   0.306142
     7  H    0.027601  -0.006286   0.006329   0.242301  -0.001917   0.000066
     8  H    0.022552   0.004653   0.245259  -0.001860  -0.005257   0.000001
     9  Si  -0.017493   0.004546   0.000666  -0.000076  -0.002042   0.004989
    10  O    0.000362  -0.001436   0.000040   0.000048  -0.000972  -0.000627
    11  O    0.001033   0.000222  -0.000084   0.000093   0.001141   0.000117
    12  O    0.000804  -0.000696  -0.000021   0.000004  -0.000960   0.000532
    13  O   -0.017541  -0.003911   0.000182  -0.005977   0.022177   0.015077
    14  H    0.014905   0.000024  -0.000955   0.000984  -0.007118  -0.001197
    15  H   -0.000044  -0.000020   0.000000  -0.000000  -0.000009  -0.000002
    16  H   -0.000079   0.000005  -0.000000   0.000001  -0.000008  -0.000003
    17  H   -0.000287  -0.000032  -0.000000  -0.000000  -0.000255   0.000034
    18  H    0.031596   0.234043   0.000503  -0.006328   0.005474   0.000072
               7          8          9         10         11         12
     1  Si   0.027601   0.022552  -0.017493   0.000362   0.001033   0.000804
     2  O   -0.006286   0.004653   0.004546  -0.001436   0.000222  -0.000696
     3  O    0.006329   0.245259   0.000666   0.000040  -0.000084  -0.000021
     4  O    0.242301  -0.001860  -0.000076   0.000048   0.000093   0.000004
     5  O   -0.001917  -0.005257  -0.002042  -0.000972   0.001141  -0.000960
     6  H    0.000066   0.000001   0.004989  -0.000627   0.000117   0.000532
     7  H    0.359699   0.000084  -0.000168  -0.000005   0.000000   0.000000
     8  H    0.000084   0.358384   0.000007  -0.000000  -0.000000  -0.000000
     9  Si  -0.000168   0.000007  11.725154   0.067879   0.052600   0.013253
    10  O   -0.000005  -0.000000   0.067879   8.528900  -0.015992   0.025940
    11  O    0.000000  -0.000000   0.052600  -0.015992   8.473580   0.051202
    12  O    0.000000  -0.000000   0.013253   0.025940   0.051202   8.523028
    13  O    0.000025   0.000074  -0.066462   0.054408   0.074969   0.042314
    14  H   -0.000001  -0.000005   0.017971  -0.000785   0.005339  -0.004046
    15  H   -0.000000   0.000000   0.041737   0.006895  -0.005143   0.239887
    16  H   -0.000000  -0.000000   0.023726   0.238669  -0.004765  -0.001986
    17  H   -0.000000   0.000000   0.025098  -0.006980   0.246453   0.006901
    18  H    0.000064   0.000078   0.000458  -0.000091  -0.000001   0.000018
              13         14         15         16         17         18
     1  Si  -0.017541   0.014905  -0.000044  -0.000079  -0.000287   0.031596
     2  O   -0.003911   0.000024  -0.000020   0.000005  -0.000032   0.234043
     3  O    0.000182  -0.000955   0.000000  -0.000000  -0.000000   0.000503
     4  O   -0.005977   0.000984  -0.000000   0.000001  -0.000000  -0.006328
     5  O    0.022177  -0.007118  -0.000009  -0.000008  -0.000255   0.005474
     6  H    0.015077  -0.001197  -0.000002  -0.000003   0.000034   0.000072
     7  H    0.000025  -0.000001  -0.000000  -0.000000  -0.000000   0.000064
     8  H    0.000074  -0.000005   0.000000  -0.000000   0.000000   0.000078
     9  Si  -0.066462   0.017971   0.041737   0.023726   0.025098   0.000458
    10  O    0.054408  -0.000785   0.006895   0.238669  -0.006980  -0.000091
    11  O    0.074969   0.005339  -0.005143  -0.004765   0.246453  -0.000001
    12  O    0.042314  -0.004046   0.239887  -0.001986   0.006901   0.000018
    13  O    8.674275   0.236641  -0.011453   0.007181  -0.003496   0.002139
    14  H    0.236641   0.298811   0.000032   0.000010   0.000045  -0.001097
    15  H   -0.011453   0.000032   0.356089   0.000073   0.000061  -0.000000
    16  H    0.007181   0.000010   0.000073   0.360543   0.000067  -0.000000
    17  H   -0.003496   0.000045   0.000061   0.000067   0.363507   0.000000
    18  H    0.002139  -0.001097  -0.000000  -0.000000   0.000000   0.340687
 Mulliken charges:
               1
     1  Si   2.054366
     2  O   -0.948879
     3  O   -0.886298
     4  O   -0.864106
     5  O   -0.903141
     6  H    0.435309
     7  H    0.372208
     8  H    0.376030
     9  Si   2.108156
    10  O   -0.896256
    11  O   -0.880766
    12  O   -0.896176
    13  O   -1.020623
    14  H    0.440442
    15  H    0.371897
    16  H    0.376566
    17  H    0.368885
    18  H    0.392386
 Sum of Mulliken charges =  -0.00000
 Mulliken charges with hydrogens summed into heavy atoms:
               1
     1  Si   2.054366
     2  O   -0.556493
     3  O   -0.510268
     4  O   -0.491897
     5  O   -0.467833
     9  Si   2.108156
    10  O   -0.519690
    11  O   -0.511881
    12  O   -0.524279
    13  O   -0.580181
 Electronic spatial extent (au):  <R**2>=           3061.8145
 Charge=             -0.0000 electrons
 Dipole moment (field-independent basis, Debye):
    X=             -0.0031    Y=              0.0121    Z=              0.5759  Tot=              0.5761
 Quadrupole moment (field-independent basis, Debye-Ang):
   XX=            -66.2854   YY=            -68.1457   ZZ=            -69.7038
   XY=              0.0809   XZ=              0.2334   YZ=             -0.9776
 Traceless Quadrupole moment (field-independent basis, Debye-Ang):
   XX=              1.7596   YY=             -0.1007   ZZ=             -1.6588
   XY=              0.0809   XZ=              0.2334   YZ=             -0.9776
 Octapole moment (field-independent basis, Debye-Ang**2):
  XXX=             -9.3883  YYY=              3.4882  ZZZ=              6.5728  XYY=            -11.2272
  XXY=              1.8267  XXZ=            -13.1769  XZZ=             17.8738  YZZ=             -4.2185
  YYZ=              9.1930  XYZ=              2.5124
 Hexadecapole moment (field-independent basis, Debye-Ang**3):
 XXXX=          -2774.9426 YYYY=           -308.0686 ZZZZ=           -314.2932 XXXY=             82.2421
 XXXZ=            114.4227 YYYX=            -58.1734 YYYZ=              0.6287 ZZZX=            -25.3855
 ZZZY=             -9.1123 XXYY=           -584.7801 XXZZ=           -448.2372 YYZZ=           -113.8099
 XXYZ=              4.0377 YYXZ=            -11.2724 ZZXY=             48.6290
 N-N= 8.075164706635D+02 E-N=-4.424957059391D+03  KE= 1.178210837100D+03
 1\1\GINC-GRA602\FOpt\RB3LYP\6-31+G(d,p)\H8O8Si2\SARASHS\29-Jul-2020\0\
 \#n B3LYP/6-31+G(d,p) EmpiricalDispersion=GD3 Opt=modredundant\\Title\
 \0,1\Si,-6.7740431366,0.3147533914,-0.0666590796\O,-5.2006824616,0.545
 6952815,-0.5785367842\O,-7.6851963069,1.2580191019,-1.0654713012\O,-7.
 0889544889,0.8394604627,1.4657701175\O,-7.0282448713,-1.3020307595,-0.
 1190879333\H,-6.4196259657,-1.7952900403,-0.7009535084\H,-6.9080025323
 ,0.2135148037,2.1764299136\H,-8.539026305,1.5495481201,-0.726284338\Si
 ,-3.5104050601,-3.0885945388,-1.399285599\O,-2.5721822364,-2.582681633
 4,-0.1421007358\O,-4.2268105907,-4.5644260354,-1.2132277114\O,-2.51721
 07311,-3.2276811892,-2.7079991895\O,-4.7266479316,-1.9841221905,-1.544
 3039611\H,-4.5324957245,-1.0514450151,-1.3245523062\H,-2.8211175629,-3
 .7954964551,-3.4252218105\H,-1.6663466611,-2.9114521111,-0.1195867491\
 H,-4.9888680376,-4.6225995081,-0.6263279312\H,-4.9854393956,1.42982831
 52,-0.8988010924\\Version=ES64L-G16RevB.01\State=1-A\HF=-1186.0647925\
 RMSD=5.599e-09\RMSF=1.782e-04\Dipole=0.1110675,0.0302575,0.1952319\Qua
 drupole=0.0150998,0.3784689,-0.3935687,-1.0392978,-0.9035992,-0.367597
 2\PG=C01 [X(H8O8Si2)]\\@


 NEVER LOSE YOUR IGNORANCE, IT CAN'T BE REPLACED.
   -- ANDY CAPP
 Job cpu time:       0 days  2 hours 36 minutes 11.9 seconds.
 Elapsed time:       0 days  0 hours 10 minutes 34.4 seconds.
 File lengths (MBytes):  RWF=     40 Int=      0 D2E=      0 Chk=      5 Scr=      1
 Normal termination of Gaussian 16 at Wed Jul 29 17:07:24 2020.
