 Entering Gaussian System, Link 0=g16
 Initial command:
 /opt/software/gaussian/g16.b01/l1.exe "/localscratch/sarashs.37136506.0/Gau-26114.inp" -scrdir="/localscratch/sarashs.37136506.0/"
 Entering Link 1 = /opt/software/gaussian/g16.b01/l1.exe PID=     26115.
  
 Copyright (c) 1988-2017, Gaussian, Inc.  All Rights Reserved.
  
 This is part of the Gaussian(R) 16 program.  It is based on
 the Gaussian(R) 09 system (copyright 2009, Gaussian, Inc.),
 the Gaussian(R) 03 system (copyright 2003, Gaussian, Inc.),
 the Gaussian(R) 98 system (copyright 1998, Gaussian, Inc.),
 the Gaussian(R) 94 system (copyright 1995, Gaussian, Inc.),
 the Gaussian 92(TM) system (copyright 1992, Gaussian, Inc.),
 the Gaussian 90(TM) system (copyright 1990, Gaussian, Inc.),
 the Gaussian 88(TM) system (copyright 1988, Gaussian, Inc.),
 the Gaussian 86(TM) system (copyright 1986, Carnegie Mellon
 University), and the Gaussian 82(TM) system (copyright 1983,
 Carnegie Mellon University). Gaussian is a federally registered
 trademark of Gaussian, Inc.
  
 This software contains proprietary and confidential information,
 including trade secrets, belonging to Gaussian, Inc.
  
 This software is provided under written license and may be
 used, copied, transmitted, or stored only in accord with that
 written license.
  
 The following legend is applicable only to US Government
 contracts under FAR:
  
                    RESTRICTED RIGHTS LEGEND
  
 Use, reproduction and disclosure by the US Government is
 subject to restrictions as set forth in subparagraphs (a)
 and (c) of the Commercial Computer Software - Restricted
 Rights clause in FAR 52.227-19.
  
 Gaussian, Inc.
 340 Quinnipiac St., Bldg. 40, Wallingford CT 06492
  
  
 ---------------------------------------------------------------
 Warning -- This program may not be used in any manner that
 competes with the business of Gaussian, Inc. or will provide
 assistance to any competitor of Gaussian, Inc.  The licensee
 of this program is prohibited from giving any competitor of
 Gaussian, Inc. access to this program.  By using this program,
 the user acknowledges that Gaussian, Inc. is engaged in the
 business of creating and licensing software in the field of
 computational chemistry and represents and warrants to the
 licensee that it is not a competitor of Gaussian, Inc. and that
 it will not use this program in any manner prohibited above.
 ---------------------------------------------------------------
  

 Cite this work as:
 Gaussian 16, Revision B.01,
 M. J. Frisch, G. W. Trucks, H. B. Schlegel, G. E. Scuseria, 
 M. A. Robb, J. R. Cheeseman, G. Scalmani, V. Barone, 
 G. A. Petersson, H. Nakatsuji, X. Li, M. Caricato, A. V. Marenich, 
 J. Bloino, B. G. Janesko, R. Gomperts, B. Mennucci, H. P. Hratchian, 
 J. V. Ortiz, A. F. Izmaylov, J. L. Sonnenberg, D. Williams-Young, 
 F. Ding, F. Lipparini, F. Egidi, J. Goings, B. Peng, A. Petrone, 
 T. Henderson, D. Ranasinghe, V. G. Zakrzewski, J. Gao, N. Rega, 
 G. Zheng, W. Liang, M. Hada, M. Ehara, K. Toyota, R. Fukuda, 
 J. Hasegawa, M. Ishida, T. Nakajima, Y. Honda, O. Kitao, H. Nakai, 
 T. Vreven, K. Throssell, J. A. Montgomery, Jr., J. E. Peralta, 
 F. Ogliaro, M. J. Bearpark, J. J. Heyd, E. N. Brothers, K. N. Kudin, 
 V. N. Staroverov, T. A. Keith, R. Kobayashi, J. Normand, 
 K. Raghavachari, A. P. Rendell, J. C. Burant, S. S. Iyengar, 
 J. Tomasi, M. Cossi, J. M. Millam, M. Klene, C. Adamo, R. Cammi, 
 J. W. Ochterski, R. L. Martin, K. Morokuma, O. Farkas, 
 J. B. Foresman, and D. J. Fox, Gaussian, Inc., Wallingford CT, 2016.
 
 ******************************************
 Gaussian 16:  ES64L-G16RevB.01 20-Dec-2017
                11-Aug-2020 
 ******************************************
 %NProcShared=16
 Will use up to   16 processors via shared memory.
 -------------------------------------------------------------
 #n B3LYP/6-31+G(d,p) EmpiricalDispersion=GD3 Opt=modredundant
 -------------------------------------------------------------
 1/18=120,19=15,26=3,38=1/1,3;
 2/9=110,12=2,17=6,18=5,40=1/2;
 3/5=1,6=6,7=111,11=2,25=1,30=1,71=1,74=-5,124=31/1,2,3;
 4//1;
 5/5=2,38=5/2;
 6/7=2,8=2,9=2,10=2,28=1/1;
 7//1,2,3,16;
 1/18=20,19=15,26=3/3(2);
 2/9=110/2;
 99//99;
 2/9=110/2;
 3/5=1,6=6,7=111,11=2,25=1,30=1,71=1,74=-5,124=31/1,2,3;
 4/5=5,16=3,69=1/1;
 5/5=2,38=5/2;
 7//1,2,3,16;
 1/18=20,19=15,26=3/3(-5);
 2/9=110/2;
 6/7=2,8=2,9=2,10=2,19=2,28=1/1;
 99/9=1/99;
 -----
 Title
 -----
 Symbolic Z-matrix:
 Charge =  0 Multiplicity = 1
 Si                   -1.97199   0.03198   0.02178 
 O                    -1.49839  -1.04281  -1.16096 
 O                    -3.61529   0.07731   0.01517 
 O                    -1.38578   1.53664  -0.16122 
 O                    -1.32513  -0.62357   1.41007 
 H                    -1.61852  -1.51781   1.62751 
 H                    -0.41713   1.65614  -0.27249 
 H                    -4.03179   0.8972    0.30533 
 Si                    1.92712  -0.03327  -0.0303 
 O                     3.56452   0.06655  -0.10654 
 O                     1.32594   1.50033  -0.36706 
 O                     1.51977  -0.47941   1.50209 
 O                     1.33427  -1.02704  -1.18486 
 H                     0.37495  -1.1709   -1.25665 
 H                     0.56733  -0.54952   1.68814 
 H                     4.06223  -0.56311   0.42668 
 H                     1.79321   2.22247   0.07211 
 H                    -1.95012  -0.97878  -2.01163 
 
 Add virtual bond connecting atoms O11        and H7         Dist= 3.31D+00.
 Add virtual bond connecting atoms H14        and O2         Dist= 3.55D+00.
 The following ModRedundant input section has been read:
 B       1       9 F                                                           
 

 GradGradGradGradGradGradGradGradGradGradGradGradGradGradGradGradGradGrad
 Berny optimization.
 Initialization pass.
                           ----------------------------
                           !    Initial Parameters    !
                           ! (Angstroms and Degrees)  !
 --------------------------                            --------------------------
 ! Name  Definition              Value          Derivative Info.                !
 --------------------------------------------------------------------------------
 ! R1    R(1,2)                  1.6668         estimate D2E/DX2                !
 ! R2    R(1,3)                  1.6439         estimate D2E/DX2                !
 ! R3    R(1,4)                  1.6252         estimate D2E/DX2                !
 ! R4    R(1,5)                  1.666          estimate D2E/DX2                !
 ! R5    R(1,9)                  3.9            Frozen                          !
 ! R6    R(2,14)                 1.8802         estimate D2E/DX2                !
 ! R7    R(2,18)                 0.9653         estimate D2E/DX2                !
 ! R8    R(3,8)                  0.9643         estimate D2E/DX2                !
 ! R9    R(4,7)                  0.9823         estimate D2E/DX2                !
 ! R10   R(5,6)                  0.9659         estimate D2E/DX2                !
 ! R11   R(7,11)                 1.7526         estimate D2E/DX2                !
 ! R12   R(9,10)                 1.6422         estimate D2E/DX2                !
 ! R13   R(9,11)                 1.6813         estimate D2E/DX2                !
 ! R14   R(9,12)                 1.6472         estimate D2E/DX2                !
 ! R15   R(9,13)                 1.6346         estimate D2E/DX2                !
 ! R16   R(10,16)                0.9636         estimate D2E/DX2                !
 ! R17   R(11,17)                0.9658         estimate D2E/DX2                !
 ! R18   R(12,15)                0.973          estimate D2E/DX2                !
 ! R19   R(13,14)                0.9727         estimate D2E/DX2                !
 ! A1    A(2,1,3)              107.3944         estimate D2E/DX2                !
 ! A2    A(2,1,4)              114.4947         estimate D2E/DX2                !
 ! A3    A(2,1,5)              103.1351         estimate D2E/DX2                !
 ! A4    A(3,1,4)              109.5475         estimate D2E/DX2                !
 ! A5    A(3,1,5)              113.7235         estimate D2E/DX2                !
 ! A6    A(4,1,5)              108.5478         estimate D2E/DX2                !
 ! A7    A(1,2,14)             111.2934         estimate D2E/DX2                !
 ! A8    A(1,2,18)             116.7164         estimate D2E/DX2                !
 ! A9    A(14,2,18)            115.2103         estimate D2E/DX2                !
 ! A10   A(1,3,8)              116.9996         estimate D2E/DX2                !
 ! A11   A(1,4,7)              118.7559         estimate D2E/DX2                !
 ! A12   A(1,5,6)              115.7177         estimate D2E/DX2                !
 ! A13   A(10,9,11)            106.9645         estimate D2E/DX2                !
 ! A14   A(10,9,12)            107.8322         estimate D2E/DX2                !
 ! A15   A(10,9,13)            111.4555         estimate D2E/DX2                !
 ! A16   A(11,9,12)            110.18           estimate D2E/DX2                !
 ! A17   A(11,9,13)            106.4622         estimate D2E/DX2                !
 ! A18   A(12,9,13)            113.7492         estimate D2E/DX2                !
 ! A19   A(9,10,16)            116.7175         estimate D2E/DX2                !
 ! A20   A(7,11,9)             115.2087         estimate D2E/DX2                !
 ! A21   A(7,11,17)            112.9667         estimate D2E/DX2                !
 ! A22   A(9,11,17)            114.7063         estimate D2E/DX2                !
 ! A23   A(9,12,15)            116.0716         estimate D2E/DX2                !
 ! A24   A(9,13,14)            119.9823         estimate D2E/DX2                !
 ! A25   L(4,7,11,14,-1)       169.5509         estimate D2E/DX2                !
 ! A26   L(2,14,13,7,-1)       165.9159         estimate D2E/DX2                !
 ! A27   L(4,7,11,14,-2)       187.2576         estimate D2E/DX2                !
 ! A28   L(2,14,13,7,-2)       177.2269         estimate D2E/DX2                !
 ! D1    D(3,1,2,14)           179.608          estimate D2E/DX2                !
 ! D2    D(3,1,2,18)            44.5394         estimate D2E/DX2                !
 ! D3    D(4,1,2,14)            57.7355         estimate D2E/DX2                !
 ! D4    D(4,1,2,18)           -77.3331         estimate D2E/DX2                !
 ! D5    D(5,1,2,14)           -59.992          estimate D2E/DX2                !
 ! D6    D(5,1,2,18)           164.9394         estimate D2E/DX2                !
 ! D7    D(2,1,3,8)           -151.7167         estimate D2E/DX2                !
 ! D8    D(4,1,3,8)            -26.8074         estimate D2E/DX2                !
 ! D9    D(5,1,3,8)             94.8432         estimate D2E/DX2                !
 ! D10   D(2,1,4,7)            -52.8688         estimate D2E/DX2                !
 ! D11   D(3,1,4,7)           -173.5574         estimate D2E/DX2                !
 ! D12   D(5,1,4,7)             61.7309         estimate D2E/DX2                !
 ! D13   D(2,1,5,6)            -59.1788         estimate D2E/DX2                !
 ! D14   D(3,1,5,6)             56.7888         estimate D2E/DX2                !
 ! D15   D(4,1,5,6)            178.9933         estimate D2E/DX2                !
 ! D16   D(1,2,13,9)             1.9255         estimate D2E/DX2                !
 ! D17   D(18,2,13,9)          135.0443         estimate D2E/DX2                !
 ! D18   D(1,4,11,9)            -8.8137         estimate D2E/DX2                !
 ! D19   D(1,4,11,17)         -141.7494         estimate D2E/DX2                !
 ! D20   D(11,9,10,16)         152.8745         estimate D2E/DX2                !
 ! D21   D(12,9,10,16)          34.3851         estimate D2E/DX2                !
 ! D22   D(13,9,10,16)         -91.1347         estimate D2E/DX2                !
 ! D23   D(10,9,11,7)         -177.3858         estimate D2E/DX2                !
 ! D24   D(10,9,11,17)         -43.6521         estimate D2E/DX2                !
 ! D25   D(12,9,11,7)          -60.4354         estimate D2E/DX2                !
 ! D26   D(12,9,11,17)          73.2983         estimate D2E/DX2                !
 ! D27   D(13,9,11,7)           63.3454         estimate D2E/DX2                !
 ! D28   D(13,9,11,17)        -162.9209         estimate D2E/DX2                !
 ! D29   D(10,9,12,15)         178.2711         estimate D2E/DX2                !
 ! D30   D(11,9,12,15)          61.8618         estimate D2E/DX2                !
 ! D31   D(13,9,12,15)         -57.5813         estimate D2E/DX2                !
 ! D32   D(10,9,13,14)        -179.5279         estimate D2E/DX2                !
 ! D33   D(11,9,13,14)         -63.2299         estimate D2E/DX2                !
 ! D34   D(12,9,13,14)          58.3046         estimate D2E/DX2                !
 --------------------------------------------------------------------------------
 Trust Radius=3.00D-01 FncErr=1.00D-07 GrdErr=1.00D-06 EigMax=2.50D+02 EigMin=1.00D-04
 Number of steps in this run=     91 maximum allowed number of steps=    108.
 GradGradGradGradGradGradGradGradGradGradGradGradGradGradGradGradGradGrad

                          Input orientation:                          
 ---------------------------------------------------------------------
 Center     Atomic      Atomic             Coordinates (Angstroms)
 Number     Number       Type             X           Y           Z
 ---------------------------------------------------------------------
      1         14           0       -1.971990    0.031980    0.021780
      2          8           0       -1.498390   -1.042810   -1.160960
      3          8           0       -3.615290    0.077310    0.015170
      4          8           0       -1.385780    1.536640   -0.161220
      5          8           0       -1.325130   -0.623570    1.410070
      6          1           0       -1.618520   -1.517810    1.627510
      7          1           0       -0.417130    1.656140   -0.272490
      8          1           0       -4.031790    0.897200    0.305330
      9         14           0        1.927120   -0.033270   -0.030300
     10          8           0        3.564520    0.066550   -0.106540
     11          8           0        1.325940    1.500330   -0.367060
     12          8           0        1.519770   -0.479410    1.502090
     13          8           0        1.334270   -1.027040   -1.184860
     14          1           0        0.374950   -1.170900   -1.256650
     15          1           0        0.567330   -0.549520    1.688140
     16          1           0        4.062230   -0.563110    0.426680
     17          1           0        1.793210    2.222470    0.072110
     18          1           0       -1.950120   -0.978780   -2.011630
 ---------------------------------------------------------------------
                    Distance matrix (angstroms):
                    1          2          3          4          5
     1  Si   0.000000
     2  O    1.666837   0.000000
     3  O    1.643938   2.668186   0.000000
     4  O    1.625156   2.768704   2.670482   0.000000
     5  O    1.665990   2.610743   2.771608   2.671917   0.000000
     6  H    2.259460   2.831187   3.021777   3.547307   0.965931
     7  H    2.267616   3.040203   3.578223   0.982316   2.975323
     8  H    2.252062   3.511661   0.964305   2.761869   3.295330
     9  Si   3.900004   3.745889   5.543699   3.668387   3.605586
    10  O    5.538105   5.289191   7.180850   5.164264   5.165757
    11  O    3.630921   3.882612   5.156243   2.719764   3.833708
    12  O    3.826908   4.064301   5.374915   3.908104   2.850036
    13  O    3.675440   2.832805   5.211315   3.875431   3.737494
    14  H    2.930773   1.880151   4.370077   3.410412   3.209554
    15  H    3.092417   3.553576   4.548192   3.403944   1.914213
    16  H    6.076997   5.802690   7.715166   5.868167   5.476711
    17  H    4.356318   4.797619   5.818662   3.260488   4.428784
    18  H    2.270874   0.965298   2.827726   3.173300   3.496401
                    6          7          8          9         10
     6  H    0.000000
     7  H    3.889383   0.000000
     8  H    3.661189   3.738400   0.000000
     9  Si   4.186139   2.899702   6.040450   0.000000
    10  O    5.690433   4.290440   7.652682   1.642211   0.000000
    11  O    4.664475   1.752573   5.433336   1.681295   2.671111
    12  O    3.308001   3.385453   5.843553   1.647178   2.658339
    13  O    4.107219   3.331558   5.892195   1.634643   2.707901
    14  H    3.523159   3.096468   5.112355   2.281966   3.609348
    15  H    2.391485   3.110975   5.015682   2.251350   3.547332
    16  H    5.884247   5.047631   8.225594   2.246832   0.963593
    17  H    5.296118   2.307614   5.978408   2.262031   2.795970
    18  H    3.693758   3.509625   3.636063   4.455631   5.927338
                   11         12         13         14         15
    11  O    0.000000
    12  O    2.729590   0.000000
    13  O    2.656401   2.748456   0.000000
    14  H    2.971737   3.065847   0.972700   0.000000
    15  H    3.000204   0.972971   3.011702   3.015777   0.000000
    16  H    3.517825   2.761814   3.202196   4.098663   3.715615
    17  H    0.965763   3.069164   3.514245   3.910502   3.434860
    18  H    4.425287   4.963440   3.387196   2.452112   4.495566
                   16         17         18
    16  H    0.000000
    17  H    3.610212   0.000000
    18  H    6.501268   5.348130   0.000000
 Stoichiometry    H8O8Si2
 Framework group  C1[X(H8O8Si2)]
 Deg. of freedom    48
 Full point group                 C1      NOp   1
 Largest Abelian subgroup         C1      NOp   1
 Largest concise Abelian subgroup C1      NOp   1
                         Standard orientation:                         
 ---------------------------------------------------------------------
 Center     Atomic      Atomic             Coordinates (Angstroms)
 Number     Number       Type             X           Y           Z
 ---------------------------------------------------------------------
      1         14           0       -1.947090    0.031999    0.021980
      2          8           0       -1.474052   -1.042694   -1.161073
      3          8           0       -3.590381    0.077701    0.015822
      4          8           0       -1.360590    1.536558   -0.160920
      5          8           0       -1.300002   -0.623935    1.409982
      6          1           0       -1.593535   -1.518147    1.627348
      7          1           0       -0.391943    1.655859   -0.272432
      8          1           0       -4.006618    0.897635    0.306236
      9         14           0        1.951991   -0.034121   -0.031166
     10          8           0        3.589393    0.065342   -0.107832
     11          8           0        1.351066    1.499672   -0.367500
     12          8           0        1.544955   -0.480433    1.501257
     13          8           0        1.358605   -1.027559   -1.185737
     14          1           0        0.399233   -1.171190   -1.257292
     15          1           0        0.592550   -0.550360    1.687553
     16          1           0        4.087105   -0.564521    0.425145
     17          1           0        1.818618    2.221631    0.071667
     18          1           0       -1.925998   -0.978416   -2.011610
 ---------------------------------------------------------------------
 Rotational constants (GHZ):           1.9568195           0.5142277           0.5112316
 Standard basis: 6-31+G(d,p) (6D, 7F)
 There are   238 symmetry adapted cartesian basis functions of A   symmetry.
 There are   238 symmetry adapted basis functions of A   symmetry.
   238 basis functions,   424 primitive gaussians,   238 cartesian basis functions
    50 alpha electrons       50 beta electrons
       nuclear repulsion energy       861.4985062186 Hartrees.
 NAtoms=   18 NActive=   18 NUniq=   18 SFac= 1.00D+00 NAtFMM=   60 NAOKFM=F Big=F
 Integral buffers will be    131072 words long.
 Raffenetti 2 integral format.
 Two-electron integral symmetry is turned on.
 Nuclear repulsion after empirical dispersion term =      861.4822451851 Hartrees.
 One-electron integrals computed using PRISM.
 NBasis=   238 RedAO= T EigKep=  2.30D-04  NBF=   238
 NBsUse=   238 1.00D-06 EigRej= -1.00D+00 NBFU=   238
 ExpMin= 3.31D-02 ExpMax= 1.61D+04 ExpMxC= 2.43D+03 IAcc=3 IRadAn=         5 AccDes= 0.00D+00
 Harris functional with IExCor=  402 and IRadAn=       5 diagonalized for initial guess.
 HarFok:  IExCor=  402 AccDes= 0.00D+00 IRadAn=         5 IDoV= 1 UseB2=F ITyADJ=14
 ICtDFT=  3500011 ScaDFX=  1.000000  1.000000  1.000000  1.000000
 FoFCou: FMM=F IPFlag=           0 FMFlag=      100000 FMFlg1=           0
         NFxFlg=           0 DoJE=T BraDBF=F KetDBF=T FulRan=T
         wScrn=  0.000000 ICntrl=       500 IOpCl=  0 I1Cent=   200000004 NGrid=           0
         NMat0=    1 NMatS0=      1 NMatT0=    0 NMatD0=    1 NMtDS0=    0 NMtDT0=    0
 Petite list used in FoFCou.
 Requested convergence on RMS density matrix=1.00D-08 within 128 cycles.
 Requested convergence on MAX density matrix=1.00D-06.
 Requested convergence on             energy=1.00D-06.
 No special actions if energy rises.
 SCF Done:  E(RB3LYP) =  -1186.07408362     A.U. after   12 cycles
            NFock= 12  Conv=0.26D-08     -V/T= 2.0066

 **********************************************************************

            Population analysis using the SCF Density.

 **********************************************************************

 Orbital symmetries:
       Occupied  (A) (A) (A) (A) (A) (A) (A) (A) (A) (A) (A) (A)
                 (A) (A) (A) (A) (A) (A) (A) (A) (A) (A) (A) (A)
                 (A) (A) (A) (A) (A) (A) (A) (A) (A) (A) (A) (A)
                 (A) (A) (A) (A) (A) (A) (A) (A) (A) (A) (A) (A)
                 (A) (A)
       Virtual   (A) (A) (A) (A) (A) (A) (A) (A) (A) (A) (A) (A)
                 (A) (A) (A) (A) (A) (A) (A) (A) (A) (A) (A) (A)
                 (A) (A) (A) (A) (A) (A) (A) (A) (A) (A) (A) (A)
                 (A) (A) (A) (A) (A) (A) (A) (A) (A) (A) (A) (A)
                 (A) (A) (A) (A) (A) (A) (A) (A) (A) (A) (A) (A)
                 (A) (A) (A) (A) (A) (A) (A) (A) (A) (A) (A) (A)
                 (A) (A) (A) (A) (A) (A) (A) (A) (A) (A) (A) (A)
                 (A) (A) (A) (A) (A) (A) (A) (A) (A) (A) (A) (A)
                 (A) (A) (A) (A) (A) (A) (A) (A) (A) (A) (A) (A)
                 (A) (A) (A) (A) (A) (A) (A) (A) (A) (A) (A) (A)
                 (A) (A) (A) (A) (A) (A) (A) (A) (A) (A) (A) (A)
                 (A) (A) (A) (A) (A) (A) (A) (A) (A) (A) (A) (A)
                 (A) (A) (A) (A) (A) (A) (A) (A) (A) (A) (A) (A)
                 (A) (A) (A) (A) (A) (A) (A) (A) (A) (A) (A) (A)
                 (A) (A) (A) (A) (A) (A) (A) (A) (A) (A) (A) (A)
                 (A) (A) (A) (A) (A) (A) (A) (A)
 The electronic state is 1-A.
 Alpha  occ. eigenvalues --  -66.23795 -66.21686 -19.19494 -19.19438 -19.18577
 Alpha  occ. eigenvalues --  -19.18087 -19.16650 -19.16438 -19.15193 -19.15035
 Alpha  occ. eigenvalues --   -5.37143  -5.35016  -3.73142  -3.73134  -3.73080
 Alpha  occ. eigenvalues --   -3.71050  -3.70986  -3.70941  -1.06547  -1.04368
 Alpha  occ. eigenvalues --   -1.03251  -1.02891  -1.01584  -1.00537  -0.99835
 Alpha  occ. eigenvalues --   -0.99070  -0.61604  -0.59558  -0.55822  -0.55546
 Alpha  occ. eigenvalues --   -0.54263  -0.52934  -0.52517  -0.51703  -0.43325
 Alpha  occ. eigenvalues --   -0.42684  -0.41229  -0.40185  -0.39728  -0.38786
 Alpha  occ. eigenvalues --   -0.37898  -0.37756  -0.37234  -0.35836  -0.35137
 Alpha  occ. eigenvalues --   -0.34693  -0.34044  -0.33691  -0.33296  -0.30951
 Alpha virt. eigenvalues --   -0.03680  -0.00903   0.00520   0.00749   0.01993
 Alpha virt. eigenvalues --    0.04585   0.05411   0.06547   0.09271   0.09610
 Alpha virt. eigenvalues --    0.10075   0.11031   0.12425   0.13286   0.13603
 Alpha virt. eigenvalues --    0.14637   0.14922   0.14940   0.15166   0.15583
 Alpha virt. eigenvalues --    0.16278   0.16401   0.16996   0.17627   0.18110
 Alpha virt. eigenvalues --    0.19124   0.19481   0.21068   0.21131   0.21737
 Alpha virt. eigenvalues --    0.22072   0.22910   0.23235   0.23681   0.24477
 Alpha virt. eigenvalues --    0.25503   0.25541   0.26311   0.27535   0.28074
 Alpha virt. eigenvalues --    0.28335   0.28882   0.29553   0.30243   0.30441
 Alpha virt. eigenvalues --    0.31513   0.33080   0.34261   0.35839   0.37254
 Alpha virt. eigenvalues --    0.38001   0.38945   0.40908   0.41602   0.43999
 Alpha virt. eigenvalues --    0.45745   0.46114   0.47169   0.49986   0.50747
 Alpha virt. eigenvalues --    0.52530   0.58423   0.61419   0.62687   0.63176
 Alpha virt. eigenvalues --    0.63926   0.65314   0.79443   0.92138   0.92564
 Alpha virt. eigenvalues --    0.94451   0.96465   0.97159   0.98077   0.99614
 Alpha virt. eigenvalues --    1.00186   1.01319   1.01783   1.03374   1.12121
 Alpha virt. eigenvalues --    1.13033   1.14004   1.15247   1.16204   1.16353
 Alpha virt. eigenvalues --    1.18084   1.18244   1.18586   1.19766   1.20829
 Alpha virt. eigenvalues --    1.21316   1.21843   1.23143   1.24294   1.24476
 Alpha virt. eigenvalues --    1.25825   1.26486   1.27801   1.29595   1.30709
 Alpha virt. eigenvalues --    1.31141   1.31980   1.33932   1.35689   1.36557
 Alpha virt. eigenvalues --    1.38174   1.50050   1.50798   1.54139   1.55389
 Alpha virt. eigenvalues --    1.56504   1.57324   1.58232   1.59158   1.60087
 Alpha virt. eigenvalues --    1.62212   1.62623   1.63701   1.66482   1.68105
 Alpha virt. eigenvalues --    1.69229   1.72104   1.72549   1.73627   1.76432
 Alpha virt. eigenvalues --    1.77976   1.80231   1.83414   1.85445   1.88824
 Alpha virt. eigenvalues --    1.91021   1.91753   1.98688   2.00958   2.02596
 Alpha virt. eigenvalues --    2.04703   2.10288   2.11303   2.34623   2.36336
 Alpha virt. eigenvalues --    2.37897   2.38639   2.39791   2.44671   2.46141
 Alpha virt. eigenvalues --    2.48647   2.50512   2.53764   2.56926   2.58816
 Alpha virt. eigenvalues --    2.59308   2.59555   2.61978   2.62356   2.62557
 Alpha virt. eigenvalues --    2.64258   2.64355   2.66332   2.67429   2.67964
 Alpha virt. eigenvalues --    2.68903   2.70646   2.71569   2.74329   2.76452
 Alpha virt. eigenvalues --    2.77937   2.79355   2.84506   2.85645   2.86571
 Alpha virt. eigenvalues --    3.00514   3.03517   3.40730   3.42194   3.43159
 Alpha virt. eigenvalues --    3.43299   3.44509   3.57428   3.58374   3.61854
 Alpha virt. eigenvalues --    4.16388   4.20152   4.25925   4.27597   4.30587
 Alpha virt. eigenvalues --    4.32065   4.37268   4.45196
          Condensed to atoms (all electrons):
               1          2          3          4          5          6
     1  Si  11.759809  -0.067696   0.025708   0.099222  -0.095116   0.043684
     2  O   -0.067696   8.733448  -0.024562   0.048255   0.116232  -0.009307
     3  O    0.025708  -0.024562   8.671296  -0.049936  -0.075511  -0.001754
     4  O    0.099222   0.048255  -0.049936   8.565940   0.096102   0.005555
     5  O   -0.095116   0.116232  -0.075511   0.096102   8.692358   0.239069
     6  H    0.043684  -0.009307  -0.001754   0.005555   0.239069   0.350233
     7  H    0.024369  -0.003961   0.007102   0.229906  -0.003774  -0.000042
     8  H    0.034524   0.004109   0.234743  -0.001125  -0.003480   0.000026
     9  Si  -0.158882   0.087911  -0.011625   0.067699   0.106496  -0.004395
    10  O   -0.008594   0.003245  -0.000292   0.004178   0.004007  -0.000030
    11  O    0.093801  -0.032972   0.004396  -0.073754  -0.032841   0.000398
    12  O    0.042538  -0.028734   0.003264  -0.023252  -0.044274   0.000781
    13  O    0.087384  -0.056065   0.005224  -0.039404  -0.045349   0.000465
    14  H    0.008081   0.006264  -0.000023   0.000818  -0.000820   0.000005
    15  H   -0.002603   0.001816   0.000107   0.001453   0.009609  -0.001435
    16  H    0.000369  -0.000014   0.000000  -0.000010  -0.000033  -0.000000
    17  H   -0.003589   0.000335  -0.000049   0.003348   0.000434  -0.000001
    18  H    0.025453   0.241961   0.000115  -0.007531   0.004896   0.000044
               7          8          9         10         11         12
     1  Si   0.024369   0.034524  -0.158882  -0.008594   0.093801   0.042538
     2  O   -0.003961   0.004109   0.087911   0.003245  -0.032972  -0.028734
     3  O    0.007102   0.234743  -0.011625  -0.000292   0.004396   0.003264
     4  O    0.229906  -0.001125   0.067699   0.004178  -0.073754  -0.023252
     5  O   -0.003774  -0.003480   0.106496   0.004007  -0.032841  -0.044274
     6  H   -0.000042   0.000026  -0.004395  -0.000030   0.000398   0.000781
     7  H    0.273215   0.000029   0.005777  -0.000083   0.015688   0.001439
     8  H    0.000029   0.351732   0.000173   0.000000  -0.000003  -0.000008
     9  Si   0.005777   0.000173  11.726905   0.020450  -0.131402   0.087171
    10  O   -0.000083   0.000000   0.020450   8.631613  -0.008507  -0.026484
    11  O    0.015688  -0.000003  -0.131402  -0.008507   8.782516   0.089477
    12  O    0.001439  -0.000008   0.087171  -0.026484   0.089477   8.549262
    13  O    0.000048  -0.000004   0.000595  -0.044271   0.101243   0.054779
    14  H   -0.000063  -0.000001   0.030480   0.005454  -0.002413  -0.005849
    15  H    0.000004  -0.000002   0.033136   0.008948  -0.007387   0.232438
    16  H   -0.000002  -0.000000   0.036301   0.235581   0.002954  -0.001881
    17  H   -0.002695  -0.000000   0.032183   0.004242   0.236630  -0.011727
    18  H    0.000163   0.000048  -0.002419  -0.000009   0.000217   0.000070
              13         14         15         16         17         18
     1  Si   0.087384   0.008081  -0.002603   0.000369  -0.003589   0.025453
     2  O   -0.056065   0.006264   0.001816  -0.000014   0.000335   0.241961
     3  O    0.005224  -0.000023   0.000107   0.000000  -0.000049   0.000115
     4  O   -0.039404   0.000818   0.001453  -0.000010   0.003348  -0.007531
     5  O   -0.045349  -0.000820   0.009609  -0.000033   0.000434   0.004896
     6  H    0.000465   0.000005  -0.001435  -0.000000  -0.000001   0.000044
     7  H    0.000048  -0.000063   0.000004  -0.000002  -0.002695   0.000163
     8  H   -0.000004  -0.000001  -0.000002  -0.000000  -0.000000   0.000048
     9  Si   0.000595   0.030480   0.033136   0.036301   0.032183  -0.002419
    10  O   -0.044271   0.005454   0.008948   0.235581   0.004242  -0.000009
    11  O    0.101243  -0.002413  -0.007387   0.002954   0.236630   0.000217
    12  O    0.054779  -0.005849   0.232438  -0.001881  -0.011727   0.000070
    13  O    8.602405   0.231706  -0.007421  -0.003967   0.005518   0.001096
    14  H    0.231706   0.302256   0.000024  -0.000027  -0.000068  -0.000999
    15  H   -0.007421   0.000024   0.304068   0.000043   0.000205  -0.000017
    16  H   -0.003967  -0.000027   0.000043   0.359317   0.000079   0.000000
    17  H    0.005518  -0.000068   0.000205   0.000079   0.345181  -0.000001
    18  H    0.001096  -0.000999  -0.000017   0.000000  -0.000001   0.339752
 Mulliken charges:
               1
     1  Si   2.091537
     2  O   -1.020266
     3  O   -0.788203
     4  O   -0.927466
     5  O   -0.968004
     6  H    0.376703
     7  H    0.452881
     8  H    0.379239
     9  Si   2.073446
    10  O   -0.829450
    11  O   -1.038040
    12  O   -0.919009
    13  O   -0.893982
    14  H    0.425175
    15  H    0.427014
    16  H    0.371290
    17  H    0.389976
    18  H    0.397159
 Sum of Mulliken charges =  -0.00000
 Mulliken charges with hydrogens summed into heavy atoms:
               1
     1  Si   2.091537
     2  O   -0.623107
     3  O   -0.408964
     4  O   -0.474585
     5  O   -0.591301
     9  Si   2.073446
    10  O   -0.458160
    11  O   -0.648064
    12  O   -0.491996
    13  O   -0.468807
 Electronic spatial extent (au):  <R**2>=           2266.5913
 Charge=             -0.0000 electrons
 Dipole moment (field-independent basis, Debye):
    X=             -2.4788    Y=             -0.0062    Z=              0.9814  Tot=              2.6661
 Quadrupole moment (field-independent basis, Debye-Ang):
   XX=            -67.0150   YY=            -68.1610   ZZ=            -72.5819
   XY=              0.9342   XZ=              4.3779   YZ=             -0.4607
 Traceless Quadrupole moment (field-independent basis, Debye-Ang):
   XX=              2.2377   YY=              1.0916   ZZ=             -3.3293
   XY=              0.9342   XZ=              4.3779   YZ=             -0.4607
 Octapole moment (field-independent basis, Debye-Ang**2):
  XXX=             -2.7658  YYY=              6.2789  ZZZ=            -13.7324  XYY=              2.9329
  XXY=              6.2550  XXZ=             21.9049  XZZ=            -24.6796  YZZ=             -7.3948
  YYZ=             12.1348  XYZ=             -2.1129
 Hexadecapole moment (field-independent basis, Debye-Ang**3):
 XXXX=          -1840.6814 YYYY=           -340.1575 ZZZZ=           -342.4451 XXXY=           -166.3734
 XXXZ=             47.6769 YYYX=             49.0503 YYYZ=             -6.7991 ZZZX=             21.3935
 ZZZY=              3.3693 XXYY=           -344.2323 XXZZ=           -387.2352 YYZZ=           -112.8896
 XXYZ=              3.7406 YYXZ=             -2.9171 ZZXY=             25.6161
 N-N= 8.614822451851D+02 E-N=-4.532573263481D+03  KE= 1.178249606533D+03
 Calling FoFJK, ICntrl=      2127 FMM=F ISym2X=0 I1Cent= 0 IOpClX= 0 NMat=1 NMatS=1 NMatT=0.
 ***** Axes restored to original set *****
 -------------------------------------------------------------------
 Center     Atomic                   Forces (Hartrees/Bohr)
 Number     Number              X              Y              Z
 -------------------------------------------------------------------
      1       14          -0.000740198    0.002047426   -0.000176370
      2        8          -0.001020450   -0.000356116   -0.000145096
      3        8           0.000041829   -0.000345508    0.000037450
      4        8          -0.002918564   -0.001076765    0.000325014
      5        8          -0.000884783   -0.000424547    0.000284812
      6        1          -0.000156050   -0.000118574    0.000030997
      7        1           0.001109307    0.000058989   -0.000164169
      8        1           0.000070205   -0.000004266   -0.000033850
      9       14           0.000595173   -0.001887748    0.000377532
     10        8           0.000056074    0.000287436   -0.000091274
     11        8           0.001373387    0.000810003   -0.000209023
     12        8           0.001434524    0.000430603   -0.000421699
     13        8           0.001642649    0.000513427    0.000320302
     14        1          -0.000400138   -0.000065280   -0.000044245
     15        1          -0.000248915    0.000053104   -0.000058530
     16        1          -0.000071248    0.000025268    0.000004225
     17        1           0.000191451    0.000076360    0.000017326
     18        1          -0.000074252   -0.000023812   -0.000053399
 -------------------------------------------------------------------
 Cartesian Forces:  Max     0.002918564 RMS     0.000754424

 GradGradGradGradGradGradGradGradGradGradGradGradGradGradGradGradGradGrad
 Berny optimization.
 FormGI is forming the generalized inverse of G from B-inverse, IUseBI=4.
 Internal  Forces:  Max     0.002834473 RMS     0.000582915
 Search for a local minimum.
 Step number   1 out of a maximum of   91
 All quantities printed in internal units (Hartrees-Bohrs-Radians)
 Mixed Optimization -- En-DIIS/RFO-DIIS
 Second derivative matrix not updated -- first step.
 ITU=  0
     Eigenvalues ---    0.01433   0.02571   0.02919   0.03255   0.03466
     Eigenvalues ---    0.03715   0.03758   0.03766   0.03781   0.04387
     Eigenvalues ---    0.04587   0.05127   0.06666   0.08024   0.08261
     Eigenvalues ---    0.08805   0.10857   0.11337   0.11542   0.11614
     Eigenvalues ---    0.11921   0.12803   0.14374   0.16000   0.16000
     Eigenvalues ---    0.16000   0.16000   0.17039   0.17375   0.18982
     Eigenvalues ---    0.19752   0.36696   0.38750   0.40316   0.43080
     Eigenvalues ---    0.43581   0.43741   0.43851   0.44852   0.47577
     Eigenvalues ---    0.50024   0.52775   0.54217   0.54252   0.54349
     Eigenvalues ---    0.54558   0.547081000.000001000.000001000.00000
     Eigenvalues --- 1000.000001000.000001000.000001000.000001000.00000
     Eigenvalues --- 1000.000001000.000001000.000001000.000001000.00000
     Eigenvalues --- 1000.000001000.000001000.000001000.000001000.00000
     Eigenvalues --- 1000.000001000.000001000.000001000.000001000.00000
     Eigenvalues --- 1000.000001000.000001000.000001000.000001000.00000
     Eigenvalues --- 1000.000001000.000001000.000001000.000001000.00000
     Eigenvalues --- 1000.00000
 RFO step:  Lambda=-1.36422461D-04 EMin= 1.43252899D-02
 Linear search not attempted -- first point.
 Iteration  1 RMS(Cart)=  0.01591661 RMS(Int)=  0.00008229
 Iteration  2 RMS(Cart)=  0.00010639 RMS(Int)=  0.00001661
 Iteration  3 RMS(Cart)=  0.00000000 RMS(Int)=  0.00001661
 Iteration  1 RMS(Cart)=  0.00000919 RMS(Int)=  0.00000219
 Iteration  2 RMS(Cart)=  0.00000196 RMS(Int)=  0.00000237
 Iteration  3 RMS(Cart)=  0.00000042 RMS(Int)=  0.00000244
 Variable       Old X    -DE/DX   Delta X   Delta X   Delta X     New X
                                 (Linear)    (Quad)   (Total)
    R1        3.14986   0.00025   0.00000  -0.00006  -0.00005   3.14981
    R2        3.10659  -0.00012   0.00000  -0.00028  -0.00028   3.10631
    R3        3.07110  -0.00105   0.00000  -0.00257  -0.00255   3.06855
    R4        3.14826   0.00007   0.00000   0.00018   0.00018   3.14845
    R5        7.36994   0.00283   0.00000   0.00000  -0.00000   7.36994
    R6        3.55297   0.00068   0.00000   0.00024   0.00027   3.55324
    R7        1.82415   0.00008   0.00000   0.00015   0.00015   1.82429
    R8        1.82227  -0.00004   0.00000  -0.00008  -0.00008   1.82219
    R9        1.85631   0.00219   0.00000   0.00314   0.00316   1.85947
   R10        1.82535   0.00016   0.00000   0.00030   0.00030   1.82565
   R11        3.31188   0.00104   0.00000   0.00623   0.00626   3.31814
   R12        3.10333   0.00001   0.00000   0.00002   0.00002   3.10335
   R13        3.17719   0.00048   0.00000   0.00046   0.00047   3.17766
   R14        3.11271  -0.00087   0.00000  -0.00202  -0.00202   3.11069
   R15        3.08903  -0.00066   0.00000  -0.00180  -0.00179   3.08724
   R16        1.82093  -0.00005   0.00000  -0.00009  -0.00009   1.82083
   R17        1.82503   0.00016   0.00000   0.00029   0.00029   1.82532
   R18        1.83865   0.00023   0.00000   0.00043   0.00043   1.83908
   R19        1.83814   0.00109   0.00000   0.00084   0.00086   1.83900
    A1        1.87439  -0.00036   0.00000  -0.00600  -0.00598   1.86840
    A2        1.99831   0.00012   0.00000   0.00570   0.00565   2.00396
    A3        1.80005   0.00025   0.00000   0.00254   0.00249   1.80254
    A4        1.91196  -0.00002   0.00000  -0.00351  -0.00348   1.90848
    A5        1.98485  -0.00078   0.00000  -0.00620  -0.00620   1.97865
    A6        1.89452   0.00076   0.00000   0.00761   0.00758   1.90209
    A7        1.94244  -0.00002   0.00000  -0.00193  -0.00191   1.94052
    A8        2.03709   0.00011   0.00000   0.00047   0.00046   2.03754
    A9        2.01080  -0.00019   0.00000   0.00051   0.00050   2.01130
   A10        2.04203  -0.00010   0.00000  -0.00065  -0.00065   2.04138
   A11        2.07268   0.00011   0.00000   0.00160   0.00162   2.07430
   A12        2.01966  -0.00012   0.00000  -0.00074  -0.00074   2.01891
   A13        1.86688  -0.00050   0.00000  -0.00660  -0.00658   1.86030
   A14        1.88203  -0.00041   0.00000  -0.00394  -0.00394   1.87809
   A15        1.94527  -0.00007   0.00000  -0.00434  -0.00432   1.94095
   A16        1.92300   0.00029   0.00000   0.00252   0.00248   1.92548
   A17        1.85812   0.00006   0.00000   0.00494   0.00489   1.86300
   A18        1.98530   0.00059   0.00000   0.00677   0.00674   1.99204
   A19        2.03711  -0.00010   0.00000  -0.00060  -0.00060   2.03651
   A20        2.01077  -0.00034   0.00000  -0.00537  -0.00536   2.00541
   A21        1.97164   0.00046   0.00000   0.00173   0.00172   1.97336
   A22        2.00200  -0.00011   0.00000   0.00020   0.00019   2.00219
   A23        2.02583  -0.00022   0.00000  -0.00138  -0.00138   2.02445
   A24        2.09409   0.00015   0.00000   0.00148   0.00150   2.09558
   A25        2.95922  -0.00025   0.00000  -0.00812  -0.00811   2.95111
   A26        2.89578  -0.00008   0.00000  -0.00554  -0.00554   2.89024
   A27        3.26826  -0.00089   0.00000  -0.01696  -0.01700   3.25126
   A28        3.09319   0.00074   0.00000   0.01222   0.01226   3.10546
    D1        3.13475  -0.00010   0.00000  -0.00020  -0.00021   3.13454
    D2        0.77736   0.00011   0.00000   0.00066   0.00065   0.77801
    D3        1.00767   0.00012   0.00000   0.00495   0.00495   1.01262
    D4       -1.34972   0.00032   0.00000   0.00581   0.00581  -1.34391
    D5       -1.04706  -0.00102   0.00000  -0.00873  -0.00874  -1.05580
    D6        2.87874  -0.00082   0.00000  -0.00788  -0.00788   2.87085
    D7       -2.64796  -0.00006   0.00000  -0.00116  -0.00115  -2.64910
    D8       -0.46788  -0.00016   0.00000  -0.00024  -0.00024  -0.46812
    D9        1.65533   0.00027   0.00000   0.00274   0.00273   1.65806
   D10       -0.92273  -0.00021   0.00000  -0.00389  -0.00390  -0.92663
   D11       -3.02915   0.00019   0.00000   0.00257   0.00258  -3.02657
   D12        1.07741   0.00067   0.00000   0.00754   0.00757   1.08497
   D13       -1.03287   0.00038   0.00000   0.00531   0.00531  -1.02756
   D14        0.99115  -0.00027   0.00000  -0.00324  -0.00323   0.98792
   D15        3.12402  -0.00026   0.00000  -0.00636  -0.00636   3.11766
   D16        0.03361  -0.00012   0.00000  -0.00902  -0.00902   0.02459
   D17        2.35697  -0.00028   0.00000  -0.01274  -0.01274   2.34423
   D18       -0.15383  -0.00019   0.00000  -0.01133  -0.01133  -0.16515
   D19       -2.47399  -0.00035   0.00000  -0.01277  -0.01277  -2.48676
   D20        2.66816   0.00003   0.00000  -0.00106  -0.00105   2.66711
   D21        0.60013   0.00017   0.00000   0.00155   0.00154   0.60167
   D22       -1.59060  -0.00023   0.00000  -0.00131  -0.00131  -1.59191
   D23       -3.09597  -0.00022   0.00000   0.00321   0.00320  -3.09276
   D24       -0.76187  -0.00001   0.00000   0.00027   0.00027  -0.76160
   D25       -1.05480  -0.00085   0.00000  -0.00388  -0.00389  -1.05869
   D26        1.27930  -0.00063   0.00000  -0.00682  -0.00682   1.27247
   D27        1.10559   0.00009   0.00000   0.00908   0.00907   1.11466
   D28       -2.84351   0.00030   0.00000   0.00614   0.00614  -2.83736
   D29        3.11142  -0.00025   0.00000  -0.00220  -0.00220   3.10922
   D30        1.07969   0.00043   0.00000   0.00656   0.00656   1.08625
   D31       -1.00498  -0.00025   0.00000  -0.00611  -0.00611  -1.01110
   D32       -3.13335   0.00031   0.00000   0.00298   0.00299  -3.13036
   D33       -1.10357  -0.00030   0.00000  -0.00429  -0.00429  -1.10786
   D34        1.01761   0.00047   0.00000   0.00650   0.00653   1.02413
         Item               Value     Threshold  Converged?
 Maximum Force            0.001816     0.000450     NO 
 RMS     Force            0.000465     0.000300     NO 
 Maximum Displacement     0.065106     0.001800     NO 
 RMS     Displacement     0.015940     0.001200     NO 
 Predicted change in Energy=-6.885777D-05
 GradGradGradGradGradGradGradGradGradGradGradGradGradGradGradGradGradGrad

                          Input orientation:                          
 ---------------------------------------------------------------------
 Center     Atomic      Atomic             Coordinates (Angstroms)
 Number     Number       Type             X           Y           Z
 ---------------------------------------------------------------------
      1         14           0       -1.972300    0.030614    0.022450
      2          8           0       -1.500089   -1.043227   -1.161666
      3          8           0       -3.615210    0.079966    0.001020
      4          8           0       -1.386597    1.535355   -0.149159
      5          8           0       -1.349360   -0.637777    1.415663
      6          1           0       -1.652973   -1.531080    1.623413
      7          1           0       -0.415910    1.657913   -0.253964
      8          1           0       -4.031804    0.899818    0.291010
      9         14           0        1.926826   -0.032906   -0.030560
     10          8           0        3.563239    0.070391   -0.122041
     11          8           0        1.329284    1.502097   -0.368639
     12          8           0        1.540811   -0.470429    1.508673
     13          8           0        1.332674   -1.032473   -1.178085
     14          1           0        0.373268   -1.180367   -1.246663
     15          1           0        0.590522   -0.540450    1.706577
     16          1           0        4.066720   -0.555831    0.409719
     17          1           0        1.802930    2.224217    0.064024
     18          1           0       -1.946831   -0.973430   -2.014601
 ---------------------------------------------------------------------
                    Distance matrix (angstroms):
                    1          2          3          4          5
     1  Si   0.000000
     2  O    1.666808   0.000000
     3  O    1.643791   2.662168   0.000000
     4  O    1.623805   2.772569   2.665976   0.000000
     5  O    1.666086   2.613376   2.765944   2.678162   0.000000
     6  H    2.259191   2.831615   3.012973   3.551899   0.966091
     7  H    2.268668   3.048856   3.576374   0.983990   2.988172
     8  H    2.251488   3.506462   0.964263   2.755862   3.290068
     9  Si   3.900003   3.747518   5.543275   3.667735   3.631917
    10  O    5.537567   5.287556   7.179510   5.162144   5.196120
    11  O    3.635749   3.887534   5.158210   2.724938   3.864961
    12  O    3.847317   4.087282   5.400046   3.916796   2.896505
    13  O    3.673457   2.832830   5.206665   3.879028   3.751882
    14  H    2.928961   1.880292   4.364986   3.417131   3.217115
    15  H    3.119367   3.584725   4.580613   3.414926   1.963987
    16  H    6.079775   5.804840   7.719023   5.867203   5.509316
    17  H    4.366461   4.805043   5.827351   3.270025   4.467087
    18  H    2.271196   0.965375   2.820613   3.176120   3.498049
                    6          7          8          9         10
     6  H    0.000000
     7  H    3.901864   0.000000
     8  H    3.652862   3.734487   0.000000
     9  Si   4.218425   2.897791   6.039756   0.000000
    10  O    5.728890   4.286170   7.651355   1.642220   0.000000
    11  O    4.697051   1.755885   5.434993   1.681544   2.664798
    12  O    3.367254   3.386072   5.866371   1.646108   2.653663
    13  O    4.124450   3.339120   5.888091   1.633697   2.703139
    14  H    3.530721   3.108711   5.108451   2.282348   3.606256
    15  H    2.453881   3.112784   5.044214   2.249656   3.543165
    16  H    5.927820   5.043323   8.229162   2.246429   0.963543
    17  H    5.336405   2.311941   5.987460   2.262498   2.787879
    18  H    3.692219   3.516750   3.629327   4.452665   5.918802
                   11         12         13         14         15
    11  O    0.000000
    12  O    2.731282   0.000000
    13  O    2.660689   2.752795   0.000000
    14  H    2.980018   3.075555   0.973157   0.000000
    15  H    3.004045   0.973200   3.018965   3.029573   0.000000
    16  H    3.512045   2.755941   3.197393   4.095758   3.710260
    17  H    0.965916   3.068686   3.517102   3.918293   3.436756
    18  H    4.423840   4.982983   3.385026   2.452634   4.524688
                   16         17         18
    16  H    0.000000
    17  H    3.601793   0.000000
    18  H    6.497270   5.348490   0.000000
 Stoichiometry    H8O8Si2
 Framework group  C1[X(H8O8Si2)]
 Deg. of freedom    48
 Full point group                 C1      NOp   1
 Largest Abelian subgroup         C1      NOp   1
 Largest concise Abelian subgroup C1      NOp   1
                         Standard orientation:                         
 ---------------------------------------------------------------------
 Center     Atomic      Atomic             Coordinates (Angstroms)
 Number     Number       Type             X           Y           Z
 ---------------------------------------------------------------------
      1         14           0       -1.946923    0.033697    0.022001
      2          8           0       -1.476333   -1.040566   -1.162377
      3          8           0       -3.589751    0.085661    0.000470
      4          8           0       -1.358822    1.537554   -0.149152
      5          8           0       -1.325143   -0.636064    1.415073
      6          1           0       -1.630187   -1.528942    1.622557
      7          1           0       -0.387935    1.658601   -0.253855
      8          1           0       -4.005065    0.906093    0.290657
      9         14           0        1.952100   -0.035994   -0.030753
     10          8           0        3.588682    0.064733   -0.122092
     11          8           0        1.357018    1.500049   -0.368451
     12          8           0        1.565283   -0.473327    1.508332
     13          8           0        1.356444   -1.034301   -1.178595
     14          1           0        0.396810   -1.180654   -1.247281
     15          1           0        0.614871   -0.541895    1.706150
     16          1           0        4.091131   -0.562433    0.409531
     17          1           0        1.831779    2.221297    0.064443
     18          1           0       -1.922904   -0.969825   -2.015325
 ---------------------------------------------------------------------
 Rotational constants (GHZ):           1.9508908           0.5128431           0.5098231
 Standard basis: 6-31+G(d,p) (6D, 7F)
 There are   238 symmetry adapted cartesian basis functions of A   symmetry.
 There are   238 symmetry adapted basis functions of A   symmetry.
   238 basis functions,   424 primitive gaussians,   238 cartesian basis functions
    50 alpha electrons       50 beta electrons
       nuclear repulsion energy       860.7280433409 Hartrees.
 NAtoms=   18 NActive=   18 NUniq=   18 SFac= 1.00D+00 NAtFMM=   60 NAOKFM=F Big=F
 Integral buffers will be    131072 words long.
 Raffenetti 2 integral format.
 Two-electron integral symmetry is turned on.
 Nuclear repulsion after empirical dispersion term =      860.7118259419 Hartrees.
 One-electron integrals computed using PRISM.
 NBasis=   238 RedAO= T EigKep=  2.31D-04  NBF=   238
 NBsUse=   238 1.00D-06 EigRej= -1.00D+00 NBFU=   238
 Initial guess from the checkpoint file:  "/localscratch/sarashs.37136506.0/Gau-26115.chk"
 B after Tr=     0.000000    0.000000   -0.000000
         Rot=    1.000000   -0.000095    0.000076    0.000492 Ang=  -0.06 deg.
 ExpMin= 3.31D-02 ExpMax= 1.61D+04 ExpMxC= 2.43D+03 IAcc=3 IRadAn=         5 AccDes= 0.00D+00
 Harris functional with IExCor=  402 and IRadAn=       5 diagonalized for initial guess.
 HarFok:  IExCor=  402 AccDes= 0.00D+00 IRadAn=         5 IDoV= 1 UseB2=F ITyADJ=14
 ICtDFT=  3500011 ScaDFX=  1.000000  1.000000  1.000000  1.000000
 FoFCou: FMM=F IPFlag=           0 FMFlag=      100000 FMFlg1=           0
         NFxFlg=           0 DoJE=T BraDBF=F KetDBF=T FulRan=T
         wScrn=  0.000000 ICntrl=       500 IOpCl=  0 I1Cent=   200000004 NGrid=           0
         NMat0=    1 NMatS0=      1 NMatT0=    0 NMatD0=    1 NMtDS0=    0 NMtDT0=    0
 Petite list used in FoFCou.
 Requested convergence on RMS density matrix=1.00D-08 within 128 cycles.
 Requested convergence on MAX density matrix=1.00D-06.
 Requested convergence on             energy=1.00D-06.
 No special actions if energy rises.
 SCF Done:  E(RB3LYP) =  -1186.07410568     A.U. after    9 cycles
            NFock=  9  Conv=0.62D-08     -V/T= 2.0066
 Calling FoFJK, ICntrl=      2127 FMM=F ISym2X=0 I1Cent= 0 IOpClX= 0 NMat=1 NMatS=1 NMatT=0.
 ***** Axes restored to original set *****
 -------------------------------------------------------------------
 Center     Atomic                   Forces (Hartrees/Bohr)
 Number     Number              X              Y              Z
 -------------------------------------------------------------------
      1       14          -0.002518540    0.000353677    0.000526974
      2        8          -0.000192342   -0.000247507   -0.000182176
      3        8          -0.000656094   -0.000063151   -0.000033005
      4        8          -0.000172257   -0.000460294    0.000368226
      5        8           0.000591705    0.000355859   -0.000354416
      6        1           0.000180882    0.000167691   -0.000068447
      7        1          -0.000309211   -0.000003679   -0.000348187
      8        1           0.000016261   -0.000027014   -0.000047114
      9       14           0.002751409   -0.000594684   -0.000755387
     10        8           0.000441509    0.000110587    0.000079953
     11        8           0.000337267    0.000451589    0.000050594
     12        8          -0.001149753    0.000141868    0.000225258
     13        8           0.000486805    0.000373121    0.000628517
     14        1          -0.000183216    0.000001477   -0.000238287
     15        1           0.000167151   -0.000456588    0.000147410
     16        1           0.000038884    0.000006862   -0.000024199
     17        1           0.000216184   -0.000170815   -0.000055337
     18        1          -0.000046643    0.000061002    0.000079623
 -------------------------------------------------------------------
 Cartesian Forces:  Max     0.002751409 RMS     0.000611799

 GradGradGradGradGradGradGradGradGradGradGradGradGradGradGradGradGradGrad
 Berny optimization.
 Using GEDIIS/GDIIS optimizer.
 FormGI is forming the generalized inverse of G from B-inverse, IUseBI=4.
 Internal  Forces:  Max     0.001470796 RMS     0.000404505
 Search for a local minimum.
 Step number   2 out of a maximum of   91
 All quantities printed in internal units (Hartrees-Bohrs-Radians)
 Mixed Optimization -- En-DIIS/RFO-DIIS
 Swapping is turned off.
 Update second derivatives using D2CorX and points    1    2
 DE= -2.21D-05 DEPred=-6.89D-05 R= 3.20D-01
 Trust test= 3.20D-01 RLast= 4.72D-02 DXMaxT set to 3.00D-01
 ITU=  0  0
     Eigenvalues ---    0.01665   0.02627   0.02941   0.03260   0.03469
     Eigenvalues ---    0.03701   0.03756   0.03781   0.03836   0.04351
     Eigenvalues ---    0.04574   0.05060   0.07187   0.07985   0.08304
     Eigenvalues ---    0.09645   0.10863   0.11418   0.11534   0.11711
     Eigenvalues ---    0.12657   0.12793   0.14427   0.15993   0.16000
     Eigenvalues ---    0.16000   0.16174   0.17203   0.18449   0.19250
     Eigenvalues ---    0.20601   0.36281   0.38635   0.40359   0.42997
     Eigenvalues ---    0.43663   0.43768   0.44635   0.44749   0.45100
     Eigenvalues ---    0.50224   0.52797   0.54243   0.54296   0.54359
     Eigenvalues ---    0.54557   0.547081000.000001000.000001000.00000
     Eigenvalues --- 1000.000001000.000001000.000001000.000001000.00000
     Eigenvalues --- 1000.000001000.000001000.000001000.000001000.00000
     Eigenvalues --- 1000.000001000.000001000.000001000.000001000.00000
     Eigenvalues --- 1000.000001000.000001000.000001000.000001000.00000
     Eigenvalues --- 1000.000001000.000001000.000001000.000001000.00000
     Eigenvalues --- 1000.000001000.000001000.000001000.000001000.00000
     Eigenvalues --- 1000.00000
 En-DIIS/RFO-DIIS/Sim-DIIS IScMMF=       -3 using points:     2    1
 RFO step:  Lambda=-7.74078649D-05.
 DidBck=T Rises=F RFO-DIIS coefs:    0.53629    0.46371
 Iteration  1 RMS(Cart)=  0.01122307 RMS(Int)=  0.00003793
 Iteration  2 RMS(Cart)=  0.00006004 RMS(Int)=  0.00000739
 Iteration  3 RMS(Cart)=  0.00000000 RMS(Int)=  0.00000739
 Iteration  1 RMS(Cart)=  0.00000415 RMS(Int)=  0.00000098
 Iteration  2 RMS(Cart)=  0.00000088 RMS(Int)=  0.00000106
 Variable       Old X    -DE/DX   Delta X   Delta X   Delta X     New X
                                 (Linear)    (Quad)   (Total)
    R1        3.14981   0.00035   0.00003   0.00084   0.00086   3.15068
    R2        3.10631   0.00064   0.00013   0.00067   0.00080   3.10711
    R3        3.06855  -0.00029   0.00118  -0.00230  -0.00112   3.06743
    R4        3.14845  -0.00027  -0.00008  -0.00027  -0.00036   3.14809
    R5        7.36994   0.00147   0.00000   0.00000  -0.00000   7.36994
    R6        3.55324   0.00069  -0.00012   0.01334   0.01323   3.56647
    R7        1.82429  -0.00004  -0.00007   0.00006  -0.00000   1.82429
    R8        1.82219  -0.00004   0.00004  -0.00011  -0.00007   1.82212
    R9        1.85947   0.00065  -0.00147   0.00372   0.00226   1.86173
   R10        1.82565  -0.00023  -0.00014  -0.00002  -0.00016   1.82549
   R11        3.31814   0.00094  -0.00290   0.01728   0.01438   3.33253
   R12        3.10335   0.00048  -0.00001   0.00068   0.00068   3.10402
   R13        3.17766   0.00042  -0.00022   0.00145   0.00124   3.17890
   R14        3.11069   0.00066   0.00094  -0.00065   0.00029   3.11098
   R15        3.08724  -0.00039   0.00083  -0.00184  -0.00101   3.08623
   R16        1.82083   0.00000   0.00004  -0.00007  -0.00003   1.82081
   R17        1.82532  -0.00005  -0.00013   0.00017   0.00004   1.82536
   R18        1.83908  -0.00010  -0.00020   0.00022   0.00002   1.83910
   R19        1.83900   0.00087  -0.00040   0.00217   0.00178   1.84078
    A1        1.86840   0.00000   0.00277  -0.00278   0.00000   1.86840
    A2        2.00396  -0.00009  -0.00262   0.00174  -0.00088   2.00309
    A3        1.80254  -0.00015  -0.00116   0.00049  -0.00064   1.80190
    A4        1.90848   0.00040   0.00161   0.00068   0.00229   1.91077
    A5        1.97865   0.00060   0.00287  -0.00196   0.00091   1.97956
    A6        1.90209  -0.00076  -0.00351   0.00169  -0.00181   1.90028
    A7        1.94052  -0.00001   0.00089  -0.00122  -0.00033   1.94020
    A8        2.03754  -0.00027  -0.00021  -0.00038  -0.00059   2.03695
    A9        2.01130   0.00030  -0.00023   0.00060   0.00036   2.01166
   A10        2.04138   0.00001   0.00030  -0.00048  -0.00018   2.04120
   A11        2.07430  -0.00008  -0.00075  -0.00050  -0.00124   2.07306
   A12        2.01891   0.00008   0.00034  -0.00026   0.00009   2.01900
   A13        1.86030  -0.00003   0.00305  -0.00382  -0.00076   1.85954
   A14        1.87809   0.00034   0.00183  -0.00106   0.00076   1.87885
   A15        1.94095   0.00039   0.00200   0.00001   0.00201   1.94296
   A16        1.92548   0.00001  -0.00115   0.00143   0.00029   1.92578
   A17        1.86300  -0.00016  -0.00227   0.00102  -0.00124   1.86176
   A18        1.99204  -0.00053  -0.00313   0.00205  -0.00107   1.99097
   A19        2.03651   0.00008   0.00028  -0.00016   0.00011   2.03662
   A20        2.00541  -0.00005   0.00248  -0.00257  -0.00008   2.00534
   A21        1.97336   0.00005  -0.00080   0.00283   0.00204   1.97540
   A22        2.00219  -0.00000  -0.00009  -0.00015  -0.00025   2.00194
   A23        2.02445   0.00054   0.00064   0.00097   0.00161   2.02607
   A24        2.09558   0.00001  -0.00069  -0.00033  -0.00102   2.09456
   A25        2.95111   0.00038   0.00376   0.00020   0.00396   2.95507
   A26        2.89024   0.00028   0.00257   0.00074   0.00332   2.89355
   A27        3.25126   0.00060   0.00788   0.00864   0.01651   3.26777
   A28        3.10546  -0.00059  -0.00569  -0.00881  -0.01448   3.09097
    D1        3.13454   0.00024   0.00010   0.00010   0.00020   3.13474
    D2        0.77801   0.00007  -0.00030   0.00092   0.00062   0.77863
    D3        1.01262  -0.00022  -0.00230   0.00014  -0.00217   1.01046
    D4       -1.34391  -0.00038  -0.00269   0.00096  -0.00174  -1.34565
    D5       -1.05580   0.00085   0.00406  -0.00314   0.00092  -1.05489
    D6        2.87085   0.00069   0.00366  -0.00232   0.00134   2.87219
    D7       -2.64910   0.00002   0.00053  -0.00030   0.00023  -2.64887
    D8       -0.46812   0.00016   0.00011   0.00047   0.00058  -0.46754
    D9        1.65806  -0.00012  -0.00127   0.00180   0.00054   1.65859
   D10       -0.92663   0.00028   0.00181  -0.00014   0.00169  -0.92495
   D11       -3.02657   0.00004  -0.00119   0.00177   0.00058  -3.02599
   D12        1.08497  -0.00047  -0.00351   0.00266  -0.00086   1.08411
   D13       -1.02756  -0.00020  -0.00246   0.00229  -0.00018  -1.02774
   D14        0.98792   0.00000   0.00150  -0.00163  -0.00014   0.98779
   D15        3.11766   0.00037   0.00295  -0.00086   0.00210   3.11976
   D16        0.02459   0.00035   0.00418   0.00408   0.00827   0.03286
   D17        2.34423   0.00034   0.00591   0.00424   0.01015   2.35438
   D18       -0.16515   0.00025   0.00525   0.00311   0.00838  -0.15678
   D19       -2.48676   0.00044   0.00592   0.00564   0.01154  -2.47522
   D20        2.66711   0.00006   0.00049  -0.00005   0.00044   2.66755
   D21        0.60167  -0.00011  -0.00071   0.00082   0.00011   0.60178
   D22       -1.59191   0.00007   0.00061  -0.00103  -0.00043  -1.59233
   D23       -3.09276   0.00016  -0.00148  -0.00072  -0.00220  -3.09497
   D24       -0.76160   0.00017  -0.00013   0.00071   0.00058  -0.76102
   D25       -1.05869   0.00055   0.00181  -0.00339  -0.00158  -1.06027
   D26        1.27247   0.00056   0.00316  -0.00196   0.00120   1.27368
   D27        1.11466  -0.00021  -0.00421   0.00069  -0.00352   1.11113
   D28       -2.83736  -0.00019  -0.00285   0.00212  -0.00074  -2.83810
   D29        3.10922   0.00014   0.00102   0.00149   0.00251   3.11173
   D30        1.08625  -0.00002  -0.00304   0.00588   0.00283   1.08908
   D31       -1.01110   0.00054   0.00283   0.00210   0.00495  -1.00615
   D32       -3.13036   0.00010  -0.00139   0.00230   0.00091  -3.12945
   D33       -1.10786   0.00018   0.00199  -0.00166   0.00034  -1.10752
   D34        1.02413  -0.00026  -0.00303   0.00218  -0.00085   1.02328
         Item               Value     Threshold  Converged?
 Maximum Force            0.000892     0.000450     NO 
 RMS     Force            0.000362     0.000300     NO 
 Maximum Displacement     0.036976     0.001800     NO 
 RMS     Displacement     0.011216     0.001200     NO 
 Predicted change in Energy=-3.875760D-05
 GradGradGradGradGradGradGradGradGradGradGradGradGradGradGradGradGradGrad

                          Input orientation:                          
 ---------------------------------------------------------------------
 Center     Atomic      Atomic             Coordinates (Angstroms)
 Number     Number       Type             X           Y           Z
 ---------------------------------------------------------------------
      1         14           0       -1.972047    0.032807    0.022403
      2          8           0       -1.503113   -1.043486   -1.161433
      3          8           0       -3.615684    0.075091    0.011916
      4          8           0       -1.390710    1.537614   -0.157677
      5          8           0       -1.335536   -0.628121    1.412813
      6          1           0       -1.633406   -1.522030    1.625813
      7          1           0       -0.419680    1.660674   -0.269712
      8          1           0       -4.033643    0.894286    0.301671
      9         14           0        1.927024   -0.034347   -0.030136
     10          8           0        3.564486    0.068093   -0.109401
     11          8           0        1.333954    1.502977   -0.368807
     12          8           0        1.528257   -0.476164    1.504777
     13          8           0        1.337640   -1.028583   -1.183976
     14          1           0        0.377219   -1.173266   -1.258299
     15          1           0        0.576704   -0.548443    1.695730
     16          1           0        4.063739   -0.560060    0.424039
     17          1           0        1.805840    2.223185    0.068982
     18          1           0       -1.955845   -0.977827   -2.011533
 ---------------------------------------------------------------------
                    Distance matrix (angstroms):
                    1          2          3          4          5
     1  Si   0.000000
     2  O    1.667266   0.000000
     3  O    1.644214   2.662878   0.000000
     4  O    1.623214   2.771685   2.668004   0.000000
     5  O    1.665898   2.612921   2.766966   2.675797   0.000000
     6  H    2.259010   2.831029   3.014115   3.549811   0.966007
     7  H    2.268287   3.046551   3.578803   0.985187   2.984672
     8  H    2.251736   3.507024   0.964224   2.758617   3.291222
     9  Si   3.900003   3.750204   5.543948   3.673511   3.616485
    10  O    5.538215   5.293670   7.181199   5.168732   5.178037
    11  O    3.639243   3.893801   5.165533   2.733051   3.852522
    12  O    3.835182   4.076732   5.384483   3.916558   2.869296
    13  O    3.679121   2.840882   5.213797   3.883626   3.748274
    14  H    2.934938   1.887293   4.372084   3.418451   3.219558
    15  H    3.103871   3.568486   4.560718   3.414304   1.934697
    16  H    6.078118   5.808379   7.716658   5.872788   5.489488
    17  H    4.367191   4.809806   5.831851   3.277089   4.450176
    18  H    2.271241   0.965374   2.821002   3.175469   3.497603
                    6          7          8          9         10
     6  H    0.000000
     7  H    3.898173   0.000000
     8  H    3.654186   3.738256   0.000000
     9  Si   4.199051   2.904739   6.041689   0.000000
    10  O    5.705922   4.293669   7.653963   1.642577   0.000000
    11  O    4.683418   1.763497   5.443450   1.682199   2.664855
    12  O    3.332357   3.392543   5.853233   1.646261   2.654810
    13  O    4.118922   3.340083   5.895359   1.633163   2.704857
    14  H    3.533037   3.105409   5.115074   2.281976   3.608270
    15  H    2.416060   3.120247   5.027939   2.250838   3.544779
    16  H    5.901450   5.051138   8.227861   2.246820   0.963529
    17  H    5.317779   2.320360   5.993303   2.262954   2.787306
    18  H    3.691939   3.515029   3.629458   4.460129   5.931788
                   11         12         13         14         15
    11  O    0.000000
    12  O    2.732228   0.000000
    13  O    2.659569   2.751526   0.000000
    14  H    2.978056   3.073342   0.974098   0.000000
    15  H    3.007335   0.973211   3.016996   3.025969   0.000000
    16  H    3.512328   2.757481   3.199506   4.098379   3.711704
    17  H    0.965937   3.070024   3.516121   3.916441   3.440785
    18  H    4.435732   4.975447   3.396244   2.459419   4.510208
                   16         17         18
    16  H    0.000000
    17  H    3.601475   0.000000
    18  H    6.507067   5.359598   0.000000
 Stoichiometry    H8O8Si2
 Framework group  C1[X(H8O8Si2)]
 Deg. of freedom    48
 Full point group                 C1      NOp   1
 Largest Abelian subgroup         C1      NOp   1
 Largest concise Abelian subgroup C1      NOp   1
                         Standard orientation:                         
 ---------------------------------------------------------------------
 Center     Atomic      Atomic             Coordinates (Angstroms)
 Number     Number       Type             X           Y           Z
 ---------------------------------------------------------------------
      1         14           0       -1.947061    0.034293    0.022271
      2          8           0       -1.479346   -1.036927   -1.166639
      3          8           0       -3.590656    0.078255    0.012199
      4          8           0       -1.364253    1.539346   -0.150859
      5          8           0       -1.311028   -0.633751    1.409496
      6          1           0       -1.609758   -1.528349    1.618360
      7          1           0       -0.393116    1.661965   -0.262446
      8          1           0       -4.007765    0.896502    0.305831
      9         14           0        1.951935   -0.036483   -0.031098
     10          8           0        3.589488    0.064703   -0.110101
     11          8           0        1.360348    1.502993   -0.362509
     12          8           0        1.552926   -0.485065    1.501789
     13          8           0        1.361418   -1.024735   -1.189488
     14          1           0        0.400843   -1.168117   -1.264359
     15          1           0        0.601327   -0.557291    1.692529
     16          1           0        4.088185   -0.566429    0.420335
     17          1           0        1.833004    2.220681    0.078575
     18          1           0       -1.932121   -0.966851   -2.016363
 ---------------------------------------------------------------------
 Rotational constants (GHZ):           1.9524122           0.5130525           0.5100454
 Standard basis: 6-31+G(d,p) (6D, 7F)
 There are   238 symmetry adapted cartesian basis functions of A   symmetry.
 There are   238 symmetry adapted basis functions of A   symmetry.
   238 basis functions,   424 primitive gaussians,   238 cartesian basis functions
    50 alpha electrons       50 beta electrons
       nuclear repulsion energy       860.8504087014 Hartrees.
 NAtoms=   18 NActive=   18 NUniq=   18 SFac= 1.00D+00 NAtFMM=   60 NAOKFM=F Big=F
 Integral buffers will be    131072 words long.
 Raffenetti 2 integral format.
 Two-electron integral symmetry is turned on.
 Nuclear repulsion after empirical dispersion term =      860.8341816902 Hartrees.
 One-electron integrals computed using PRISM.
 NBasis=   238 RedAO= T EigKep=  2.31D-04  NBF=   238
 NBsUse=   238 1.00D-06 EigRej= -1.00D+00 NBFU=   238
 Initial guess from the checkpoint file:  "/localscratch/sarashs.37136506.0/Gau-26115.chk"
 B after Tr=    -0.000000   -0.000000    0.000000
         Rot=    0.999998   -0.002132   -0.000021   -0.000178 Ang=  -0.25 deg.
 ExpMin= 3.31D-02 ExpMax= 1.61D+04 ExpMxC= 2.43D+03 IAcc=3 IRadAn=         5 AccDes= 0.00D+00
 Harris functional with IExCor=  402 and IRadAn=       5 diagonalized for initial guess.
 HarFok:  IExCor=  402 AccDes= 0.00D+00 IRadAn=         5 IDoV= 1 UseB2=F ITyADJ=14
 ICtDFT=  3500011 ScaDFX=  1.000000  1.000000  1.000000  1.000000
 FoFCou: FMM=F IPFlag=           0 FMFlag=      100000 FMFlg1=           0
         NFxFlg=           0 DoJE=T BraDBF=F KetDBF=T FulRan=T
         wScrn=  0.000000 ICntrl=       500 IOpCl=  0 I1Cent=   200000004 NGrid=           0
         NMat0=    1 NMatS0=      1 NMatT0=    0 NMatD0=    1 NMtDS0=    0 NMtDT0=    0
 Petite list used in FoFCou.
 Requested convergence on RMS density matrix=1.00D-08 within 128 cycles.
 Requested convergence on MAX density matrix=1.00D-06.
 Requested convergence on             energy=1.00D-06.
 No special actions if energy rises.
 SCF Done:  E(RB3LYP) =  -1186.07414764     A.U. after    9 cycles
            NFock=  9  Conv=0.39D-08     -V/T= 2.0066
 Calling FoFJK, ICntrl=      2127 FMM=F ISym2X=0 I1Cent= 0 IOpClX= 0 NMat=1 NMatS=1 NMatT=0.
 ***** Axes restored to original set *****
 -------------------------------------------------------------------
 Center     Atomic                   Forces (Hartrees/Bohr)
 Number     Number              X              Y              Z
 -------------------------------------------------------------------
      1       14          -0.002531662   -0.000103462   -0.000010150
      2        8          -0.000153979   -0.000031257   -0.000036158
      3        8          -0.000192494   -0.000021104    0.000015165
      4        8           0.001101315    0.000168832   -0.000079213
      5        8           0.000092111   -0.000005696    0.000006147
      6        1          -0.000058631    0.000026589   -0.000050633
      7        1          -0.001283707   -0.000138607    0.000118173
      8        1          -0.000043004    0.000026435   -0.000008902
      9       14           0.002568531    0.000051498    0.000070861
     10        8           0.000222617    0.000017278   -0.000011992
     11        8           0.000199468    0.000192211    0.000001209
     12        8          -0.000137083    0.000142085   -0.000070483
     13        8          -0.000687410   -0.000084043    0.000004767
     14        1           0.000787047    0.000052745   -0.000013647
     15        1           0.000031952   -0.000111715    0.000032338
     16        1           0.000017383   -0.000012004    0.000003957
     17        1           0.000129280   -0.000197123   -0.000049797
     18        1          -0.000061734    0.000027338    0.000078358
 -------------------------------------------------------------------
 Cartesian Forces:  Max     0.002568531 RMS     0.000567515

 GradGradGradGradGradGradGradGradGradGradGradGradGradGradGradGradGradGrad
 Berny optimization.
 Using GEDIIS/GDIIS optimizer.
 FormGI is forming the generalized inverse of G from B-inverse, IUseBI=4.
 Internal  Forces:  Max     0.001945443 RMS     0.000284085
 Search for a local minimum.
 Step number   3 out of a maximum of   91
 All quantities printed in internal units (Hartrees-Bohrs-Radians)
 Mixed Optimization -- En-DIIS/RFO-DIIS
 Swapping is turned off.
 Update second derivatives using D2CorX and points    1    2    3
 DE= -4.20D-05 DEPred=-3.88D-05 R= 1.08D+00
 TightC=F SS=  1.41D+00  RLast= 3.73D-02 DXNew= 5.0454D-01 1.1191D-01
 Trust test= 1.08D+00 RLast= 3.73D-02 DXMaxT set to 3.00D-01
 ITU=  1  0  0
     Eigenvalues ---    0.01700   0.02553   0.02791   0.03255   0.03381
     Eigenvalues ---    0.03494   0.03756   0.03781   0.03854   0.03902
     Eigenvalues ---    0.04573   0.05030   0.06986   0.07979   0.08291
     Eigenvalues ---    0.09659   0.10841   0.11439   0.11511   0.11697
     Eigenvalues ---    0.12635   0.12666   0.14497   0.15980   0.16000
     Eigenvalues ---    0.16025   0.16179   0.17188   0.18424   0.19166
     Eigenvalues ---    0.20352   0.36875   0.38998   0.40348   0.42871
     Eigenvalues ---    0.43637   0.43765   0.44173   0.44929   0.50090
     Eigenvalues ---    0.52786   0.53857   0.54275   0.54349   0.54509
     Eigenvalues ---    0.54702   0.553151000.000001000.000001000.00000
     Eigenvalues --- 1000.000001000.000001000.000001000.000001000.00000
     Eigenvalues --- 1000.000001000.000001000.000001000.000001000.00000
     Eigenvalues --- 1000.000001000.000001000.000001000.000001000.00000
     Eigenvalues --- 1000.000001000.000001000.000001000.000001000.00000
     Eigenvalues --- 1000.000001000.000001000.000001000.000001000.00000
     Eigenvalues --- 1000.000001000.000001000.000001000.000001000.00000
     Eigenvalues --- 1000.00000
 En-DIIS/RFO-DIIS/Sim-DIIS IScMMF=       -3 using points:     3    2    1
 RFO step:  Lambda=-8.41154002D-06.
 DidBck=F Rises=F RFO-DIIS coefs:    1.34251   -0.16432   -0.17819
 Iteration  1 RMS(Cart)=  0.00241008 RMS(Int)=  0.00000340
 Iteration  2 RMS(Cart)=  0.00000308 RMS(Int)=  0.00000275
 Iteration  3 RMS(Cart)=  0.00000000 RMS(Int)=  0.00000275
 Iteration  1 RMS(Cart)=  0.00000186 RMS(Int)=  0.00000044
 Iteration  2 RMS(Cart)=  0.00000039 RMS(Int)=  0.00000047
 Variable       Old X    -DE/DX   Delta X   Delta X   Delta X     New X
                                 (Linear)    (Quad)   (Total)
    R1        3.15068   0.00007   0.00029  -0.00033  -0.00004   3.15064
    R2        3.10711   0.00024   0.00022   0.00049   0.00071   3.10782
    R3        3.06743   0.00023  -0.00084   0.00077  -0.00007   3.06736
    R4        3.14809  -0.00003  -0.00009  -0.00004  -0.00013   3.14797
    R5        7.36994   0.00195  -0.00000   0.00000   0.00000   7.36994
    R6        3.56647   0.00053   0.00458   0.00208   0.00666   3.57313
    R7        1.82429  -0.00004   0.00003  -0.00009  -0.00007   1.82422
    R8        1.82212   0.00004  -0.00004   0.00010   0.00006   1.82218
    R9        1.86173  -0.00065   0.00134  -0.00290  -0.00156   1.86018
   R10        1.82549  -0.00002  -0.00000  -0.00003  -0.00003   1.82546
   R11        3.33253   0.00065   0.00604   0.00170   0.00775   3.34027
   R12        3.10402   0.00024   0.00023   0.00050   0.00073   3.10475
   R13        3.17890   0.00009   0.00051  -0.00054  -0.00003   3.17886
   R14        3.11098  -0.00002  -0.00026   0.00005  -0.00021   3.11077
   R15        3.08623   0.00017  -0.00066   0.00058  -0.00008   3.08615
   R16        1.82081   0.00002  -0.00003   0.00005   0.00003   1.82083
   R17        1.82536  -0.00011   0.00007  -0.00026  -0.00019   1.82517
   R18        1.83910  -0.00002   0.00008  -0.00007   0.00001   1.83911
   R19        1.84078  -0.00026   0.00076  -0.00163  -0.00086   1.83992
    A1        1.86840   0.00014  -0.00107   0.00060  -0.00047   1.86794
    A2        2.00309  -0.00025   0.00071  -0.00022   0.00048   2.00356
    A3        1.80190  -0.00003   0.00022  -0.00049  -0.00027   1.80163
    A4        1.91077   0.00019   0.00016   0.00003   0.00020   1.91097
    A5        1.97956  -0.00002  -0.00079   0.00037  -0.00042   1.97914
    A6        1.90028  -0.00005   0.00073  -0.00029   0.00044   1.90072
    A7        1.94020   0.00008  -0.00045  -0.00058  -0.00103   1.93916
    A8        2.03695  -0.00006  -0.00012  -0.00041  -0.00053   2.03642
    A9        2.01166  -0.00007   0.00021   0.00073   0.00094   2.01260
   A10        2.04120   0.00005  -0.00018   0.00046   0.00029   2.04149
   A11        2.07306   0.00021  -0.00014   0.00106   0.00092   2.07398
   A12        2.01900  -0.00014  -0.00010  -0.00093  -0.00103   2.01796
   A13        1.85954   0.00014  -0.00143   0.00080  -0.00063   1.85891
   A14        1.87885  -0.00001  -0.00044   0.00051   0.00007   1.87892
   A15        1.94296   0.00019  -0.00008   0.00012   0.00004   1.94301
   A16        1.92578   0.00000   0.00054  -0.00056  -0.00002   1.92576
   A17        1.86176  -0.00026   0.00045  -0.00022   0.00022   1.86199
   A18        1.99097  -0.00005   0.00084  -0.00059   0.00025   1.99122
   A19        2.03662   0.00002  -0.00007   0.00014   0.00007   2.03669
   A20        2.00534   0.00014  -0.00098  -0.00116  -0.00214   2.00320
   A21        1.97540   0.00020   0.00100   0.00101   0.00201   1.97741
   A22        2.00194  -0.00029  -0.00005  -0.00134  -0.00139   2.00055
   A23        2.02607   0.00012   0.00031   0.00067   0.00097   2.02704
   A24        2.09456   0.00022  -0.00008   0.00124   0.00116   2.09572
   A25        2.95507   0.00010  -0.00009   0.00008  -0.00000   2.95507
   A26        2.89355   0.00006   0.00015  -0.00029  -0.00015   2.89341
   A27        3.26777  -0.00037   0.00263  -0.00058   0.00204   3.26981
   A28        3.09097   0.00036  -0.00278  -0.00086  -0.00363   3.08734
    D1        3.13474  -0.00010   0.00003  -0.00004  -0.00001   3.13472
    D2        0.77863  -0.00002   0.00033  -0.00010   0.00023   0.77886
    D3        1.01046  -0.00029   0.00014  -0.00038  -0.00024   1.01022
    D4       -1.34565  -0.00021   0.00044  -0.00043   0.00001  -1.34564
    D5       -1.05489  -0.00008  -0.00124   0.00041  -0.00084  -1.05573
    D6        2.87219  -0.00000  -0.00094   0.00035  -0.00060   2.87160
    D7       -2.64887   0.00006  -0.00012   0.00010  -0.00002  -2.64890
    D8       -0.46754  -0.00005   0.00016   0.00023   0.00038  -0.46715
    D9        1.65859   0.00002   0.00067   0.00013   0.00080   1.65940
   D10       -0.92495   0.00016  -0.00012   0.00062   0.00050  -0.92444
   D11       -3.02599   0.00001   0.00066  -0.00003   0.00063  -3.02536
   D12        1.08411  -0.00005   0.00105  -0.00032   0.00074   1.08485
   D13       -1.02774  -0.00017   0.00088  -0.00095  -0.00007  -1.02781
   D14        0.98779  -0.00004  -0.00062  -0.00036  -0.00098   0.98681
   D15        3.11976   0.00016  -0.00041  -0.00028  -0.00069   3.11907
   D16        0.03286  -0.00007   0.00123  -0.00160  -0.00037   0.03249
   D17        2.35438  -0.00016   0.00121  -0.00205  -0.00085   2.35353
   D18       -0.15678  -0.00009   0.00085  -0.00217  -0.00132  -0.15810
   D19       -2.47522  -0.00010   0.00168  -0.00014   0.00154  -2.47368
[...]
 ---------------------------------------------------------------------
 Center     Atomic      Atomic             Coordinates (Angstroms)
 Number     Number       Type             X           Y           Z
 ---------------------------------------------------------------------
      1         14           0       -1.972755    0.029374    0.024434
      2          8           0       -1.508400   -1.036200   -1.170199
      3          8           0       -3.616630    0.075358    0.017788
      4          8           0       -1.389901    1.535481   -0.141390
      5          8           0       -1.335271   -0.645488    1.407543
      6          1           0       -1.632997   -1.541692    1.610827
      7          1           0       -0.422372    1.662384   -0.262043
      8          1           0       -4.032627    0.893741    0.312690
      9         14           0        1.926443   -0.031027   -0.026927
     10          8           0        3.564916    0.067697   -0.100674
     11          8           0        1.340283    1.503930   -0.385659
     12          8           0        1.521501   -0.456061    1.510651
     13          8           0        1.340060   -1.038386   -1.171266
     14          1           0        0.380810   -1.175555   -1.259120
     15          1           0        0.570535   -0.546917    1.696316
     16          1           0        4.060585   -0.556905    0.440264
     17          1           0        1.826918    2.226649    0.031074
     18          1           0       -1.965896   -0.963982   -2.017138
 ---------------------------------------------------------------------
                    Distance matrix (angstroms):
                    1          2          3          4          5
     1  Si   0.000000
     2  O    1.666800   0.000000
     3  O    1.644532   2.662989   0.000000
     4  O    1.623444   2.772370   2.667512   0.000000
     5  O    1.665778   2.612927   2.766882   2.675594   0.000000
     6  H    2.258391   2.829338   3.014535   3.549416   0.965995
     7  H    2.269907   3.047387   3.577743   0.983247   2.991184
     8  H    2.252397   3.506473   0.964246   2.757175   3.292971
     9  Si   3.900004   3.757072   5.544274   3.669494   3.615805
    10  O    5.539217   5.301039   7.182527   5.167810   5.176407
    11  O    3.649481   3.896506   5.174416   2.741272   3.872230
    12  O    3.828095   4.087031   5.376936   3.895092   2.864902
    13  O    3.680292   2.848461   5.217571   3.890774   3.736579
    14  H    2.939155   1.896428   4.378904   3.425559   3.215120
    15  H    3.097681   3.574673   4.553794   3.399538   1.930079
    16  H    6.076004   5.816951   7.714783   5.867214   5.482585
    17  H    4.389257   4.818048   5.853243   3.294751   4.488127
    18  H    2.270422   0.965309   2.818878   3.177658   3.496794
                    6          7          8          9         10
     6  H    0.000000
     7  H    3.903763   0.000000
     8  H    3.657146   3.735649   0.000000
     9  Si   4.199280   2.905142   6.039954   0.000000
    10  O    5.704180   4.297387   7.653488   1.643101   0.000000
    11  O    4.701294   1.774075   5.452356   1.681774   2.663263
    12  O    3.337587   3.377706   5.839984   1.645836   2.654474
    13  O    4.102733   3.350673   5.899237   1.633441   2.705471
    14  H    3.525062   3.113385   5.121620   2.284125   3.609183
    15  H    2.419182   3.114811   5.017870   2.252597   3.545876
    16  H    5.895498   5.051275   8.223182   2.247082   0.963550
    17  H    5.354160   2.337438   6.015831   2.260613   2.774719
    18  H    3.688725   3.515768   3.626376   4.470083   5.943658
                   11         12         13         14         15
    11  O    0.000000
    12  O    2.733203   0.000000
    13  O    2.660929   2.750400   0.000000
    14  H    2.977106   3.080662   0.972982   0.000000
    15  H    3.022103   0.973171   3.009441   3.027505   0.000000
    16  H    3.511300   2.757326   3.198454   4.100168   3.709206
    17  H    0.965817   3.078857   3.513275   3.915459   3.470475
    18  H    4.436567   4.986503   3.413265   2.475153   4.516322
                   16         17         18
    16  H    0.000000
    17  H    3.592336   0.000000
    18  H    6.520967   5.362903   0.000000
 Stoichiometry    H8O8Si2
 Framework group  C1[X(H8O8Si2)]
 Deg. of freedom    48
 Full point group                 C1      NOp   1
 Largest Abelian subgroup         C1      NOp   1
 Largest concise Abelian subgroup C1      NOp   1
                         Standard orientation:                         
 ---------------------------------------------------------------------
 Center     Atomic      Atomic             Coordinates (Angstroms)
 Number     Number       Type             X           Y           Z
 ---------------------------------------------------------------------
      1         14           0       -1.947354    0.034028    0.022933
      2          8           0       -1.486171   -1.013054   -1.189154
      3          8           0       -3.591100    0.084561    0.017505
      4          8           0       -1.360461    1.541070   -0.118320
      5          8           0       -1.311374   -0.665162    1.394604
      6          1           0       -1.611479   -1.563772    1.583238
      7          1           0       -0.392619    1.667318   -0.237146
      8          1           0       -4.004808    0.899117    0.325912
      9         14           0        1.951653   -0.036072   -0.030508
     10          8           0        3.590371    0.059415   -0.103086
     11          8           0        1.369571    1.506144   -0.363842
     12          8           0        1.545925   -0.485182    1.500002
     13          8           0        1.362272   -1.022928   -1.191057
     14          1           0        0.402633   -1.156042   -1.280880
     15          1           0        0.594761   -0.576498    1.684419
     16          1           0        4.084473   -0.575317    0.427391
     17          1           0        1.858261    2.220609    0.064557
     18          1           0       -1.943670   -0.925710   -2.034665
 ---------------------------------------------------------------------
 Rotational constants (GHZ):           1.9516554           0.5127996           0.5097263

 **********************************************************************

            Population analysis using the SCF Density.

 **********************************************************************

 Orbital symmetries:
       Occupied  (A) (A) (A) (A) (A) (A) (A) (A) (A) (A) (A) (A)
                 (A) (A) (A) (A) (A) (A) (A) (A) (A) (A) (A) (A)
                 (A) (A) (A) (A) (A) (A) (A) (A) (A) (A) (A) (A)
                 (A) (A) (A) (A) (A) (A) (A) (A) (A) (A) (A) (A)
                 (A) (A)
       Virtual   (A) (A) (A) (A) (A) (A) (A) (A) (A) (A) (A) (A)
                 (A) (A) (A) (A) (A) (A) (A) (A) (A) (A) (A) (A)
                 (A) (A) (A) (A) (A) (A) (A) (A) (A) (A) (A) (A)
                 (A) (A) (A) (A) (A) (A) (A) (A) (A) (A) (A) (A)
                 (A) (A) (A) (A) (A) (A) (A) (A) (A) (A) (A) (A)
                 (A) (A) (A) (A) (A) (A) (A) (A) (A) (A) (A) (A)
                 (A) (A) (A) (A) (A) (A) (A) (A) (A) (A) (A) (A)
                 (A) (A) (A) (A) (A) (A) (A) (A) (A) (A) (A) (A)
                 (A) (A) (A) (A) (A) (A) (A) (A) (A) (A) (A) (A)
                 (A) (A) (A) (A) (A) (A) (A) (A) (A) (A) (A) (A)
                 (A) (A) (A) (A) (A) (A) (A) (A) (A) (A) (A) (A)
                 (A) (A) (A) (A) (A) (A) (A) (A) (A) (A) (A) (A)
                 (A) (A) (A) (A) (A) (A) (A) (A) (A) (A) (A) (A)
                 (A) (A) (A) (A) (A) (A) (A) (A) (A) (A) (A) (A)
                 (A) (A) (A) (A) (A) (A) (A) (A) (A) (A) (A) (A)
                 (A) (A) (A) (A) (A) (A) (A) (A)
 The electronic state is 1-A.
 Alpha  occ. eigenvalues --  -66.23786 -66.21680 -19.19475 -19.19414 -19.18499
 Alpha  occ. eigenvalues --  -19.18021 -19.16607 -19.16577 -19.15285 -19.15152
 Alpha  occ. eigenvalues --   -5.37138  -5.35014  -3.73138  -3.73128  -3.73075
 Alpha  occ. eigenvalues --   -3.71049  -3.70982  -3.70940  -1.06523  -1.04328
 Alpha  occ. eigenvalues --   -1.03216  -1.02828  -1.01554  -1.00589  -0.99888
 Alpha  occ. eigenvalues --   -0.99168  -0.61588  -0.59549  -0.55780  -0.55559
 Alpha  occ. eigenvalues --   -0.54245  -0.52922  -0.52547  -0.51741  -0.43298
 Alpha  occ. eigenvalues --   -0.42630  -0.41158  -0.40176  -0.39727  -0.38810
 Alpha  occ. eigenvalues --   -0.37897  -0.37739  -0.37244  -0.35878  -0.35136
 Alpha  occ. eigenvalues --   -0.34684  -0.34111  -0.33777  -0.33300  -0.31021
 Alpha virt. eigenvalues --   -0.03686  -0.00887   0.00518   0.00762   0.02022
 Alpha virt. eigenvalues --    0.04549   0.05394   0.06534   0.09214   0.09371
 Alpha virt. eigenvalues --    0.10083   0.11080   0.12416   0.13309   0.13556
 Alpha virt. eigenvalues --    0.14667   0.14886   0.14977   0.15138   0.15535
 Alpha virt. eigenvalues --    0.16265   0.16412   0.17038   0.17649   0.18194
 Alpha virt. eigenvalues --    0.19086   0.19443   0.21088   0.21115   0.21664
 Alpha virt. eigenvalues --    0.22100   0.22839   0.23136   0.23696   0.24343
 Alpha virt. eigenvalues --    0.25477   0.25594   0.26235   0.27360   0.27973
 Alpha virt. eigenvalues --    0.28285   0.28892   0.29514   0.30209   0.30365
 Alpha virt. eigenvalues --    0.31563   0.33006   0.34199   0.35775   0.37239
 Alpha virt. eigenvalues --    0.37937   0.38927   0.40857   0.41646   0.43938
 Alpha virt. eigenvalues --    0.45746   0.46097   0.47147   0.49862   0.50770
 Alpha virt. eigenvalues --    0.52365   0.58455   0.61410   0.62686   0.63067
 Alpha virt. eigenvalues --    0.63945   0.65314   0.79331   0.92175   0.92703
 Alpha virt. eigenvalues --    0.94462   0.96482   0.97130   0.98073   0.99564
 Alpha virt. eigenvalues --    1.00275   1.01357   1.01778   1.03354   1.11793
 Alpha virt. eigenvalues --    1.12698   1.13835   1.15297   1.16208   1.16320
 Alpha virt. eigenvalues --    1.17865   1.18156   1.18483   1.19687   1.20661
 Alpha virt. eigenvalues --    1.21197   1.21796   1.23125   1.24159   1.24424
 Alpha virt. eigenvalues --    1.25714   1.26615   1.28004   1.29392   1.30364
 Alpha virt. eigenvalues --    1.31036   1.31904   1.33823   1.35698   1.36437
 Alpha virt. eigenvalues --    1.38222   1.49880   1.50784   1.54025   1.55451
 Alpha virt. eigenvalues --    1.56497   1.57041   1.58143   1.59171   1.60065
 Alpha virt. eigenvalues --    1.62370   1.62591   1.63739   1.66300   1.68135
 Alpha virt. eigenvalues --    1.69250   1.72142   1.72711   1.73693   1.76552
 Alpha virt. eigenvalues --    1.78040   1.80316   1.83429   1.85332   1.89002
 Alpha virt. eigenvalues --    1.91084   1.91263   1.98477   2.01221   2.02653
 Alpha virt. eigenvalues --    2.04388   2.10158   2.11368   2.34605   2.36313
 Alpha virt. eigenvalues --    2.37810   2.38620   2.39841   2.44658   2.46052
 Alpha virt. eigenvalues --    2.48325   2.49836   2.52777   2.57006   2.58820
 Alpha virt. eigenvalues --    2.59227   2.59768   2.61915   2.62150   2.62484
 Alpha virt. eigenvalues --    2.64033   2.64186   2.66138   2.67030   2.67743
 Alpha virt. eigenvalues --    2.68798   2.69943   2.71309   2.74111   2.76346
 Alpha virt. eigenvalues --    2.77816   2.79286   2.84460   2.85610   2.86546
 Alpha virt. eigenvalues --    3.00338   3.03412   3.40749   3.42333   3.43232
 Alpha virt. eigenvalues --    3.43433   3.44433   3.57099   3.57826   3.61151
 Alpha virt. eigenvalues --    4.16383   4.20158   4.25592   4.27579   4.30429
 Alpha virt. eigenvalues --    4.31457   4.36913   4.44892
          Condensed to atoms (all electrons):
               1          2          3          4          5          6
     1  Si  11.748086  -0.060129   0.026371   0.100126  -0.086961   0.043963
     2  O   -0.060129   8.725014  -0.020731   0.043920   0.112527  -0.009153
     3  O    0.026371  -0.020731   8.666628  -0.047346  -0.071419  -0.002140
     4  O    0.100126   0.043920  -0.047346   8.561030   0.092608   0.005656
     5  O   -0.086961   0.112527  -0.071419   0.092608   8.681902   0.238940
     6  H    0.043963  -0.009153  -0.002140   0.005656   0.238940   0.350299
     7  H    0.024539  -0.003873   0.007103   0.229358  -0.003972  -0.000039
     8  H    0.033999   0.004072   0.235117  -0.001050  -0.003449   0.000028
     9  Si  -0.153328   0.083578  -0.011087   0.066956   0.103232  -0.004087
    10  O   -0.007820   0.003000  -0.000273   0.003941   0.003735  -0.000020
    11  O    0.088913  -0.031156   0.004039  -0.069902  -0.031394   0.000370
    12  O    0.040501  -0.027952   0.003095  -0.022002  -0.041696   0.000643
    13  O    0.085107  -0.052584   0.004973  -0.039572  -0.044104   0.000346
    14  H    0.008068   0.006684  -0.000015   0.000831  -0.000779   0.000010
    15  H   -0.002418   0.001663   0.000095   0.001379   0.009490  -0.001344
    16  H    0.000365  -0.000013   0.000000  -0.000009  -0.000032  -0.000000
    17  H   -0.003436   0.000308  -0.000046   0.003294   0.000420  -0.000001
    18  H    0.025646   0.241847  -0.000032  -0.007378   0.004943   0.000045
               7          8          9         10         11         12
     1  Si   0.024539   0.033999  -0.153328  -0.007820   0.088913   0.040501
     2  O   -0.003873   0.004072   0.083578   0.003000  -0.031156  -0.027952
     3  O    0.007103   0.235117  -0.011087  -0.000273   0.004039   0.003095
     4  O    0.229358  -0.001050   0.066956   0.003941  -0.069902  -0.022002
     5  O   -0.003972  -0.003449   0.103232   0.003735  -0.031394  -0.041696
     6  H   -0.000039   0.000028  -0.004087  -0.000020   0.000370   0.000643
     7  H    0.274884   0.000030   0.005753  -0.000109   0.017358   0.001517
     8  H    0.000030   0.352154   0.000170   0.000000  -0.000003  -0.000007
     9  Si   0.005753   0.000170  11.720500   0.023428  -0.125630   0.088355
    10  O   -0.000109   0.000000   0.023428   8.626657  -0.006597  -0.022497
    11  O    0.017358  -0.000003  -0.125630  -0.006597   8.773041   0.085345
    12  O    0.001517  -0.000007   0.088355  -0.022497   0.085345   8.545991
    13  O   -0.000119  -0.000003  -0.003694  -0.041541   0.101470   0.051283
    14  H   -0.000073  -0.000001   0.030944   0.005382  -0.002346  -0.005860
    15  H    0.000017  -0.000002   0.032840   0.008855  -0.007362   0.232675
    16  H   -0.000003  -0.000000   0.035790   0.235911   0.003093  -0.001884
    17  H   -0.002671  -0.000000   0.031867   0.004303   0.236795  -0.011359
    18  H    0.000160   0.000051  -0.002316  -0.000006   0.000195   0.000060
              13         14         15         16         17         18
     1  Si   0.085107   0.008068  -0.002418   0.000365  -0.003436   0.025646
     2  O   -0.052584   0.006684   0.001663  -0.000013   0.000308   0.241847
     3  O    0.004973  -0.000015   0.000095   0.000000  -0.000046  -0.000032
     4  O   -0.039572   0.000831   0.001379  -0.000009   0.003294  -0.007378
     5  O   -0.044104  -0.000779   0.009490  -0.000032   0.000420   0.004943
     6  H    0.000346   0.000010  -0.001344  -0.000000  -0.000001   0.000045
     7  H   -0.000119  -0.000073   0.000017  -0.000003  -0.002671   0.000160
     8  H   -0.000003  -0.000001  -0.000002  -0.000000  -0.000000   0.000051
     9  Si  -0.003694   0.030944   0.032840   0.035790   0.031867  -0.002316
    10  O   -0.041541   0.005382   0.008855   0.235911   0.004303  -0.000006
    11  O    0.101470  -0.002346  -0.007362   0.003093   0.236795   0.000195
    12  O    0.051283  -0.005860   0.232675  -0.001884  -0.011359   0.000060
    13  O    8.604485   0.231122  -0.007093  -0.004018   0.005407   0.001020
    14  H    0.231122   0.303043   0.000027  -0.000029  -0.000066  -0.000960
    15  H   -0.007093   0.000027   0.304942   0.000046   0.000190  -0.000016
    16  H   -0.004018  -0.000029   0.000046   0.359757   0.000079   0.000000
    17  H    0.005407  -0.000066   0.000190   0.000079   0.344765  -0.000001
    18  H    0.001020  -0.000960  -0.000016   0.000000  -0.000001   0.340076
 Mulliken charges:
               1
     1  Si   2.088408
     2  O   -1.017020
     3  O   -0.794333
     4  O   -0.921841
     5  O   -0.963990
     6  H    0.376485
     7  H    0.450140
     8  H    0.378895
     9  Si   2.076729
    10  O   -0.836350
    11  O   -1.036228
    12  O   -0.916209
    13  O   -0.892484
    14  H    0.424017
    15  H    0.426016
    16  H    0.370947
    17  H    0.390152
    18  H    0.396666
 Sum of Mulliken charges =  -0.00000
 Mulliken charges with hydrogens summed into heavy atoms:
               1
     1  Si   2.088408
     2  O   -0.620354
     3  O   -0.415438
     4  O   -0.471701
     5  O   -0.587505
     9  Si   2.076729
    10  O   -0.465403
    11  O   -0.646076
    12  O   -0.490192
    13  O   -0.468467
 Electronic spatial extent (au):  <R**2>=           2272.8998
 Charge=             -0.0000 electrons
 Dipole moment (field-independent basis, Debye):
    X=             -2.4717    Y=             -0.0132    Z=              0.9132  Tot=              2.6351
 Quadrupole moment (field-independent basis, Debye-Ang):
   XX=            -67.2022   YY=            -68.0422   ZZ=            -72.6200
   XY=              0.9006   XZ=              4.4311   YZ=             -0.6246
 Traceless Quadrupole moment (field-independent basis, Debye-Ang):
   XX=              2.0860   YY=              1.2459   ZZ=             -3.3319
   XY=              0.9006   XZ=              4.4311   YZ=             -0.6246
 Octapole moment (field-independent basis, Debye-Ang**2):
  XXX=             -2.8087  YYY=              5.6100  ZZZ=            -14.5040  XYY=              3.0517
  XXY=              6.3211  XXZ=             22.0647  XZZ=            -24.6824  YZZ=             -6.7568
  YYZ=             12.2968  XYZ=             -1.9431
 Hexadecapole moment (field-independent basis, Debye-Ang**3):
 XXXX=          -1852.2382 YYYY=           -339.7877 ZZZZ=           -342.5120 XXXY=           -164.1927
 XXXZ=             45.8466 YYYX=             50.3052 YYYZ=             -8.3091 ZZZX=             23.1369
 ZZZY=              3.6323 XXYY=           -343.5502 XXZZ=           -387.4849 YYZZ=           -113.9174
 XXYZ=              3.4003 YYXZ=             -3.4649 ZZXY=             24.0908
 N-N= 8.606713228343D+02 E-N=-4.530942179227D+03  KE= 1.178242540836D+03
 1\1\GINC-GRA1060\FOpt\RB3LYP\6-31+G(d,p)\H8O8Si2\SARASHS\11-Aug-2020\0
 \\#n B3LYP/6-31+G(d,p) EmpiricalDispersion=GD3 Opt=modredundant\\Title
 \\0,1\Si,-1.9727551257,0.0293744563,0.024433586\O,-1.5084003878,-1.036
 2003013,-1.170199468\O,-3.6166304587,0.0753576537,0.0177881683\O,-1.38
 99014773,1.5354807249,-0.141390114\O,-1.335271222,-0.6454881131,1.4075
 43328\H,-1.6329969514,-1.541692471,1.6108265372\H,-0.4223719252,1.6623
 84405,-0.2620429651\H,-4.0326268399,0.893740869,0.3126898432\Si,1.9264
 425832,-0.0310270541,-0.0269266536\O,3.5649158283,0.0676967249,-0.1006
 738282\O,1.3402832957,1.5039296706,-0.3856594174\O,1.521501047,-0.4560
 612034,1.510650636\O,1.3400596096,-1.0383857366,-1.171265883\H,0.38080
 95921,-1.1755552386,-1.2591198605\H,0.5705354833,-0.5469166564,1.69631
 60077\H,4.0605849449,-0.5569048243,0.440263835\H,1.8269181028,2.226648
 7244,0.0310737783\H,-1.9658960991,-0.96398163,-2.0171375298\\Version=E
 S64L-G16RevB.01\State=1-A\HF=-1186.0741633\RMSD=8.642e-09\RMSF=5.239e-
 04\Dipole=-0.9725324,-0.0019212,0.3590949\Quadrupole=1.545375,0.914080
 4,-2.4594554,0.7254214,3.2852982,-0.5108666\PG=C01 [X(H8O8Si2)]\\@


 CHINESE FORTUNE COOKIE OF JAN 1 1967 SAY....
 ALL THINGS ARE DIFFICULT BEFORE THEY ARE EASY.
 WE LEARN SO LITTLE AND FORGET SO MUCH.
 YOU WILL OVERCOME OBSTACLES TO ACHIEVE SUCCESS.
 AH SO.
 Job cpu time:       0 days  0 hours 48 minutes 20.2 seconds.
 Elapsed time:       0 days  0 hours  3 minutes  6.5 seconds.
 File lengths (MBytes):  RWF=     40 Int=      0 D2E=      0 Chk=      5 Scr=      1
 Normal termination of Gaussian 16 at Tue Aug 11 13:26:16 2020.
