 Entering Gaussian System, Link 0=g16
 Initial command:
 /opt/software/gaussian/g16.b01/l1.exe "/localscratch/sarashs.37136498.0/Gau-17250.inp" -scrdir="/localscratch/sarashs.37136498.0/"
 Entering Link 1 = /opt/software/gaussian/g16.b01/l1.exe PID=     17258.
  
 Copyright (c) 1988-2017, Gaussian, Inc.  All Rights Reserved.
  
 This is part of the Gaussian(R) 16 program.  It is based on
 the Gaussian(R) 09 system (copyright 2009, Gaussian, Inc.),
 the Gaussian(R) 03 system (copyright 2003, Gaussian, Inc.),
 the Gaussian(R) 98 system (copyright 1998, Gaussian, Inc.),
 the Gaussian(R) 94 system (copyright 1995, Gaussian, Inc.),
 the Gaussian 92(TM) system (copyright 1992, Gaussian, Inc.),
 the Gaussian 90(TM) system (copyright 1990, Gaussian, Inc.),
 the Gaussian 88(TM) system (copyright 1988, Gaussian, Inc.),
 the Gaussian 86(TM) system (copyright 1986, Carnegie Mellon
 University), and the Gaussian 82(TM) system (copyright 1983,
 Carnegie Mellon University). Gaussian is a federally registered
 trademark of Gaussian, Inc.
  
 This software contains proprietary and confidential information,
 including trade secrets, belonging to Gaussian, Inc.
  
 This software is provided under written license and may be
 used, copied, transmitted, or stored only in accord with that
 written license.
  
 The following legend is applicable only to US Government
 contracts under FAR:
  
                    RESTRICTED RIGHTS LEGEND
  
 Use, reproduction and disclosure by the US Government is
 subject to restrictions as set forth in subparagraphs (a)
 and (c) of the Commercial Computer Software - Restricted
 Rights clause in FAR 52.227-19.
  
 Gaussian, Inc.
 340 Quinnipiac St., Bldg. 40, Wallingford CT 06492
  
  
 ---------------------------------------------------------------
 Warning -- This program may not be used in any manner that
 competes with the business of Gaussian, Inc. or will provide
 assistance to any competitor of Gaussian, Inc.  The licensee
 of this program is prohibited from giving any competitor of
 Gaussian, Inc. access to this program.  By using this program,
 the user acknowledges that Gaussian, Inc. is engaged in the
 business of creating and licensing software in the field of
 computational chemistry and represents and warrants to the
 licensee that it is not a competitor of Gaussian, Inc. and that
 it will not use this program in any manner prohibited above.
 ---------------------------------------------------------------
  

 Cite this work as:
 Gaussian 16, Revision B.01,
 M. J. Frisch, G. W. Trucks, H. B. Schlegel, G. E. Scuseria, 
 M. A. Robb, J. R. Cheeseman, G. Scalmani, V. Barone, 
 G. A. Petersson, H. Nakatsuji, X. Li, M. Caricato, A. V. Marenich, 
 J. Bloino, B. G. Janesko, R. Gomperts, B. Mennucci, H. P. Hratchian, 
 J. V. Ortiz, A. F. Izmaylov, J. L. Sonnenberg, D. Williams-Young, 
 F. Ding, F. Lipparini, F. Egidi, J. Goings, B. Peng, A. Petrone, 
 T. Henderson, D. Ranasinghe, V. G. Zakrzewski, J. Gao, N. Rega, 
 G. Zheng, W. Liang, M. Hada, M. Ehara, K. Toyota, R. Fukuda, 
 J. Hasegawa, M. Ishida, T. Nakajima, Y. Honda, O. Kitao, H. Nakai, 
 T. Vreven, K. Throssell, J. A. Montgomery, Jr., J. E. Peralta, 
 F. Ogliaro, M. J. Bearpark, J. J. Heyd, E. N. Brothers, K. N. Kudin, 
 V. N. Staroverov, T. A. Keith, R. Kobayashi, J. Normand, 
 K. Raghavachari, A. P. Rendell, J. C. Burant, S. S. Iyengar, 
 J. Tomasi, M. Cossi, J. M. Millam, M. Klene, C. Adamo, R. Cammi, 
 J. W. Ochterski, R. L. Martin, K. Morokuma, O. Farkas, 
 J. B. Foresman, and D. J. Fox, Gaussian, Inc., Wallingford CT, 2016.
 
 ******************************************
 Gaussian 16:  ES64L-G16RevB.01 20-Dec-2017
                11-Aug-2020 
 ******************************************
 %NProcShared=16
 Will use up to   16 processors via shared memory.
 -------------------------------------------------------------
 #n B3LYP/6-31+G(d,p) EmpiricalDispersion=GD3 Opt=modredundant
 -------------------------------------------------------------
 1/18=120,19=15,26=3,38=1/1,3;
 2/9=110,12=2,17=6,18=5,40=1/2;
 3/5=1,6=6,7=111,11=2,25=1,30=1,71=1,74=-5,124=31/1,2,3;
 4//1;
 5/5=2,38=5/2;
 6/7=2,8=2,9=2,10=2,28=1/1;
 7//1,2,3,16;
 1/18=20,19=15,26=3/3(2);
 2/9=110/2;
 99//99;
 2/9=110/2;
 3/5=1,6=6,7=111,11=2,25=1,30=1,71=1,74=-5,124=31/1,2,3;
 4/5=5,16=3,69=1/1;
 5/5=2,38=5/2;
 7//1,2,3,16;
 1/18=20,19=15,26=3/3(-5);
 2/9=110/2;
 6/7=2,8=2,9=2,10=2,19=2,28=1/1;
 99/9=1/99;
 -----
 Title
 -----
 Symbolic Z-matrix:
 Charge =  0 Multiplicity = 1
 Si                   -1.97199   0.03198   0.02178 
 O                    -1.49839  -1.04281  -1.16096 
 O                    -3.61529   0.07731   0.01517 
 O                    -1.38578   1.53664  -0.16122 
 O                    -1.32513  -0.62357   1.41007 
 H                    -1.61852  -1.51781   1.62751 
 H                    -0.41713   1.65614  -0.27249 
 H                    -4.03179   0.8972    0.30533 
 Si                    3.12685  -0.05335  -0.04632 
 O                     4.76424   0.04647  -0.12257 
 O                     2.52566   1.48025  -0.38309 
 O                     2.71949  -0.49949   1.48606 
 O                     2.534    -1.04712  -1.20088 
 H                     1.57467  -1.19097  -1.27267 
 H                     1.76706  -0.56959   1.67212 
 H                     5.26196  -0.58318   0.41066 
 H                     2.99294   2.2024    0.05609 
 H                    -1.95012  -0.97878  -2.01163 
 
 Add virtual bond connecting atoms O11        and H7         Dist= 5.57D+00.
 Add virtual bond connecting atoms H14        and O2         Dist= 5.82D+00.
 Add virtual bond connecting atoms H15        and O5         Dist= 5.87D+00.
 The following ModRedundant input section has been read:
 B       1       9 F                                                           
 

 GradGradGradGradGradGradGradGradGradGradGradGradGradGradGradGradGradGrad
 Berny optimization.
 Initialization pass.
                           ----------------------------
                           !    Initial Parameters    !
                           ! (Angstroms and Degrees)  !
 --------------------------                            --------------------------
 ! Name  Definition              Value          Derivative Info.                !
 --------------------------------------------------------------------------------
 ! R1    R(1,2)                  1.6668         estimate D2E/DX2                !
 ! R2    R(1,3)                  1.6439         estimate D2E/DX2                !
 ! R3    R(1,4)                  1.6252         estimate D2E/DX2                !
 ! R4    R(1,5)                  1.666          estimate D2E/DX2                !
 ! R5    R(1,9)                  5.1            Frozen                          !
 ! R6    R(2,14)                 3.0787         estimate D2E/DX2                !
 ! R7    R(2,18)                 0.9653         estimate D2E/DX2                !
 ! R8    R(3,8)                  0.9643         estimate D2E/DX2                !
 ! R9    R(4,7)                  0.9823         estimate D2E/DX2                !
 ! R10   R(5,6)                  0.9659         estimate D2E/DX2                !
 ! R11   R(5,15)                 3.1037         estimate D2E/DX2                !
 ! R12   R(7,11)                 2.9501         estimate D2E/DX2                !
 ! R13   R(9,10)                 1.6422         estimate D2E/DX2                !
 ! R14   R(9,11)                 1.6813         estimate D2E/DX2                !
 ! R15   R(9,12)                 1.6472         estimate D2E/DX2                !
 ! R16   R(9,13)                 1.6346         estimate D2E/DX2                !
 ! R17   R(10,16)                0.9636         estimate D2E/DX2                !
 ! R18   R(11,17)                0.9658         estimate D2E/DX2                !
 ! R19   R(12,15)                0.973          estimate D2E/DX2                !
 ! R20   R(13,14)                0.9727         estimate D2E/DX2                !
 ! A1    A(2,1,3)              107.3944         estimate D2E/DX2                !
 ! A2    A(2,1,4)              114.4947         estimate D2E/DX2                !
 ! A3    A(2,1,5)              103.1351         estimate D2E/DX2                !
 ! A4    A(3,1,4)              109.5475         estimate D2E/DX2                !
 ! A5    A(3,1,5)              113.7235         estimate D2E/DX2                !
 ! A6    A(4,1,5)              108.5478         estimate D2E/DX2                !
 ! A7    A(1,2,14)             109.9008         estimate D2E/DX2                !
 ! A8    A(1,2,18)             116.7164         estimate D2E/DX2                !
 ! A9    A(14,2,18)            115.9977         estimate D2E/DX2                !
 ! A10   A(1,3,8)              116.9996         estimate D2E/DX2                !
 ! A11   A(1,4,7)              118.7559         estimate D2E/DX2                !
 ! A12   A(1,5,6)              115.7177         estimate D2E/DX2                !
 ! A13   A(1,5,15)             116.7656         estimate D2E/DX2                !
 ! A14   A(6,5,15)             107.4397         estimate D2E/DX2                !
 ! A15   A(10,9,11)            106.9647         estimate D2E/DX2                !
 ! A16   A(10,9,12)            107.833          estimate D2E/DX2                !
 ! A17   A(10,9,13)            111.4553         estimate D2E/DX2                !
 ! A18   A(11,9,12)            110.18           estimate D2E/DX2                !
 ! A19   A(11,9,13)            106.4618         estimate D2E/DX2                !
 ! A20   A(12,9,13)            113.7488         estimate D2E/DX2                !
 ! A21   A(9,10,16)            116.7178         estimate D2E/DX2                !
 ! A22   A(7,11,9)             113.801          estimate D2E/DX2                !
 ! A23   A(7,11,17)            114.8981         estimate D2E/DX2                !
 ! A24   A(9,11,17)            114.7056         estimate D2E/DX2                !
 ! A25   A(9,12,15)            116.0725         estimate D2E/DX2                !
 ! A26   A(9,13,14)            119.9818         estimate D2E/DX2                !
 ! A27   A(5,15,12)            163.8138         estimate D2E/DX2                !
 ! A28   L(4,7,11,2,-1)        171.7224         estimate D2E/DX2                !
 ! A29   L(2,14,13,15,-1)      171.5267         estimate D2E/DX2                !
 ! A30   L(4,7,11,2,-2)        188.245          estimate D2E/DX2                !
 ! A31   L(2,14,13,15,-2)      189.8127         estimate D2E/DX2                !
 ! D1    D(3,1,2,14)           179.2955         estimate D2E/DX2                !
 ! D2    D(3,1,2,18)            44.5394         estimate D2E/DX2                !
 ! D3    D(4,1,2,14)            57.423          estimate D2E/DX2                !
 ! D4    D(4,1,2,18)           -77.3331         estimate D2E/DX2                !
 ! D5    D(5,1,2,14)           -60.3044         estimate D2E/DX2                !
 ! D6    D(5,1,2,18)           164.9394         estimate D2E/DX2                !
 ! D7    D(2,1,3,8)           -151.7167         estimate D2E/DX2                !
 ! D8    D(4,1,3,8)            -26.8074         estimate D2E/DX2                !
 ! D9    D(5,1,3,8)             94.8432         estimate D2E/DX2                !
 ! D10   D(2,1,4,7)            -52.8688         estimate D2E/DX2                !
 ! D11   D(3,1,4,7)           -173.5574         estimate D2E/DX2                !
 ! D12   D(5,1,4,7)             61.7309         estimate D2E/DX2                !
 ! D13   D(2,1,5,6)            -59.1788         estimate D2E/DX2                !
 ! D14   D(2,1,5,15)            68.81           estimate D2E/DX2                !
 ! D15   D(3,1,5,6)             56.7888         estimate D2E/DX2                !
 ! D16   D(3,1,5,15)          -175.2223         estimate D2E/DX2                !
 ! D17   D(4,1,5,6)            178.9933         estimate D2E/DX2                !
 ! D18   D(4,1,5,15)           -53.0178         estimate D2E/DX2                !
 ! D19   D(1,2,13,9)             1.768          estimate D2E/DX2                !
 ! D20   D(18,2,13,9)          135.154          estimate D2E/DX2                !
 ! D21   D(1,4,11,9)            -8.0038         estimate D2E/DX2                !
 ! D22   D(1,4,11,17)         -141.8079         estimate D2E/DX2                !
 ! D23   D(1,5,15,12)          -15.2613         estimate D2E/DX2                !
 ! D24   D(6,5,15,12)          116.6421         estimate D2E/DX2                !
 ! D25   D(11,9,10,16)         152.8739         estimate D2E/DX2                !
 ! D26   D(12,9,10,16)          34.3839         estimate D2E/DX2                !
 ! D27   D(13,9,10,16)         -91.1359         estimate D2E/DX2                !
 ! D28   D(10,9,11,7)         -178.8407         estimate D2E/DX2                !
 ! D29   D(10,9,11,17)         -43.6526         estimate D2E/DX2                !
 ! D30   D(12,9,11,7)          -61.8893         estimate D2E/DX2                !
 ! D31   D(12,9,11,17)          73.2988         estimate D2E/DX2                !
 ! D32   D(13,9,11,7)           61.8909         estimate D2E/DX2                !
 ! D33   D(13,9,11,17)        -162.921          estimate D2E/DX2                !
 ! D34   D(10,9,12,15)         178.2703         estimate D2E/DX2                !
 ! D35   D(11,9,12,15)          61.8604         estimate D2E/DX2                !
 ! D36   D(13,9,12,15)         -57.5821         estimate D2E/DX2                !
 ! D37   D(10,9,13,14)        -179.5271         estimate D2E/DX2                !
 ! D38   D(11,9,13,14)         -63.2293         estimate D2E/DX2                !
 ! D39   D(12,9,13,14)          58.3048         estimate D2E/DX2                !
 ! D40   D(9,12,15,5)            4.7471         estimate D2E/DX2                !
 --------------------------------------------------------------------------------
 Trust Radius=3.00D-01 FncErr=1.00D-07 GrdErr=1.00D-06 EigMax=2.50D+02 EigMin=1.00D-04
 Number of steps in this run=    101 maximum allowed number of steps=    108.
 GradGradGradGradGradGradGradGradGradGradGradGradGradGradGradGradGradGrad

                          Input orientation:                          
 ---------------------------------------------------------------------
 Center     Atomic      Atomic             Coordinates (Angstroms)
 Number     Number       Type             X           Y           Z
 ---------------------------------------------------------------------
      1         14           0       -1.971990    0.031980    0.021780
      2          8           0       -1.498390   -1.042810   -1.160960
      3          8           0       -3.615290    0.077310    0.015170
      4          8           0       -1.385780    1.536640   -0.161220
      5          8           0       -1.325130   -0.623570    1.410070
      6          1           0       -1.618520   -1.517810    1.627510
      7          1           0       -0.417130    1.656140   -0.272490
      8          1           0       -4.031790    0.897200    0.305330
      9         14           0        3.126850   -0.053350   -0.046320
     10          8           0        4.764240    0.046470   -0.122570
     11          8           0        2.525660    1.480250   -0.383090
     12          8           0        2.719490   -0.499490    1.486060
     13          8           0        2.534000   -1.047120   -1.200880
     14          1           0        1.574670   -1.190970   -1.272670
     15          1           0        1.767060   -0.569590    1.672120
     16          1           0        5.261960   -0.583180    0.410660
     17          1           0        2.992940    2.202400    0.056090
     18          1           0       -1.950120   -0.978780   -2.011630
 ---------------------------------------------------------------------
                    Distance matrix (angstroms):
                    1          2          3          4          5
     1  Si   0.000000
     2  O    1.666837   0.000000
     3  O    1.643938   2.668186   0.000000
     4  O    1.625156   2.768704   2.670482   0.000000
     5  O    1.665990   2.610743   2.771608   2.671917   0.000000
     6  H    2.259460   2.831187   3.021777   3.547307   0.965931
     7  H    2.267616   3.040203   3.578223   0.982316   2.975323
     8  H    2.252062   3.511661   0.964305   2.761869   3.295330
     9  Si   5.100009   4.859455   6.743686   4.785927   4.718723
    10  O    6.737792   6.440910   8.380719   6.328100   6.314932
    11  O    4.742390   4.812888   6.311744   3.918133   4.740260
    12  O    4.943335   5.009234   6.528832   4.869558   4.047236
    13  O    4.792004   4.032590   6.368429   4.808470   4.678604
    14  H    3.968628   3.078657   5.495703   4.176056   3.990974
    15  H    4.131102   4.348959   5.668655   4.211620   3.103743
    16  H    7.270466   6.955831   8.910568   7.000938   6.662598
    17  H    5.418711   5.673151   6.941641   4.434371   5.335269
    18  H    2.270874   0.965298   2.827726   3.173300   3.496401
                    6          7          8          9         10
     6  H    0.000000
     7  H    3.889383   0.000000
     8  H    3.661189   3.738400   0.000000
     9  Si   5.240695   3.941231   7.230030   0.000000
    10  O    6.800689   5.427717   8.847428   1.642201   0.000000
    11  O    5.495917   2.950116   6.619216   1.681301   2.671111
    12  O    4.458174   4.192568   6.994616   1.647171   2.658339
    13  O    5.046262   4.108368   7.011323   1.634643   2.707889
    14  H    4.326006   3.615752   6.187320   2.281968   3.609341
    15  H    3.516143   3.675060   6.135654   2.251348   3.547327
    16  H    7.049487   6.142745   9.411504   2.246830   0.963597
    17  H    6.129836   3.469141   7.149301   2.262041   2.795972
    18  H    3.693758   3.509625   3.636063   5.522181   7.049987
                   11         12         13         14         15
    11  O    0.000000
    12  O    2.729590   0.000000
    13  O    2.656398   2.748445   0.000000
    14  H    2.971725   3.065836   0.972708   0.000000
    15  H    3.000201   0.972962   3.011704   3.015778   0.000000
    16  H    3.517829   2.761819   3.202197   4.098672   3.715615
    17  H    0.965780   3.069169   3.514254   3.910505   3.434860
    18  H    5.360184   5.853957   4.557337   3.607663   5.249274
                   16         17         18
    16  H    0.000000
    17  H    3.610212   0.000000
    18  H    7.618273   6.231309   0.000000
 Stoichiometry    H8O8Si2
 Framework group  C1[X(H8O8Si2)]
 Deg. of freedom    48
 Full point group                 C1      NOp   1
 Largest Abelian subgroup         C1      NOp   1
 Largest concise Abelian subgroup C1      NOp   1
                         Standard orientation:                         
 ---------------------------------------------------------------------
 Center     Atomic      Atomic             Coordinates (Angstroms)
 Number     Number       Type             X           Y           Z
 ---------------------------------------------------------------------
      1         14           0       -2.547214    0.031633    0.018204
      2          8           0       -2.064210   -1.044969   -1.159073
      3          8           0       -4.190635    0.070450    0.004274
      4          8           0       -1.966136    1.538018   -0.166961
      5          8           0       -1.903865   -0.617014    1.411359
      6          1           0       -2.194682   -1.511722    1.630325
      7          1           0       -0.997486    1.660995   -0.274374
      8          1           0       -4.611626    0.889591    0.290034
      9         14           0        2.552172   -0.033766   -0.027356
     10          8           0        4.189475    0.072283   -0.096766
     11          8           0        1.946430    1.496387   -0.371566
     12          8           0        2.139863   -0.476720    1.504625
     13          8           0        1.968302   -1.033474   -1.181366
     14          1           0        1.009869   -1.181336   -1.256893
     15          1           0        1.186911   -0.550000    1.686742
     16          1           0        4.687329   -0.553726    0.440609
     17          1           0        2.408936    2.221747    0.067379
     18          1           0       -2.512458   -0.985383   -2.011905
 ---------------------------------------------------------------------
 Rotational constants (GHZ):           1.9566520           0.3370259           0.3357423
 Standard basis: 6-31+G(d,p) (6D, 7F)
 There are   238 symmetry adapted cartesian basis functions of A   symmetry.
 There are   238 symmetry adapted basis functions of A   symmetry.
   238 basis functions,   424 primitive gaussians,   238 cartesian basis functions
    50 alpha electrons       50 beta electrons
       nuclear repulsion energy       788.6205712759 Hartrees.
 NAtoms=   18 NActive=   18 NUniq=   18 SFac= 1.00D+00 NAtFMM=   60 NAOKFM=F Big=F
 Integral buffers will be    131072 words long.
 Raffenetti 2 integral format.
 Two-electron integral symmetry is turned on.
 Nuclear repulsion after empirical dispersion term =      788.6091644342 Hartrees.
 One-electron integrals computed using PRISM.
 NBasis=   238 RedAO= T EigKep=  3.40D-04  NBF=   238
 NBsUse=   238 1.00D-06 EigRej= -1.00D+00 NBFU=   238
 ExpMin= 3.31D-02 ExpMax= 1.61D+04 ExpMxC= 2.43D+03 IAcc=3 IRadAn=         5 AccDes= 0.00D+00
 Harris functional with IExCor=  402 and IRadAn=       5 diagonalized for initial guess.
 HarFok:  IExCor=  402 AccDes= 0.00D+00 IRadAn=         5 IDoV= 1 UseB2=F ITyADJ=14
 ICtDFT=  3500011 ScaDFX=  1.000000  1.000000  1.000000  1.000000
 FoFCou: FMM=F IPFlag=           0 FMFlag=      100000 FMFlg1=           0
         NFxFlg=           0 DoJE=T BraDBF=F KetDBF=T FulRan=T
         wScrn=  0.000000 ICntrl=       500 IOpCl=  0 I1Cent=   200000004 NGrid=           0
         NMat0=    1 NMatS0=      1 NMatT0=    0 NMatD0=    1 NMtDS0=    0 NMtDT0=    0
 Petite list used in FoFCou.
 Requested convergence on RMS density matrix=1.00D-08 within 128 cycles.
 Requested convergence on MAX density matrix=1.00D-06.
 Requested convergence on             energy=1.00D-06.
 No special actions if energy rises.
 SCF Done:  E(RB3LYP) =  -1186.05089703     A.U. after   11 cycles
            NFock= 11  Conv=0.68D-08     -V/T= 2.0068

 **********************************************************************

            Population analysis using the SCF Density.

 **********************************************************************

 Orbital symmetries:
       Occupied  (A) (A) (A) (A) (A) (A) (A) (A) (A) (A) (A) (A)
                 (A) (A) (A) (A) (A) (A) (A) (A) (A) (A) (A) (A)
                 (A) (A) (A) (A) (A) (A) (A) (A) (A) (A) (A) (A)
                 (A) (A) (A) (A) (A) (A) (A) (A) (A) (A) (A) (A)
                 (A) (A)
       Virtual   (A) (A) (A) (A) (A) (A) (A) (A) (A) (A) (A) (A)
                 (A) (A) (A) (A) (A) (A) (A) (A) (A) (A) (A) (A)
                 (A) (A) (A) (A) (A) (A) (A) (A) (A) (A) (A) (A)
                 (A) (A) (A) (A) (A) (A) (A) (A) (A) (A) (A) (A)
                 (A) (A) (A) (A) (A) (A) (A) (A) (A) (A) (A) (A)
                 (A) (A) (A) (A) (A) (A) (A) (A) (A) (A) (A) (A)
                 (A) (A) (A) (A) (A) (A) (A) (A) (A) (A) (A) (A)
                 (A) (A) (A) (A) (A) (A) (A) (A) (A) (A) (A) (A)
                 (A) (A) (A) (A) (A) (A) (A) (A) (A) (A) (A) (A)
                 (A) (A) (A) (A) (A) (A) (A) (A) (A) (A) (A) (A)
                 (A) (A) (A) (A) (A) (A) (A) (A) (A) (A) (A) (A)
                 (A) (A) (A) (A) (A) (A) (A) (A) (A) (A) (A) (A)
                 (A) (A) (A) (A) (A) (A) (A) (A) (A) (A) (A) (A)
                 (A) (A) (A) (A) (A) (A) (A) (A) (A) (A) (A) (A)
                 (A) (A) (A) (A) (A) (A) (A) (A) (A) (A) (A) (A)
                 (A) (A) (A) (A) (A) (A) (A) (A)
 The electronic state is 1-A.
 Alpha  occ. eigenvalues --  -66.23181 -66.22096 -19.18235 -19.18173 -19.17840
 Alpha  occ. eigenvalues --  -19.17701 -19.17038 -19.16928 -19.16742 -19.16537
 Alpha  occ. eigenvalues --   -5.36537  -5.35435  -3.72535  -3.72524  -3.72479
 Alpha  occ. eigenvalues --   -3.71441  -3.71412  -3.71380  -1.05564  -1.04417
 Alpha  occ. eigenvalues --   -1.02043  -1.01811  -1.01282  -1.00956  -1.00629
 Alpha  occ. eigenvalues --   -1.00137  -0.60830  -0.59856  -0.55008  -0.54597
 Alpha  occ. eigenvalues --   -0.53618  -0.52750  -0.52636  -0.52243  -0.42099
 Alpha  occ. eigenvalues --   -0.41470  -0.40254  -0.39545  -0.39373  -0.38809
 Alpha  occ. eigenvalues --   -0.38259  -0.37035  -0.36598  -0.36305  -0.35533
 Alpha  occ. eigenvalues --   -0.34395  -0.33891  -0.33847  -0.33668  -0.31652
 Alpha virt. eigenvalues --   -0.04243  -0.01546   0.00443   0.00698   0.01449
 Alpha virt. eigenvalues --    0.02926   0.04216   0.04696   0.08295   0.08877
 Alpha virt. eigenvalues --    0.09643   0.10843   0.11399   0.11863   0.12657
 Alpha virt. eigenvalues --    0.13585   0.14253   0.14599   0.14857   0.14977
 Alpha virt. eigenvalues --    0.15547   0.16179   0.16527   0.17072   0.17395
 Alpha virt. eigenvalues --    0.17731   0.18736   0.19353   0.19765   0.20031
 Alpha virt. eigenvalues --    0.20182   0.20900   0.21211   0.21857   0.23532
 Alpha virt. eigenvalues --    0.24072   0.24756   0.25621   0.25890   0.26227
 Alpha virt. eigenvalues --    0.26779   0.27144   0.27320   0.27983   0.28686
 Alpha virt. eigenvalues --    0.30038   0.31664   0.32264   0.34183   0.35209
 Alpha virt. eigenvalues --    0.35455   0.35728   0.39031   0.39906   0.41310
 Alpha virt. eigenvalues --    0.41455   0.44282   0.45000   0.45724   0.47164
 Alpha virt. eigenvalues --    0.48364   0.54951   0.59079   0.61049   0.61837
 Alpha virt. eigenvalues --    0.63060   0.64105   0.66660   0.92712   0.93332
 Alpha virt. eigenvalues --    0.93596   0.95160   0.95832   0.97724   0.98310
 Alpha virt. eigenvalues --    0.99274   0.99526   1.00785   1.01490   1.05192
 Alpha virt. eigenvalues --    1.06677   1.08073   1.15091   1.15603   1.16125
 Alpha virt. eigenvalues --    1.16671   1.17210   1.18319   1.18762   1.19041
 Alpha virt. eigenvalues --    1.19504   1.20799   1.21383   1.22391   1.22712
 Alpha virt. eigenvalues --    1.23384   1.23963   1.26194   1.27047   1.27702
 Alpha virt. eigenvalues --    1.28282   1.29636   1.30309   1.31395   1.32005
 Alpha virt. eigenvalues --    1.34796   1.46230   1.47256   1.51024   1.52088
 Alpha virt. eigenvalues --    1.53645   1.55370   1.55855   1.56242   1.56926
 Alpha virt. eigenvalues --    1.59431   1.60877   1.61973   1.63243   1.63640
 Alpha virt. eigenvalues --    1.65670   1.67599   1.69550   1.71232   1.73306
 Alpha virt. eigenvalues --    1.74251   1.74717   1.76750   1.83668   1.85289
 Alpha virt. eigenvalues --    1.88206   1.90867   1.93694   1.99766   2.01664
 Alpha virt. eigenvalues --    2.02598   2.08913   2.09036   2.33215   2.35214
 Alpha virt. eigenvalues --    2.36655   2.37185   2.38567   2.39490   2.39908
 Alpha virt. eigenvalues --    2.40470   2.44916   2.45513   2.57643   2.58654
 Alpha virt. eigenvalues --    2.59240   2.59696   2.60104   2.60711   2.61015
 Alpha virt. eigenvalues --    2.61986   2.63461   2.63736   2.65020   2.65506
 Alpha virt. eigenvalues --    2.66565   2.67872   2.68866   2.69974   2.76602
 Alpha virt. eigenvalues --    2.77615   2.79214   2.80691   2.82411   2.83311
 Alpha virt. eigenvalues --    2.99008   3.00481   3.40366   3.40702   3.41312
 Alpha virt. eigenvalues --    3.42875   3.43180   3.45847   3.47767   3.48941
 Alpha virt. eigenvalues --    4.09554   4.13717   4.14958   4.18229   4.20086
 Alpha virt. eigenvalues --    4.26099   4.27172   4.29384
          Condensed to atoms (all electrons):
               1          2          3          4          5          6
     1  Si  11.482975   0.094397   0.050911   0.161099   0.108568   0.037844
     2  O    0.094397   8.517180   0.034635  -0.010608   0.041906  -0.007467
     3  O    0.050911   0.034635   8.526399   0.030986  -0.014993  -0.006902
     4  O    0.161099  -0.010608   0.030986   8.390164   0.032359   0.006167
     5  O    0.108568   0.041906  -0.014993   0.032359   8.464316   0.240703
     6  H    0.037844  -0.007467  -0.006902   0.006167   0.240703   0.364042
     7  H    0.022620  -0.005808   0.006999   0.254171  -0.005816   0.000025
     8  H    0.029090   0.004264   0.241336  -0.002543  -0.004551   0.000083
     9  Si  -0.006261   0.004096  -0.000178  -0.001999   0.005383  -0.000647
    10  O   -0.000168   0.000138  -0.000005   0.000132   0.000197  -0.000000
    11  O    0.003918  -0.002077   0.000199  -0.003117  -0.002438   0.000030
    12  O   -0.001580  -0.001471   0.000053  -0.000129  -0.002100   0.000040
    13  O    0.000721  -0.002148   0.000103  -0.000943  -0.002449   0.000050
    14  H    0.001889   0.005078  -0.000000  -0.000154  -0.000591   0.000002
    15  H    0.000374   0.000046  -0.000006  -0.000248   0.004834  -0.000113
    16  H    0.000033  -0.000000   0.000000   0.000000  -0.000000  -0.000000
    17  H   -0.000471   0.000021  -0.000001   0.000167   0.000023  -0.000000
    18  H    0.030347   0.237931  -0.005002  -0.007253   0.005759   0.000074
               7          8          9         10         11         12
     1  Si   0.022620   0.029090  -0.006261  -0.000168   0.003918  -0.001580
     2  O   -0.005808   0.004264   0.004096   0.000138  -0.002077  -0.001471
     3  O    0.006999   0.241336  -0.000178  -0.000005   0.000199   0.000053
     4  O    0.254171  -0.002543  -0.001999   0.000132  -0.003117  -0.000129
     5  O   -0.005816  -0.004551   0.005383   0.000197  -0.002438  -0.002100
     6  H    0.000025   0.000083  -0.000647  -0.000000   0.000030   0.000040
     7  H    0.328521   0.000030   0.001527  -0.000003   0.006492   0.000009
     8  H    0.000030   0.356128   0.000018   0.000000  -0.000000  -0.000000
     9  Si   0.001527   0.000018  11.512149   0.022465   0.076358   0.149389
    10  O   -0.000003   0.000000   0.022465   8.534850   0.019384   0.045613
    11  O    0.006492  -0.000000   0.076358   0.019384   8.534642   0.024928
    12  O    0.000009  -0.000000   0.149389   0.045613   0.024928   8.416360
    13  O   -0.000468   0.000000   0.105241   0.017740   0.036465  -0.006548
    14  H    0.000029  -0.000000   0.035588   0.005339  -0.004851  -0.009429
    15  H    0.000033  -0.000000   0.030210   0.008322  -0.007901   0.248165
    16  H   -0.000000  -0.000000   0.028386   0.243517   0.003844  -0.003971
    17  H   -0.000155  -0.000000   0.033408  -0.003694   0.240214  -0.009520
    18  H    0.000146   0.000079  -0.000425  -0.000000   0.000014   0.000001
              13         14         15         16         17         18
     1  Si   0.000721   0.001889   0.000374   0.000033  -0.000471   0.030347
     2  O   -0.002148   0.005078   0.000046  -0.000000   0.000021   0.237931
     3  O    0.000103  -0.000000  -0.000006   0.000000  -0.000001  -0.005002
     4  O   -0.000943  -0.000154  -0.000248   0.000000   0.000167  -0.007253
     5  O   -0.002449  -0.000591   0.004834  -0.000000   0.000023   0.005759
     6  H    0.000050   0.000002  -0.000113  -0.000000  -0.000000   0.000074
     7  H   -0.000468   0.000029   0.000033  -0.000000  -0.000155   0.000146
     8  H    0.000000  -0.000000  -0.000000  -0.000000  -0.000000   0.000079
     9  Si   0.105241   0.035588   0.030210   0.028386   0.033408  -0.000425
    10  O    0.017740   0.005339   0.008322   0.243517  -0.003694  -0.000000
    11  O    0.036465  -0.004851  -0.007901   0.003844   0.240214   0.000014
    12  O   -0.006548  -0.009429   0.248165  -0.003971  -0.009520   0.000001
    13  O    8.444782   0.242247  -0.008862  -0.003708   0.007060   0.000082
    14  H    0.242247   0.347080   0.000205  -0.000022  -0.000030  -0.000078
    15  H   -0.008862   0.000205   0.347868   0.000044   0.000156  -0.000000
    16  H   -0.003708  -0.000022   0.000044   0.362243   0.000090   0.000000
    17  H    0.007060  -0.000030   0.000156   0.000090   0.362352  -0.000000
    18  H    0.000082  -0.000078  -0.000000   0.000000  -0.000000   0.362476
 Mulliken charges:
               1
     1  Si   1.983694
     2  O   -0.910114
     3  O   -0.864536
     4  O   -0.848251
     5  O   -0.871108
     6  H    0.366070
     7  H    0.391648
     8  H    0.376065
     9  Si   2.005292
    10  O   -0.893827
    11  O   -0.926105
    12  O   -0.849810
    13  O   -0.829365
    14  H    0.377699
    15  H    0.376874
    16  H    0.369545
    17  H    0.370378
    18  H    0.375851
 Sum of Mulliken charges =  -0.00000
 Mulliken charges with hydrogens summed into heavy atoms:
               1
     1  Si   1.983694
     2  O   -0.534263
     3  O   -0.488470
     4  O   -0.456603
     5  O   -0.505039
     9  Si   2.005292
    10  O   -0.524282
    11  O   -0.555727
    12  O   -0.472936
    13  O   -0.451667
 Electronic spatial extent (au):  <R**2>=           3227.2890
 Charge=             -0.0000 electrons
 Dipole moment (field-independent basis, Debye):
    X=             -2.2095    Y=             -0.0146    Z=              1.0187  Tot=              2.4331
 Quadrupole moment (field-independent basis, Debye-Ang):
   XX=            -67.8432   YY=            -68.4752   ZZ=            -72.8935
   XY=             -0.5480   XZ=              6.0366   YZ=             -0.4253
 Traceless Quadrupole moment (field-independent basis, Debye-Ang):
   XX=              1.8941   YY=              1.2621   ZZ=             -3.1563
   XY=             -0.5480   XZ=              6.0366   YZ=             -0.4253
 Octapole moment (field-independent basis, Debye-Ang**2):
  XXX=             -8.8499  YYY=              6.2468  ZZZ=            -13.7235  XYY=              2.9742
  XXY=              8.0004  XXZ=             28.5905  XZZ=            -26.6736  YZZ=             -7.5399
  YYZ=             12.1729  XYZ=             -0.2001
 Hexadecapole moment (field-independent basis, Debye-Ang**3):
 XXXX=          -2912.2491 YYYY=           -342.6027 ZZZZ=           -344.8220 XXXY=           -215.6667
 XXXZ=             77.1359 YYYX=             57.5437 YYYZ=             -6.5475 ZZZX=             29.8079
 ZZZY=              3.5708 XXYY=           -526.1919 XXZZ=           -584.6911 YYZZ=           -113.4718
 XXYZ=              2.8749 YYXZ=             -4.2470 ZZXY=             29.5374
 N-N= 7.886091644342D+02 E-N=-4.386815898390D+03  KE= 1.178092184497D+03
 Calling FoFJK, ICntrl=      2127 FMM=F ISym2X=0 I1Cent= 0 IOpClX= 0 NMat=1 NMatS=1 NMatT=0.
 ***** Axes restored to original set *****
 -------------------------------------------------------------------
 Center     Atomic                   Forces (Hartrees/Bohr)
 Number     Number              X              Y              Z
 -------------------------------------------------------------------
      1       14           0.006313666   -0.022664518    0.002297282
      2        8          -0.000573852    0.004511108    0.001025016
      3        8          -0.000935356    0.003951907   -0.000358171
      4        8           0.018033877    0.011096794   -0.002987751
      5        8          -0.000856004    0.003994559   -0.002860591
      6        1           0.000690885    0.001165026   -0.000716858
      7        1          -0.014027883   -0.001063631    0.002243526
      8        1          -0.000790910   -0.000278306    0.000268720
      9       14          -0.003377185    0.021272011   -0.004365998
     10        8          -0.000446962   -0.003120902    0.001225647
     11        8           0.000518973   -0.008605355    0.001462883
     12        8          -0.008869311   -0.004106888    0.004477099
     13        8          -0.009876101   -0.006061811   -0.002921200
     14        1           0.007473677    0.001322828    0.000247337
     15        1           0.006524676   -0.000114877    0.000880036
     16        1           0.000899061   -0.000300565   -0.000251083
     17        1          -0.000893347   -0.000789100   -0.000308152
     18        1           0.000192095   -0.000208281    0.000642258
 -------------------------------------------------------------------
 Cartesian Forces:  Max     0.022664518 RMS     0.006409855

 GradGradGradGradGradGradGradGradGradGradGradGradGradGradGradGradGradGrad
 Berny optimization.
 FormGI is forming the generalized inverse of G from B-inverse, IUseBI=4.
 Internal  Forces:  Max     0.014286974 RMS     0.002878369
 Search for a local minimum.
 Step number   1 out of a maximum of  101
 All quantities printed in internal units (Hartrees-Bohrs-Radians)
 Mixed Optimization -- RFO/linear search
 Second derivative matrix not updated -- first step.
 ITU=  0
     Eigenvalues ---    0.00654   0.01270   0.01515   0.01780   0.02710
     Eigenvalues ---    0.03086   0.03149   0.03333   0.03646   0.03758
     Eigenvalues ---    0.03781   0.04129   0.05403   0.05593   0.07026
     Eigenvalues ---    0.07713   0.08896   0.09576   0.10819   0.10966
     Eigenvalues ---    0.11582   0.12241   0.12725   0.12977   0.15165
     Eigenvalues ---    0.15857   0.16000   0.16000   0.16870   0.17289
     Eigenvalues ---    0.20875   0.36182   0.38236   0.39143   0.41800
     Eigenvalues ---    0.43025   0.43581   0.43853   0.44233   0.46896
     Eigenvalues ---    0.48080   0.49332   0.54217   0.54249   0.54349
     Eigenvalues ---    0.54558   0.547071000.000001000.000001000.00000
     Eigenvalues --- 1000.000001000.000001000.000001000.000001000.00000
     Eigenvalues --- 1000.000001000.000001000.000001000.000001000.00000
     Eigenvalues --- 1000.000001000.000001000.000001000.000001000.00000
     Eigenvalues --- 1000.000001000.000001000.000001000.000001000.00000
     Eigenvalues --- 1000.000001000.000001000.000001000.000001000.00000
     Eigenvalues --- 1000.000001000.000001000.000001000.000001000.00000
     Eigenvalues --- 1000.000001000.000001000.000001000.000001000.00000
     Eigenvalues --- 1000.000001000.000001000.000001000.000001000.00000
     Eigenvalues --- 1000.00000
 RFO step:  Lambda=-2.14972771D-03 EMin= 6.53942683D-03
 Linear search not attempted -- first point.
 Iteration  1 RMS(Cart)=  0.01080669 RMS(Int)=  0.00013797
 Iteration  2 RMS(Cart)=  0.00017044 RMS(Int)=  0.00007102
 Iteration  3 RMS(Cart)=  0.00000001 RMS(Int)=  0.00007102
 Iteration  1 RMS(Cart)=  0.00000076 RMS(Int)=  0.00000055
 Variable       Old X    -DE/DX   Delta X   Delta X   Delta X     New X
                                 (Linear)    (Quad)   (Total)
    R1        3.14986  -0.00415   0.00000  -0.01024  -0.01025   3.13962
    R2        3.10659   0.00183   0.00000   0.00417   0.00417   3.11077
    R3        3.07110   0.01024   0.00000   0.02211   0.02212   3.09322
    R4        3.14826  -0.00458   0.00000  -0.01136  -0.01136   3.13690
    R5        9.63762  -0.00745   0.00000   0.00000  -0.00000   9.63762
    R6        5.81782  -0.00026   0.00000   0.00469   0.00468   5.82250
    R7        1.82415  -0.00067   0.00000  -0.00123  -0.00123   1.82292
    R8        1.82227   0.00019   0.00000   0.00034   0.00034   1.82261
    R9        1.85631  -0.01429   0.00000  -0.02850  -0.02845   1.82786
   R10        1.82535  -0.00145   0.00000  -0.00266  -0.00266   1.82268
   R11        5.86522  -0.00029   0.00000   0.00004   0.00002   5.86525
   R12        5.57491   0.00003   0.00000  -0.02122  -0.02118   5.55374
   R13        3.10331   0.00020   0.00000   0.00045   0.00045   3.10376
   R14        3.17720  -0.00811   0.00000  -0.02200  -0.02199   3.15521
   R15        3.11270   0.00597   0.00000   0.01437   0.01436   3.12706
   R16        3.08903   0.00555   0.00000   0.01271   0.01270   3.10173
   R17        1.82093   0.00052   0.00000   0.00095   0.00095   1.82188
   R18        1.82506  -0.00116   0.00000  -0.00213  -0.00213   1.82292
   R19        1.83863  -0.00668   0.00000  -0.01197  -0.01199   1.82664
   R20        1.83815  -0.00781   0.00000  -0.01414  -0.01416   1.82399
    A1        1.87439   0.00086   0.00000   0.01299   0.01275   1.88714
    A2        1.99831  -0.00100   0.00000  -0.00822  -0.00815   1.99016
    A3        1.80005   0.00209   0.00000   0.01510   0.01493   1.81498
    A4        1.91196  -0.00100   0.00000  -0.01462  -0.01453   1.89744
    A5        1.98485   0.00094   0.00000   0.01150   0.01120   1.99605
    A6        1.89452  -0.00168   0.00000  -0.01451  -0.01447   1.88005
    A7        1.91813  -0.00011   0.00000  -0.00263  -0.00266   1.91548
    A8        2.03709   0.00046   0.00000   0.00126   0.00127   2.03836
    A9        2.02454  -0.00039   0.00000   0.00074   0.00073   2.02527
   A10        2.04203   0.00143   0.00000   0.00880   0.00880   2.05083
   A11        2.07268  -0.00009   0.00000   0.00350   0.00348   2.07616
   A12        2.01966  -0.00106   0.00000  -0.00499  -0.00498   2.01468
   A13        2.03794   0.00153   0.00000   0.00531   0.00528   2.04323
   A14        1.87518  -0.00022   0.00000  -0.00388  -0.00386   1.87132
   A15        1.86689   0.00385   0.00000   0.02906   0.02905   1.89594
   A16        1.88204  -0.00104   0.00000  -0.00484  -0.00512   1.87692
   A17        1.94526  -0.00096   0.00000  -0.00594  -0.00611   1.93915
   A18        1.92300   0.00041   0.00000   0.00557   0.00546   1.92846
   A19        1.85811  -0.00052   0.00000  -0.00174  -0.00176   1.85635
   A20        1.98529  -0.00135   0.00000  -0.01874  -0.01879   1.96651
   A21        2.03711   0.00134   0.00000   0.00824   0.00824   2.04535
   A22        1.98620   0.00229   0.00000   0.00808   0.00808   1.99428
   A23        2.00535  -0.00116   0.00000  -0.00621  -0.00620   1.99915
   A24        2.00199  -0.00075   0.00000  -0.00261  -0.00260   1.99939
   A25        2.02585   0.00078   0.00000   0.00848   0.00843   2.03428
   A26        2.09408   0.00015   0.00000   0.00254   0.00253   2.09661
   A27        2.85909  -0.00202   0.00000  -0.00688  -0.00692   2.85217
   A28        2.99712  -0.00017   0.00000   0.00106   0.00105   2.99817
   A29        2.99371  -0.00018   0.00000   0.00234   0.00235   2.99605
   A30        3.28550  -0.00008   0.00000  -0.00938  -0.00937   3.27612
   A31        3.31286  -0.00024   0.00000  -0.00259  -0.00254   3.31032
    D1        3.12930  -0.00186   0.00000  -0.01685  -0.01695   3.11235
    D2        0.77736  -0.00162   0.00000  -0.01641  -0.01649   0.76087
    D3        1.00222  -0.00056   0.00000  -0.00231  -0.00235   0.99987
    D4       -1.34972  -0.00032   0.00000  -0.00187  -0.00189  -1.35161
    D5       -1.05251   0.00065   0.00000   0.00974   0.00979  -1.04272
    D6        2.87874   0.00088   0.00000   0.01018   0.01025   2.88899
    D7       -2.64796   0.00143   0.00000   0.00958   0.00966  -2.63830
    D8       -0.46788   0.00012   0.00000  -0.00130  -0.00131  -0.46918
    D9        1.65533  -0.00213   0.00000  -0.02287  -0.02296   1.63237
   D10       -0.92273  -0.00066   0.00000  -0.00760  -0.00761  -0.93035
   D11       -3.02915  -0.00035   0.00000  -0.00798  -0.00793  -3.03708
   D12        1.07741   0.00025   0.00000  -0.00310  -0.00316   1.07425
   D13       -1.03287  -0.00082   0.00000  -0.00920  -0.00928  -1.04215
   D14        1.20096  -0.00069   0.00000  -0.01478  -0.01484   1.18612
   D15        0.99115   0.00190   0.00000   0.02081   0.02089   1.01204
   D16       -3.05821   0.00204   0.00000   0.01523   0.01533  -3.04288
   D17        3.12402   0.00002   0.00000  -0.00081  -0.00079   3.12323
   D18       -0.92534   0.00016   0.00000  -0.00639  -0.00635  -0.93168
   D19        0.03086  -0.00109   0.00000  -0.01406  -0.01407   0.01678
   D20        2.35888  -0.00074   0.00000  -0.01364  -0.01367   2.34521
   D21       -0.13969  -0.00003   0.00000  -0.00260  -0.00263  -0.14232
   D22       -2.47501  -0.00029   0.00000  -0.00303  -0.00302  -2.47804
   D23       -0.26636   0.00114   0.00000   0.02463   0.02463  -0.24173
   D24        2.03579   0.00076   0.00000   0.01846   0.01847   2.05426
   D25        2.66815   0.00050   0.00000   0.00783   0.00784   2.67599
   D26        0.60011  -0.00149   0.00000  -0.01163  -0.01161   0.58851
   D27       -1.59062   0.00162   0.00000   0.01962   0.01959  -1.57103
   D28       -3.12136  -0.00012   0.00000   0.00162   0.00156  -3.11980
   D29       -0.76188  -0.00022   0.00000  -0.00197  -0.00202  -0.76391
   D30       -1.08017   0.00105   0.00000   0.01530   0.01538  -1.06479
   D31        1.27931   0.00095   0.00000   0.01171   0.01179   1.29109
   D32        1.08020  -0.00069   0.00000  -0.00539  -0.00543   1.07477
   D33       -2.84351  -0.00079   0.00000  -0.00898  -0.00902  -2.85253
   D34        3.11140   0.00210   0.00000   0.01370   0.01357   3.12497
   D35        1.07967  -0.00213   0.00000  -0.02130  -0.02134   1.05833
   D36       -1.00500  -0.00085   0.00000  -0.01047  -0.01045  -1.01544
   D37       -3.13334  -0.00243   0.00000  -0.01471  -0.01463   3.13522
   D38       -1.10356   0.00137   0.00000   0.01590   0.01587  -1.08769
   D39        1.01761   0.00068   0.00000   0.01012   0.01008   1.02769
   D40        0.08285   0.00147   0.00000   0.00324   0.00321   0.08606
         Item               Value     Threshold  Converged?
 Maximum Force            0.012746     0.000450     NO 
 RMS     Force            0.002716     0.000300     NO 
 Maximum Displacement     0.040814     0.001800     NO 
 RMS     Displacement     0.010786     0.001200     NO 
 Predicted change in Energy=-1.090455D-03
 GradGradGradGradGradGradGradGradGradGradGradGradGradGradGradGradGradGrad

                          Input orientation:                          
 ---------------------------------------------------------------------
 Center     Atomic      Atomic             Coordinates (Angstroms)
 Number     Number       Type             X           Y           Z
 ---------------------------------------------------------------------
      1         14           0       -1.970956    0.013487    0.021080
      2          8           0       -1.496529   -1.048690   -1.165089
      3          8           0       -3.615348    0.089022    0.013014
      4          8           0       -1.374771    1.526869   -0.162111
      5          8           0       -1.321345   -0.620629    1.410839
      6          1           0       -1.613420   -1.512014    1.635395
      7          1           0       -0.420356    1.644807   -0.265905
      8          1           0       -4.024822    0.912567    0.303422
      9         14           0        3.128350   -0.033754   -0.049034
     10          8           0        4.767619    0.039670   -0.119831
     11          8           0        2.511647    1.481360   -0.383535
     12          8           0        2.715849   -0.501688    1.483656
     13          8           0        2.531559   -1.040298   -1.200030
     14          1           0        1.579786   -1.183879   -1.271831
     15          1           0        1.770873   -0.573382    1.674001
     16          1           0        5.260419   -0.598269    0.409006
     17          1           0        2.971342    2.207130    0.055199
     18          1           0       -1.947167   -0.980590   -2.015284
 ---------------------------------------------------------------------
                    Distance matrix (angstroms):
                    1          2          3          4          5
     1  Si   0.000000
     2  O    1.661414   0.000000
     3  O    1.646146   2.678005   0.000000
     4  O    1.636863   2.766639   2.668006   0.000000
     5  O    1.659978   2.617122   2.778484   2.662475   0.000000
     6  H    2.249667   2.840958   3.033670   3.538756   0.964521
     7  H    2.268904   3.036709   3.564581   0.967260   2.958961
     8  H    2.259741   3.520698   0.964485   2.759866   3.299371
     9  Si   5.100007   4.864687   6.745102   4.767225   4.719686
    10  O    6.740098   6.443340   8.384165   6.320008   6.313036
    11  O    4.734141   4.803900   6.295707   3.892987   4.725459
    12  O    4.936666   5.005915   6.526544   4.853531   4.039601
    13  O    4.782699   4.028248   6.366420   4.788219   4.673075
    14  H    3.963971   3.081133   5.500956   4.160414   3.991306
    15  H    4.132535   4.354568   5.675300   4.204455   3.103755
    16  H    7.267566   6.952482   8.911141   6.990575   6.657611
    17  H    5.407360   5.661390   6.919006   4.404393   5.316120
    18  H    2.266172   0.964648   2.835647   3.170053   3.501364
                    6          7          8          9         10
     6  H    0.000000
     7  H    3.873482   0.000000
     8  H    3.669824   3.721893   0.000000
     9  Si   5.244706   3.931656   7.224101   0.000000
    10  O    6.797514   5.432576   8.845796   1.642438   0.000000
    11  O    5.482020   2.938910   6.597035   1.669666   2.690245
    12  O    4.448185   4.183801   6.987826   1.654769   2.659699
    13  O    5.044106   4.098315   7.004298   1.641366   2.707974
    14  H    4.330843   3.607481   6.187741   2.283872   3.603672
    15  H    3.512258   3.672204   6.138128   2.258936   3.546005
    16  H    7.041919   6.144763   9.407948   2.252598   0.964099
    17  H    6.111390   3.452960   7.119257   2.248795   2.820484
    18  H    3.704222   3.504881   3.643774   5.524809   7.051385
                   11         12         13         14         15
    11  O    0.000000
    12  O    2.731406   0.000000
    13  O    2.650627   2.743399   0.000000
    14  H    2.959888   3.057570   0.965217   0.000000
    15  H    3.000694   0.966618   3.009436   3.014489   0.000000
    16  H    3.536768   2.763882   3.198604   4.088424   3.711841
    17  H    0.964650   3.073021   3.509245   3.898254   3.434077
    18  H    5.348348   5.849415   4.552713   3.610187   5.253615
                   16         17         18
    16  H    0.000000
    17  H    3.638038   0.000000
    18  H    7.613978   6.216124   0.000000
 Stoichiometry    H8O8Si2
 Framework group  C1[X(H8O8Si2)]
 Deg. of freedom    48
 Full point group                 C1      NOp   1
 Largest Abelian subgroup         C1      NOp   1
 Largest concise Abelian subgroup C1      NOp   1
                         Standard orientation:                         
 ---------------------------------------------------------------------
 Center     Atomic      Atomic             Coordinates (Angstroms)
 Number     Number       Type             X           Y           Z
 ---------------------------------------------------------------------
      1         14           0       -2.546406    0.016415    0.018899
      2          8           0       -2.064204   -1.052760   -1.157810
      3          8           0       -4.190947    0.087434    0.003497
      4          8           0       -1.953526    1.530087   -0.172444
      5          8           0       -1.900880   -0.606180    1.415752
      6          1           0       -2.191495   -1.496758    1.645351
      7          1           0       -0.999007    1.649881   -0.273113
      8          1           0       -4.603832    0.911880    0.286418
      9         14           0        2.553256   -0.017492   -0.029776
     10          8           0        4.192602    0.059878   -0.094302
     11          8           0        1.933888    1.493563   -0.377456
     12          8           0        2.135642   -0.475787    1.504441
     13          8           0        1.963957   -1.033693   -1.176137
     14          1           0        1.012879   -1.180354   -1.250867
     15          1           0        1.190079   -0.548706    1.691372
     16          1           0        4.684909   -0.573000    0.441036
     17          1           0        2.389806    2.223634    0.058071
     18          1           0       -2.511485   -0.991844   -2.010320
 ---------------------------------------------------------------------
 Rotational constants (GHZ):           1.9598987           0.3374584           0.3363034
 Standard basis: 6-31+G(d,p) (6D, 7F)
 There are   238 symmetry adapted cartesian basis functions of A   symmetry.
 There are   238 symmetry adapted basis functions of A   symmetry.
   238 basis functions,   424 primitive gaussians,   238 cartesian basis functions
    50 alpha electrons       50 beta electrons
       nuclear repulsion energy       788.8643423781 Hartrees.
 NAtoms=   18 NActive=   18 NUniq=   18 SFac= 1.00D+00 NAtFMM=   60 NAOKFM=F Big=F
 Integral buffers will be    131072 words long.
 Raffenetti 2 integral format.
 Two-electron integral symmetry is turned on.
 Nuclear repulsion after empirical dispersion term =      788.8529170785 Hartrees.
 One-electron integrals computed using PRISM.
 NBasis=   238 RedAO= T EigKep=  3.40D-04  NBF=   238
 NBsUse=   238 1.00D-06 EigRej= -1.00D+00 NBFU=   238
 Initial guess from the checkpoint file:  "/localscratch/sarashs.37136498.0/Gau-17258.chk"
 B after Tr=    -0.000000   -0.000000    0.000000
         Rot=    0.999998    0.001881   -0.000060   -0.000005 Ang=   0.22 deg.
 ExpMin= 3.31D-02 ExpMax= 1.61D+04 ExpMxC= 2.43D+03 IAcc=3 IRadAn=         5 AccDes= 0.00D+00
 Harris functional with IExCor=  402 and IRadAn=       5 diagonalized for initial guess.
 HarFok:  IExCor=  402 AccDes= 0.00D+00 IRadAn=         5 IDoV= 1 UseB2=F ITyADJ=14
 ICtDFT=  3500011 ScaDFX=  1.000000  1.000000  1.000000  1.000000
 FoFCou: FMM=F IPFlag=           0 FMFlag=      100000 FMFlg1=           0
         NFxFlg=           0 DoJE=T BraDBF=F KetDBF=T FulRan=T
         wScrn=  0.000000 ICntrl=       500 IOpCl=  0 I1Cent=   200000004 NGrid=           0
         NMat0=    1 NMatS0=      1 NMatT0=    0 NMatD0=    1 NMtDS0=    0 NMtDT0=    0
 Petite list used in FoFCou.
 Requested convergence on RMS density matrix=1.00D-08 within 128 cycles.
 Requested convergence on MAX density matrix=1.00D-06.
 Requested convergence on             energy=1.00D-06.
 No special actions if energy rises.
 SCF Done:  E(RB3LYP) =  -1186.05227656     A.U. after    9 cycles
            NFock=  9  Conv=0.92D-08     -V/T= 2.0067
 Calling FoFJK, ICntrl=      2127 FMM=F ISym2X=0 I1Cent= 0 IOpClX= 0 NMat=1 NMatS=1 NMatT=0.
 ***** Axes restored to original set *****
 -------------------------------------------------------------------
 Center     Atomic                   Forces (Hartrees/Bohr)
 Number     Number              X              Y              Z
 -------------------------------------------------------------------
      1       14           0.006502983   -0.008626135    0.000684920
      2        8          -0.000641292    0.002279504    0.000845197
      3        8           0.000456852    0.001863028   -0.000496417
      4        8           0.001603635    0.003433729   -0.001018348
      5        8          -0.000665050    0.002245782   -0.001712921
      6        1           0.000649278   -0.000497005    0.000379839
      7        1          -0.000242358    0.000391688    0.000621264
      8        1           0.000150544   -0.000388619    0.000208591
      9       14          -0.005628951    0.007895766   -0.001669573
     10        8          -0.001129123   -0.001106419    0.000769994
     11        8           0.000964448   -0.004559509    0.000692987
     12        8          -0.001187624   -0.001362739    0.000383289
     13        8          -0.000855365   -0.002450124   -0.000734148
     14        1           0.000376568    0.000490107   -0.000120644
     15        1           0.000656677   -0.000339131    0.001436334
     16        1          -0.000171183    0.000064228   -0.000404634
     17        1          -0.000768815    0.000910731    0.000072481
     18        1          -0.000071222   -0.000244881    0.000061790
 -------------------------------------------------------------------
 Cartesian Forces:  Max     0.008626135 RMS     0.002318828

 GradGradGradGradGradGradGradGradGradGradGradGradGradGradGradGradGradGrad
 Berny optimization.
 Using GEDIIS/GDIIS optimizer.
 FormGI is forming the generalized inverse of G from B-inverse, IUseBI=4.
 Internal  Forces:  Max     0.004792417 RMS     0.001035640
 Search for a local minimum.
 Step number   2 out of a maximum of  101
 All quantities printed in internal units (Hartrees-Bohrs-Radians)
 Mixed Optimization -- En-DIIS/RFO-DIIS
 Update second derivatives using D2CorX and points    1    2
 DE= -1.38D-03 DEPred=-1.09D-03 R= 1.27D+00
 TightC=F SS=  1.41D+00  RLast= 1.11D-01 DXNew= 5.0454D-01 3.3381D-01
 Trust test= 1.27D+00 RLast= 1.11D-01 DXMaxT set to 3.34D-01
 ITU=  1  0
 Use linear search instead of GDIIS.
     Eigenvalues ---    0.00655   0.01268   0.01509   0.01780   0.02698
     Eigenvalues ---    0.03083   0.03143   0.03338   0.03627   0.03743
     Eigenvalues ---    0.03775   0.04129   0.05341   0.05455   0.07003
     Eigenvalues ---    0.07544   0.08187   0.09044   0.10654   0.10890
     Eigenvalues ---    0.11700   0.12152   0.12476   0.13234   0.15181
     Eigenvalues ---    0.15845   0.16000   0.16075   0.16743   0.17262
     Eigenvalues ---    0.20434   0.33371   0.38226   0.39183   0.40575
     Eigenvalues ---    0.43142   0.43646   0.43784   0.44281   0.48043
     Eigenvalues ---    0.49056   0.49628   0.54234   0.54343   0.54459
     Eigenvalues ---    0.54615   0.549661000.000001000.000001000.00000
     Eigenvalues --- 1000.000001000.000001000.000001000.000001000.00000
     Eigenvalues --- 1000.000001000.000001000.000001000.000001000.00000
     Eigenvalues --- 1000.000001000.000001000.000001000.000001000.00000
     Eigenvalues --- 1000.000001000.000001000.000001000.000001000.00000
     Eigenvalues --- 1000.000001000.000001000.000001000.000001000.00000
     Eigenvalues --- 1000.000001000.000001000.000001000.000001000.00000
     Eigenvalues --- 1000.000001000.000001000.000001000.000001000.00000
     Eigenvalues --- 1000.000001000.000001000.000001000.000001000.00000
     Eigenvalues --- 1000.00000
 RFO step:  Lambda=-2.01151349D-04 EMin= 6.54652715D-03
 Quartic linear search produced a step of  0.38573.
 Iteration  1 RMS(Cart)=  0.00932735 RMS(Int)=  0.00010426
 Iteration  2 RMS(Cart)=  0.00008334 RMS(Int)=  0.00005716
 Iteration  3 RMS(Cart)=  0.00000001 RMS(Int)=  0.00005716
 Iteration  1 RMS(Cart)=  0.00000380 RMS(Int)=  0.00000274
 Iteration  2 RMS(Cart)=  0.00000145 RMS(Int)=  0.00000304
 Iteration  3 RMS(Cart)=  0.00000055 RMS(Int)=  0.00000330
 Variable       Old X    -DE/DX   Delta X   Delta X   Delta X     New X
                                 (Linear)    (Quad)   (Total)
    R1        3.13962  -0.00241  -0.00395  -0.00453  -0.00848   3.13114
    R2        3.11077  -0.00054   0.00161  -0.00295  -0.00134   3.10943
    R3        3.09322   0.00333   0.00853   0.00442   0.01297   3.10619
    R4        3.13690  -0.00173  -0.00438  -0.00134  -0.00571   3.13120
    R5        9.63762  -0.00479  -0.00000   0.00000   0.00000   9.63762
    R6        5.82250  -0.00080   0.00181   0.01247   0.01429   5.83678
    R7        1.82292  -0.00004  -0.00047   0.00026  -0.00021   1.82271
    R8        1.82261  -0.00033   0.00013  -0.00095  -0.00081   1.82180
    R9        1.82786  -0.00154  -0.01097   0.00689  -0.00404   1.82381
   R10        1.82268   0.00035  -0.00103   0.00169   0.00066   1.82334
   R11        5.86525  -0.00087   0.00001   0.00488   0.00490   5.87015
   R12        5.55374  -0.00124  -0.00817  -0.02169  -0.02982   5.52392
   R13        3.10376  -0.00136   0.00017  -0.00443  -0.00426   3.09950
   R14        3.15521  -0.00372  -0.00848  -0.00571  -0.01417   3.14104
   R15        3.12706   0.00166   0.00554   0.00180   0.00733   3.13439
   R16        3.10173   0.00171   0.00490   0.00267   0.00758   3.10931
   R17        1.82188  -0.00035   0.00037  -0.00117  -0.00081   1.82108
   R18        1.82292   0.00035  -0.00082   0.00153   0.00071   1.82363
   R19        1.82664  -0.00130  -0.00462   0.00246  -0.00216   1.82449
   R20        1.82399  -0.00121  -0.00546   0.00339  -0.00206   1.82194
    A1        1.88714  -0.00012   0.00492   0.00192   0.00663   1.89377
    A2        1.99016   0.00020  -0.00314  -0.00137  -0.00446   1.98570
    A3        1.81498   0.00101   0.00576   0.00445   0.01007   1.82505
    A4        1.89744  -0.00109  -0.00560  -0.00649  -0.01202   1.88542
    A5        1.99605   0.00022   0.00432   0.00411   0.00820   2.00425
    A6        1.88005  -0.00011  -0.00558  -0.00204  -0.00759   1.87246
    A7        1.91548  -0.00022  -0.00102  -0.00275  -0.00379   1.91168
    A8        2.03836   0.00035   0.00049   0.00254   0.00305   2.04141
    A9        2.02527  -0.00003   0.00028   0.00098   0.00125   2.02652
   A10        2.05083  -0.00003   0.00339  -0.00294   0.00046   2.05128
   A11        2.07616  -0.00030   0.00134   0.00091   0.00223   2.07840
   A12        2.01468   0.00031  -0.00192   0.00645   0.00454   2.01922
   A13        2.04323   0.00057   0.00204   0.00266   0.00470   2.04793
   A14        1.87132  -0.00065  -0.00149  -0.00677  -0.00826   1.86306
   A15        1.89594   0.00075   0.01121   0.00402   0.01522   1.91116
   A16        1.87692  -0.00091  -0.00197  -0.00274  -0.00491   1.87201
   A17        1.93915  -0.00077  -0.00236  -0.00206  -0.00456   1.93459
   A18        1.92846   0.00067   0.00211   0.00203   0.00409   1.93255
   A19        1.85635   0.00048  -0.00068   0.00251   0.00182   1.85817
   A20        1.96651  -0.00016  -0.00725  -0.00338  -0.01069   1.95581
   A21        2.04535   0.00002   0.00318  -0.00231   0.00087   2.04621
   A22        1.99428   0.00045   0.00312   0.00396   0.00707   2.00135
   A23        1.99915  -0.00098  -0.00239  -0.00884  -0.01127   1.98788
   A24        1.99939   0.00078  -0.00100   0.00959   0.00861   2.00800
   A25        2.03428   0.00064   0.00325   0.00259   0.00578   2.04005
   A26        2.09661  -0.00033   0.00098  -0.00210  -0.00115   2.09546
   A27        2.85217  -0.00176  -0.00267  -0.00623  -0.00894   2.84323
   A28        2.99817  -0.00068   0.00041  -0.00109  -0.00068   2.99749
   A29        2.99605  -0.00036   0.00091  -0.00109  -0.00019   2.99587
   A30        3.27612   0.00028  -0.00362  -0.00342  -0.00703   3.26909
   A31        3.31032  -0.00004  -0.00098  -0.00174  -0.00268   3.30764
    D1        3.11235  -0.00079  -0.00654  -0.00722  -0.01384   3.09851
    D2        0.76087  -0.00086  -0.00636  -0.00832  -0.01474   0.74613
    D3        0.99987   0.00055  -0.00091   0.00056  -0.00039   0.99948
    D4       -1.35161   0.00048  -0.00073  -0.00054  -0.00129  -1.35290
    D5       -1.04272  -0.00005   0.00378   0.00092   0.00475  -1.03797
    D6        2.88899  -0.00012   0.00395  -0.00018   0.00384   2.89283
    D7       -2.63830   0.00043   0.00373  -0.00025   0.00354  -2.63476
    D8       -0.46918  -0.00009  -0.00050  -0.00479  -0.00528  -0.47447
    D9        1.63237  -0.00087  -0.00886  -0.00940  -0.01832   1.61404
   D10       -0.93035  -0.00094  -0.00294  -0.00886  -0.01177  -0.94212
   D11       -3.03708  -0.00013  -0.00306  -0.00573  -0.00876  -3.04584
   D12        1.07425   0.00034  -0.00122  -0.00545  -0.00673   1.06752
   D13       -1.04215   0.00028  -0.00358  -0.00088  -0.00455  -1.04670
   D14        1.18612   0.00020  -0.00572  -0.00186  -0.00765   1.17847
   D15        1.01204   0.00090   0.00806   0.00644   0.01456   1.02660
   D16       -3.04288   0.00081   0.00591   0.00546   0.01145  -3.03142
   D17        3.12323  -0.00042  -0.00031  -0.00064  -0.00094   3.12229
   D18       -0.93168  -0.00051  -0.00245  -0.00162  -0.00405  -0.93573
   D19        0.01678  -0.00046  -0.00543  -0.00274  -0.00818   0.00860
   D20        2.34521  -0.00017  -0.00527  -0.00048  -0.00578   2.33944
   D21       -0.14232   0.00013  -0.00101   0.00489   0.00387  -0.13845
   D22       -2.47804  -0.00052  -0.00117  -0.00567  -0.00678  -2.48481
   D23       -0.24173   0.00031   0.00950   0.00969   0.01919  -0.22254
   D24        2.05426   0.00063   0.00713   0.01467   0.02178   2.07604
   D25        2.67599   0.00018   0.00302   0.00318   0.00621   2.68220
   D26        0.58851  -0.00052  -0.00448   0.00008  -0.00437   0.58413
   D27       -1.57103   0.00078   0.00756   0.00746   0.01499  -1.55604
   D28       -3.11980   0.00002   0.00060  -0.00055   0.00001  -3.11978
   D29       -0.76391  -0.00015  -0.00078   0.00057  -0.00022  -0.76412
   D30       -1.06479  -0.00025   0.00593  -0.00030   0.00570  -1.05909
   D31        1.29109  -0.00042   0.00455   0.00082   0.00547   1.29656
   D32        1.07477   0.00026  -0.00210  -0.00164  -0.00379   1.07098
   D33       -2.85253   0.00009  -0.00348  -0.00052  -0.00402  -2.85655
   D34        3.12497   0.00061   0.00523  -0.00185   0.00330   3.12827
   D35        1.05833  -0.00013  -0.00823  -0.00620  -0.01446   1.04387
   D36       -1.01544  -0.00110  -0.00403  -0.00856  -0.01252  -1.02796
   D37        3.13522  -0.00078  -0.00564   0.00190  -0.00368   3.13154
   D38       -1.08769  -0.00001   0.00612   0.00709   0.01321  -1.07448
   D39        1.02769   0.00105   0.00389   0.00927   0.01311   1.04080
   D40        0.08606   0.00072   0.00124  -0.00010   0.00111   0.08717
         Item               Value     Threshold  Converged?
 Maximum Force            0.003649     0.000450     NO 
 RMS     Force            0.000819     0.000300     NO 
 Maximum Displacement     0.040674     0.001800     NO 
 RMS     Displacement     0.009326     0.001200     NO 
 Predicted change in Energy=-2.207065D-04
 GradGradGradGradGradGradGradGradGradGradGradGradGradGradGradGradGradGrad

                          Input orientation:                          
 ---------------------------------------------------------------------
 Center     Atomic      Atomic             Coordinates (Angstroms)
 Number     Number       Type             X           Y           Z
 ---------------------------------------------------------------------
      1         14           0       -1.970764    0.001539    0.019277
      2          8           0       -1.500316   -1.053653   -1.168432
      3          8           0       -3.613186    0.100613    0.009253
      4          8           0       -1.368461    1.519614   -0.166494
      5          8           0       -1.319515   -0.619639    1.410507
      6          1           0       -1.607901   -1.509696    1.646313
      7          1           0       -0.415487    1.637628   -0.263299
      8          1           0       -4.011468    0.928180    0.302348
      9         14           0        3.128712   -0.022682   -0.050269
     10          8           0        4.766291    0.040852   -0.117407
     11          8           0        2.501116    1.480797   -0.379633
     12          8           0        2.717462   -0.507746    1.481626
     13          8           0        2.534558   -1.038241   -1.200434
     14          1           0        1.583935   -1.181226   -1.274000
     15          1           0        1.775047   -0.581171    1.678114
     16          1           0        5.254577   -0.603561    0.406974
     17          1           0        2.949818    2.215393    0.056606
     18          1           0       -1.951687   -0.985281   -2.018091
 ---------------------------------------------------------------------
                    Distance matrix (angstroms):
                    1          2          3          4          5
     1  Si   0.000000
     2  O    1.656926   0.000000
     3  O    1.645438   2.680204   0.000000
     4  O    1.643724   2.764591   2.661436   0.000000
     5  O    1.656958   2.621447   2.782661   2.658144   0.000000
     6  H    2.250055   2.853479   3.048644   3.538406   0.964869
     7  H    2.274977   3.039591   3.558367   0.965121   2.951974
     8  H    2.259040   3.520900   0.964054   2.748653   3.297024
     9  Si   5.100007   4.872482   6.743288   4.755707   4.719846
    10  O    6.738557   6.447709   8.380648   6.310653   6.309343
    11  O    4.727054   4.801780   6.280193   3.875637   4.713136
    12  O    4.937337   5.011035   6.528023   4.849871   4.039153
    13  O    4.781921   4.035030   6.368288   4.779666   4.673983
    14  H    3.963255   3.088693   5.504536   4.151837   3.993994
    15  H    4.137921   4.365096   5.681812   4.206842   3.106350
    16  H    7.260992   6.950760   8.904564   6.978636   6.650265
    17  H    5.395802   5.656065   6.895474   4.379660   5.300723
    18  H    2.263857   0.964537   2.837229   3.169079   3.505513
                    6          7          8          9         10
     6  H    0.000000
     7  H    3.869641   0.000000
     8  H    3.677854   3.708686   0.000000
     9  Si   5.246437   3.919612   7.211840   0.000000
    10  O    6.793029   5.424187   8.832474   1.640186   0.000000
    11  O    5.470971   2.923132   6.571471   1.662169   2.696892
    12  O    4.442949   4.178847   6.980765   1.658649   2.656232
    13  O    5.048387   4.091609   6.998258   1.645375   2.705184
    14  H    4.338657   3.600715   6.184093   2.286062   3.599802
    15  H    3.508206   3.672955   6.136337   2.265309   3.543776
    16  H    7.032116   6.133663   9.392378   2.250732   0.963673
    17  H    6.097235   3.429495   7.083560   2.247756   2.838747
    18  H    3.717669   3.509823   3.645335   5.532574   7.056683
                   11         12         13         14         15
    11  O    0.000000
    12  O    2.732287   0.000000
    13  O    2.649601   2.740132   0.000000
    14  H    2.954231   3.054822   0.964127   0.000000
    15  H    3.002201   0.965476   3.011944   3.018537   0.000000
    16  H    3.541870   2.756993   3.189233   4.078355   3.704514
    17  H    0.965024   3.082233   3.512653   3.895276   3.439499
    18  H    5.347292   5.854657   4.560456   3.618382   5.264388
                   16         17         18
    16  H    0.000000
    17  H    3.658028   0.000000
    18  H    7.612942   6.210752   0.000000
 Stoichiometry    H8O8Si2
 Framework group  C1[X(H8O8Si2)]
 Deg. of freedom    48
 Full point group                 C1      NOp   1
 Largest Abelian subgroup         C1      NOp   1
 Largest concise Abelian subgroup C1      NOp   1
                         Standard orientation:                         
 ---------------------------------------------------------------------
 Center     Atomic      Atomic             Coordinates (Angstroms)
 Number     Number       Type             X           Y           Z
 ---------------------------------------------------------------------
      1         14           0       -2.546184    0.006404    0.019871
      2          8           0       -2.069459   -1.054890   -1.159872
      3          8           0       -4.188760    0.102024    0.003573
      4          8           0       -1.946344    1.524581   -0.172891
      5          8           0       -1.898500   -0.605108    1.417035
      6          1           0       -2.185883   -1.494334    1.657161
      7          1           0       -0.993283    1.643983   -0.267102
      8          1           0       -4.589748    0.930503    0.290335
      9         14           0        2.553542   -0.007704   -0.031889
     10          8           0        4.191211    0.058808   -0.093742
     11          8           0        1.924021    1.492482   -0.372407
     12          8           0        2.137969   -0.484457    1.501448
     13          8           0        1.965461   -1.031340   -1.178009
     14          1           0        1.015394   -1.176724   -1.254007
     15          1           0        1.195030   -0.558653    1.695110
     16          1           0        4.678990   -0.581451    0.436170
     17          1           0        2.369704    2.230596    0.060980
     18          1           0       -2.518017   -0.992527   -2.011481
 ---------------------------------------------------------------------
 Rotational constants (GHZ):           1.9604052           0.3377459           0.3366331
 Standard basis: 6-31+G(d,p) (6D, 7F)
 There are   238 symmetry adapted cartesian basis functions of A   symmetry.
 There are   238 symmetry adapted basis functions of A   symmetry.
   238 basis functions,   424 primitive gaussians,   238 cartesian basis functions
    50 alpha electrons       50 beta electrons
       nuclear repulsion energy       789.0927562731 Hartrees.
 NAtoms=   18 NActive=   18 NUniq=   18 SFac= 1.00D+00 NAtFMM=   60 NAOKFM=F Big=F
 Integral buffers will be    131072 words long.
 Raffenetti 2 integral format.
 Two-electron integral symmetry is turned on.
 Nuclear repulsion after empirical dispersion term =      789.0813275052 Hartrees.
 One-electron integrals computed using PRISM.
 NBasis=   238 RedAO= T EigKep=  3.40D-04  NBF=   238
 NBsUse=   238 1.00D-06 EigRej= -1.00D+00 NBFU=   238
 Initial guess from the checkpoint file:  "/localscratch/sarashs.37136498.0/Gau-17258.chk"
 B after Tr=     0.000000   -0.000000    0.000000
         Rot=    1.000000   -0.000719   -0.000174   -0.000056 Ang=  -0.08 deg.
 ExpMin= 3.31D-02 ExpMax= 1.61D+04 ExpMxC= 2.43D+03 IAcc=3 IRadAn=         5 AccDes= 0.00D+00
 Harris functional with IExCor=  402 and IRadAn=       5 diagonalized for initial guess.
 HarFok:  IExCor=  402 AccDes= 0.00D+00 IRadAn=         5 IDoV= 1 UseB2=F ITyADJ=14
 ICtDFT=  3500011 ScaDFX=  1.000000  1.000000  1.000000  1.000000
 FoFCou: FMM=F IPFlag=           0 FMFlag=      100000 FMFlg1=           0
         NFxFlg=           0 DoJE=T BraDBF=F KetDBF=T FulRan=T
         wScrn=  0.000000 ICntrl=       500 IOpCl=  0 I1Cent=   200000004 NGrid=           0
         NMat0=    1 NMatS0=      1 NMatT0=    0 NMatD0=    1 NMtDS0=    0 NMtDT0=    0
 Petite list used in FoFCou.
 Requested convergence on RMS density matrix=1.00D-08 within 128 cycles.
 Requested convergence on MAX density matrix=1.00D-06.
 Requested convergence on             energy=1.00D-06.
 No special actions if energy rises.
 SCF Done:  E(RB3LYP) =  -1186.05254779     A.U. after    9 cycles
            NFock=  9  Conv=0.40D-08     -V/T= 2.0067
 Calling FoFJK, ICntrl=      2127 FMM=F ISym2X=0 I1Cent= 0 IOpClX= 0 NMat=1 NMatS=1 NMatT=0.
 ***** Axes restored to original set *****
 -------------------------------------------------------------------
 Center     Atomic                   Forces (Hartrees/Bohr)
 Number     Number              X              Y              Z
 -------------------------------------------------------------------
      1       14           0.007485595   -0.000692338    0.000131570
      2        8          -0.000395400    0.000327190   -0.000018309
      3        8           0.000178452    0.000281113   -0.000494155
      4        8          -0.001629882    0.000167178   -0.000485878
      5        8          -0.000718271    0.000370417   -0.000727458
      6        1           0.000809789   -0.000187320    0.000378783
      7        1           0.001770927    0.000339313    0.000411839
      8        1           0.000201215   -0.000008963    0.000315388
      9       14          -0.007458607    0.000273538    0.000013755
     10        8          -0.000244953    0.000299143    0.000125364
     11        8           0.000697030   -0.000827557    0.000258463
     12        8           0.000502225   -0.000041112   -0.001033599
     13        8           0.000999851   -0.000640038    0.000188991
     14        1          -0.000656239    0.000434371   -0.000132645
     15        1          -0.000315244   -0.000289666    0.001234818
     16        1          -0.000132290   -0.000152526   -0.000136319
     17        1          -0.000992621    0.000532422   -0.000110268
     18        1          -0.000101575   -0.000185166    0.000079660
 -------------------------------------------------------------------
 Cartesian Forces:  Max     0.007485595 RMS     0.001547159

 GradGradGradGradGradGradGradGradGradGradGradGradGradGradGradGradGradGrad
 Berny optimization.
 Using GEDIIS/GDIIS optimizer.
 FormGI is forming the generalized inverse of G from B-inverse, IUseBI=4.
 Internal  Forces:  Max     0.004419208 RMS     0.000670709
 Search for a local minimum.
 Step number   3 out of a maximum of  101
 All quantities printed in internal units (Hartrees-Bohrs-Radians)
 Mixed Optimization -- En-DIIS/RFO-DIIS
 Swapping is turned off.
 Update second derivatives using D2CorX and points    1    2    3
 DE= -2.71D-04 DEPred=-2.21D-04 R= 1.23D+00
 TightC=F SS=  1.41D+00  RLast= 8.25D-02 DXNew= 5.6139D-01 2.4740D-01
 Trust test= 1.23D+00 RLast= 8.25D-02 DXMaxT set to 3.34D-01
 ITU=  1  1  0
     Eigenvalues ---    0.00647   0.01261   0.01433   0.01755   0.02586
     Eigenvalues ---    0.03049   0.03134   0.03290   0.03526   0.03706
     Eigenvalues ---    0.03774   0.04116   0.05039   0.05465   0.06789
     Eigenvalues ---    0.07190   0.08285   0.09034   0.10601   0.10850
     Eigenvalues ---    0.11774   0.12011   0.12427   0.13779   0.15202
     Eigenvalues ---    0.15837   0.16001   0.16182   0.16637   0.17243
     Eigenvalues ---    0.19984   0.35996   0.38410   0.39177   0.40352
     Eigenvalues ---    0.43066   0.43633   0.43808   0.44191   0.48075
     Eigenvalues ---    0.49341   0.53241   0.54255   0.54343   0.54505
     Eigenvalues ---    0.54627   0.553711000.000001000.000001000.00000
     Eigenvalues --- 1000.000001000.000001000.000001000.000001000.00000
     Eigenvalues --- 1000.000001000.000001000.000001000.000001000.00000
     Eigenvalues --- 1000.000001000.000001000.000001000.000001000.00000
     Eigenvalues --- 1000.000001000.000001000.000001000.000001000.00000
     Eigenvalues --- 1000.000001000.000001000.000001000.000001000.00000
     Eigenvalues --- 1000.000001000.000001000.000001000.000001000.00000
     Eigenvalues --- 1000.000001000.000001000.000001000.000001000.00000
     Eigenvalues --- 1000.000001000.000001000.000001000.000001000.00000
     Eigenvalues --- 1000.00000
 En-DIIS/RFO-DIIS/Sim-DIIS IScMMF=       -3 using points:     3    2
 RFO step:  Lambda=-1.10465904D-04.
 DidBck=F Rises=F RFO-DIIS coefs:    1.70275   -0.70275
 Iteration  1 RMS(Cart)=  0.00852863 RMS(Int)=  0.00007349
 Iteration  2 RMS(Cart)=  0.00004660 RMS(Int)=  0.00003564
 Iteration  3 RMS(Cart)=  0.00000000 RMS(Int)=  0.00003564
 Iteration  1 RMS(Cart)=  0.00000591 RMS(Int)=  0.00000425
 Iteration  2 RMS(Cart)=  0.00000226 RMS(Int)=  0.00000473
 Iteration  3 RMS(Cart)=  0.00000086 RMS(Int)=  0.00000512
 Variable       Old X    -DE/DX   Delta X   Delta X   Delta X     New X
                                 (Linear)    (Quad)   (Total)
    R1        3.13114  -0.00058  -0.00596   0.00275  -0.00320   3.12794
    R2        3.10943  -0.00036  -0.00094  -0.00000  -0.00094   3.10849
    R3        3.10619  -0.00015   0.00911  -0.00473   0.00439   3.11057
    R4        3.13120  -0.00038  -0.00401   0.00234  -0.00165   3.12955
    R5        9.63762  -0.00442   0.00000   0.00000  -0.00000   9.63762
    R6        5.83678  -0.00083   0.01004   0.00936   0.01943   5.85622
    R7        1.82271  -0.00004  -0.00015  -0.00007  -0.00022   1.82250
    R8        1.82180   0.00001  -0.00057   0.00048  -0.00010   1.82170
    R9        1.82381   0.00030  -0.00284   0.00351   0.00070   1.82451
   R10        1.82334   0.00002   0.00046  -0.00051  -0.00005   1.82329
   R11        5.87015  -0.00088   0.00345   0.00655   0.01004   5.88019
   R12        5.52392  -0.00144  -0.02095  -0.01267  -0.03360   5.49032
   R13        3.09950  -0.00037  -0.00299   0.00125  -0.00174   3.09776
   R14        3.14104  -0.00059  -0.00996   0.00568  -0.00426   3.13679
   R15        3.13439  -0.00029   0.00515  -0.00314   0.00201   3.13640
   R16        3.10931  -0.00027   0.00532  -0.00279   0.00254   3.11185
   R17        1.82108  -0.00004  -0.00057   0.00042  -0.00015   1.82093
   R18        1.82363  -0.00011   0.00050  -0.00080  -0.00030   1.82333
   R19        1.82449  -0.00037  -0.00152   0.00153   0.00005   1.82453
   R20        1.82194  -0.00022  -0.00145   0.00179   0.00037   1.82231
    A1        1.89377  -0.00041   0.00466  -0.00217   0.00240   1.89617
    A2        1.98570   0.00064  -0.00314   0.00226  -0.00085   1.98485
    A3        1.82505   0.00028   0.00708  -0.00339   0.00362   1.82867
    A4        1.88542  -0.00077  -0.00845   0.00268  -0.00573   1.87969
    A5        2.00425  -0.00012   0.00576  -0.00156   0.00411   2.00836
    A6        1.87246   0.00045  -0.00534   0.00211  -0.00324   1.86922
    A7        1.91168  -0.00034  -0.00266  -0.00149  -0.00417   1.90751
[...]
 ---------------------------------------------------------------------
 Center     Atomic      Atomic             Coordinates (Angstroms)
 Number     Number       Type             X           Y           Z
 ---------------------------------------------------------------------
      1         14           0       -2.017036    0.053375   -0.037758
      2          8           0       -2.892618   -1.030326   -0.915137
      3          8           0       -3.112930    0.960127    0.795804
      4          8           0       -1.036835    1.087173   -0.859488
      5          8           0       -0.967826   -0.855888    0.889312
      6          1           0       -1.311855   -1.698003    1.211797
      7          1           0       -0.120065    0.822786   -1.036552
      8          1           0       -2.812315    1.824218    1.100054
      9         14           0        3.077398   -0.168035    0.050592
     10          8           0        4.348960    0.710666    0.629880
     11          8           0        2.229504    0.830707   -0.986822
     12          8           0        2.143208   -0.649117    1.310866
     13          8           0        3.525853   -1.500227   -0.805219
     14          1           0        3.985285   -1.355144   -1.639863
     15          1           0        1.188893   -0.768349    1.172038
     16          1           0        4.633545    0.528452    1.532519
     17          1           0        2.356967    1.774677   -0.830086
     18          1           0       -3.765403   -0.745374   -1.208976
 ---------------------------------------------------------------------
                    Distance matrix (angstroms):
                    1          2          3          4          5
     1  Si   0.000000
     2  O    1.646464   0.000000
     3  O    1.648638   2.633963   0.000000
     4  O    1.644619   2.816173   2.658252   0.000000
     5  O    1.669449   2.644104   2.812138   2.615062   0.000000
     6  H    2.264066   2.732847   3.237680   3.481819   0.965148
     7  H    2.277736   3.337037   3.511928   0.970423   2.691765
     8  H    2.250105   3.495120   0.964153   2.745062   3.260295
     9  Si   5.100008   6.108786   6.336264   4.396670   4.188129
    10  O    6.434569   7.606483   7.467902   5.600604   5.548839
    11  O    4.420188   5.450203   5.633480   3.278865   4.072763
    12  O    4.429437   5.519054   5.521045   4.223484   3.146267
    13  O    5.807434   6.436587   7.258791   5.245541   4.845591
    14  H    6.370127   6.923603   7.853509   5.638758   5.583842
    15  H    3.523751   4.591695   4.651329   3.538916   2.176933
    16  H    6.849941   8.066222   7.793392   6.179569   5.805641
    17  H    4.766819   5.952597   5.764267   3.462862   4.574980
    18  H    2.250897   0.963998   2.711752   3.305367   3.498780
                    6          7          8          9         10
     6  H    0.000000
     7  H    3.581874   0.000000
     8  H    3.830132   3.579967   0.000000
     9  Si   4.791111   3.519570   6.305486   0.000000
    10  O    6.179414   4.770928   7.262570   1.650625   0.000000
    11  O    4.875400   2.350108   5.546354   1.671119   2.668376
    12  O    3.612124   3.577608   5.542476   1.640866   2.679197
    13  O    5.245082   4.329274   7.406373   1.645679   2.761352
    14  H    6.025713   4.686284   7.988921   2.256352   3.090561
    15  H    2.668254   3.020423   4.768255   2.276943   3.530927
    16  H    6.356709   5.411429   7.570129   2.258937   0.963819
    17  H    5.448766   2.661655   5.518094   2.251387   2.689175
    18  H    3.575967   3.972071   3.583685   6.981673   8.446558
                   11         12         13         14         15
    11  O    0.000000
    12  O    2.734355   0.000000
    13  O    2.673341   2.667191   0.000000
    14  H    2.878746   3.549440   0.963721   0.000000
    15  H    2.881064   0.971703   3.147470   4.008856   0.000000
    16  H    3.495404   2.763616   3.287482   3.745956   3.698278
    17  H    0.965345   3.241010   3.477342   3.619798   3.440913
    18  H    6.202603   6.424216   7.341337   7.786568   5.496800
                   16         17         18
    16  H    0.000000
    17  H    3.509670   0.000000
    18  H    8.926407   6.631562   0.000000
 Stoichiometry    H8O8Si2
 Framework group  C1[X(H8O8Si2)]
 Deg. of freedom    48
 Full point group                 C1      NOp   1
 Largest Abelian subgroup         C1      NOp   1
 Largest concise Abelian subgroup C1      NOp   1
                         Standard orientation:                         
 ---------------------------------------------------------------------
 Center     Atomic      Atomic             Coordinates (Angstroms)
 Number     Number       Type             X           Y           Z
 ---------------------------------------------------------------------
      1         14           0       -2.548406    0.011041   -0.015603
      2          8           0       -3.396862   -1.178351   -0.774757
      3          8           0       -3.664452    0.954140    0.747949
      4          8           0       -1.615527    0.996196   -0.945107
      5          8           0       -1.456268   -0.772312    0.974675
      6          1           0       -1.766528   -1.591834    1.379191
      7          1           0       -0.692444    0.747384   -1.111636
      8          1           0       -3.390279    1.852387    0.966060
      9         14           0        2.551366   -0.030169    0.011075
     10          8           0        3.798845    0.940776    0.486072
     11          8           0        1.655862    0.838711   -1.100572
     12          8           0        1.650825   -0.422973    1.325295
     13          8           0        3.034979   -1.420411   -0.724862
     14          1           0        3.478291   -1.338285   -1.576618
     15          1           0        0.699544   -0.586550    1.213433
     16          1           0        4.101205    0.852985    1.397016
     17          1           0        1.752318    1.796911   -1.033935
     18          1           0       -4.282766   -0.951413   -1.079659
 ---------------------------------------------------------------------
 Rotational constants (GHZ):           1.9712338           0.3389897           0.3353001

 **********************************************************************

            Population analysis using the SCF Density.

 **********************************************************************

 Orbital symmetries:
       Occupied  (A) (A) (A) (A) (A) (A) (A) (A) (A) (A) (A) (A)
                 (A) (A) (A) (A) (A) (A) (A) (A) (A) (A) (A) (A)
                 (A) (A) (A) (A) (A) (A) (A) (A) (A) (A) (A) (A)
                 (A) (A) (A) (A) (A) (A) (A) (A) (A) (A) (A) (A)
                 (A) (A)
       Virtual   (A) (A) (A) (A) (A) (A) (A) (A) (A) (A) (A) (A)
                 (A) (A) (A) (A) (A) (A) (A) (A) (A) (A) (A) (A)
                 (A) (A) (A) (A) (A) (A) (A) (A) (A) (A) (A) (A)
                 (A) (A) (A) (A) (A) (A) (A) (A) (A) (A) (A) (A)
                 (A) (A) (A) (A) (A) (A) (A) (A) (A) (A) (A) (A)
                 (A) (A) (A) (A) (A) (A) (A) (A) (A) (A) (A) (A)
                 (A) (A) (A) (A) (A) (A) (A) (A) (A) (A) (A) (A)
                 (A) (A) (A) (A) (A) (A) (A) (A) (A) (A) (A) (A)
                 (A) (A) (A) (A) (A) (A) (A) (A) (A) (A) (A) (A)
                 (A) (A) (A) (A) (A) (A) (A) (A) (A) (A) (A) (A)
                 (A) (A) (A) (A) (A) (A) (A) (A) (A) (A) (A) (A)
                 (A) (A) (A) (A) (A) (A) (A) (A) (A) (A) (A) (A)
                 (A) (A) (A) (A) (A) (A) (A) (A) (A) (A) (A) (A)
                 (A) (A) (A) (A) (A) (A) (A) (A) (A) (A) (A) (A)
                 (A) (A) (A) (A) (A) (A) (A) (A) (A) (A) (A) (A)
                 (A) (A) (A) (A) (A) (A) (A) (A)
 The electronic state is 1-A.
 Alpha  occ. eigenvalues --  -66.22791 -66.22251 -19.18175 -19.17645 -19.17546
 Alpha  occ. eigenvalues --  -19.17445 -19.17231 -19.16646 -19.16610 -19.15838
 Alpha  occ. eigenvalues --   -5.36104  -5.35572  -3.72115  -3.72079  -3.72050
 Alpha  occ. eigenvalues --   -3.71609  -3.71560  -3.71476  -1.05138  -1.04558
 Alpha  occ. eigenvalues --   -1.01845  -1.01340  -1.01174  -1.00891  -1.00490
 Alpha  occ. eigenvalues --   -0.99900  -0.60309  -0.59781  -0.54263  -0.54067
 Alpha  occ. eigenvalues --   -0.53775  -0.53545  -0.53240  -0.51676  -0.41610
 Alpha  occ. eigenvalues --   -0.40866  -0.39728  -0.39572  -0.38959  -0.38605
 Alpha  occ. eigenvalues --   -0.38143  -0.37647  -0.36552  -0.35886  -0.35797
 Alpha  occ. eigenvalues --   -0.34800  -0.33569  -0.32930  -0.32690  -0.32258
 Alpha virt. eigenvalues --   -0.03373  -0.01645   0.00975   0.01434   0.02013
 Alpha virt. eigenvalues --    0.02366   0.04115   0.06325   0.09502   0.10369
 Alpha virt. eigenvalues --    0.10805   0.11151   0.11480   0.12603   0.12957
 Alpha virt. eigenvalues --    0.13938   0.14261   0.14848   0.15177   0.15301
 Alpha virt. eigenvalues --    0.16125   0.16180   0.16285   0.17188   0.17309
 Alpha virt. eigenvalues --    0.18148   0.18889   0.19224   0.20022   0.20498
 Alpha virt. eigenvalues --    0.20748   0.21596   0.22127   0.22835   0.23743
 Alpha virt. eigenvalues --    0.24630   0.24732   0.25513   0.25985   0.26970
 Alpha virt. eigenvalues --    0.27365   0.28565   0.29333   0.29626   0.29936
 Alpha virt. eigenvalues --    0.32052   0.32720   0.34482   0.35363   0.36285
 Alpha virt. eigenvalues --    0.37005   0.37885   0.40287   0.40885   0.41532
 Alpha virt. eigenvalues --    0.44619   0.44934   0.45675   0.46929   0.47681
 Alpha virt. eigenvalues --    0.48889   0.50345   0.60343   0.61544   0.62467
 Alpha virt. eigenvalues --    0.64140   0.66102   0.71064   0.92729   0.93784
 Alpha virt. eigenvalues --    0.94045   0.94536   0.96281   0.96884   0.98281
 Alpha virt. eigenvalues --    0.98668   0.99789   1.00835   1.01939   1.02756
 Alpha virt. eigenvalues --    1.06102   1.09956   1.15447   1.16033   1.16541
 Alpha virt. eigenvalues --    1.17644   1.18251   1.18577   1.18823   1.19395
 Alpha virt. eigenvalues --    1.20826   1.21528   1.22363   1.22809   1.23275
 Alpha virt. eigenvalues --    1.24902   1.25388   1.26968   1.28350   1.28699
 Alpha virt. eigenvalues --    1.29189   1.30580   1.32867   1.33539   1.34677
 Alpha virt. eigenvalues --    1.36640   1.46462   1.47471   1.50474   1.51751
 Alpha virt. eigenvalues --    1.53785   1.56247   1.56874   1.58769   1.60220
 Alpha virt. eigenvalues --    1.60335   1.61058   1.61798   1.63067   1.64624
 Alpha virt. eigenvalues --    1.68665   1.70275   1.71414   1.72677   1.73958
 Alpha virt. eigenvalues --    1.74339   1.75505   1.77307   1.83716   1.88709
 Alpha virt. eigenvalues --    1.91062   1.91927   1.91966   1.94753   2.03101
 Alpha virt. eigenvalues --    2.03693   2.10733   2.11721   2.34091   2.35995
 Alpha virt. eigenvalues --    2.37214   2.37973   2.38479   2.39220   2.39715
 Alpha virt. eigenvalues --    2.41569   2.45480   2.47045   2.58368   2.59167
 Alpha virt. eigenvalues --    2.59436   2.59800   2.60726   2.61474   2.62474
 Alpha virt. eigenvalues --    2.62913   2.64152   2.64419   2.64783   2.65136
 Alpha virt. eigenvalues --    2.66993   2.68052   2.69561   2.71515   2.78668
 Alpha virt. eigenvalues --    2.79272   2.80297   2.80970   2.82873   2.83704
 Alpha virt. eigenvalues --    2.99970   3.00809   3.40058   3.40601   3.42225
 Alpha virt. eigenvalues --    3.42678   3.44602   3.45145   3.54232   3.61074
 Alpha virt. eigenvalues --    4.11384   4.12231   4.16162   4.17919   4.21107
 Alpha virt. eigenvalues --    4.21760   4.26905   4.31947
          Condensed to atoms (all electrons):
               1          2          3          4          5          6
     1  Si  11.636038   0.068051   0.062025   0.098933  -0.042521   0.025153
     2  O    0.068051   8.493764   0.030649  -0.015218   0.060467  -0.000982
     3  O    0.062025   0.030649   8.475100   0.037691   0.026578  -0.005729
     4  O    0.098933  -0.015218   0.037691   8.483368   0.057130   0.007488
     5  O   -0.042521   0.060467   0.026578   0.057130   8.654645   0.236487
     6  H    0.025153  -0.000982  -0.005729   0.007488   0.236487   0.351110
     7  H    0.013111  -0.004395   0.005137   0.248192  -0.001380   0.000046
     8  H    0.024734   0.006505   0.244670  -0.002124  -0.006263   0.000062
     9  Si  -0.008200  -0.000326   0.000208  -0.007672   0.001043  -0.000858
    10  O   -0.000071   0.000007  -0.000022   0.000077  -0.000112  -0.000005
    11  O   -0.000768  -0.000341   0.000082   0.003981  -0.001113   0.000178
    12  O   -0.010210  -0.000182   0.000068   0.003512   0.002447   0.001192
    13  O    0.000243  -0.000080   0.000003  -0.000304  -0.000412   0.000037
    14  H   -0.000113   0.000000   0.000000   0.000012   0.000018  -0.000000
    15  H    0.002578   0.000098   0.000250  -0.001585   0.007629  -0.000519
    16  H    0.000043  -0.000000   0.000000   0.000003   0.000007  -0.000000
    17  H   -0.000140  -0.000008   0.000007   0.000014  -0.000027  -0.000000
    18  H    0.028186   0.237874  -0.002006  -0.005200   0.004142   0.000091
               7          8          9         10         11         12
     1  Si   0.013111   0.024734  -0.008200  -0.000071  -0.000768  -0.010210
     2  O   -0.004395   0.006505  -0.000326   0.000007  -0.000341  -0.000182
     3  O    0.005137   0.244670   0.000208  -0.000022   0.000082   0.000068
     4  O    0.248192  -0.002124  -0.007672   0.000077   0.003981   0.003512
     5  O   -0.001380  -0.006263   0.001043  -0.000112  -0.001113   0.002447
     6  H    0.000046   0.000062  -0.000858  -0.000005   0.000178   0.001192
     7  H    0.317367   0.000051   0.002978   0.000041   0.006416  -0.000595
     8  H    0.000051   0.358581  -0.000070   0.000000   0.000016  -0.000002
     9  Si   0.002978  -0.000070  11.630967   0.014938  -0.008704   0.118055
    10  O    0.000041   0.000000   0.014938   8.550451   0.083996   0.054230
    11  O    0.006416   0.000016  -0.008704   0.083996   8.612825   0.019865
    12  O   -0.000595  -0.000002   0.118055   0.054230   0.019865   8.453478
    13  O   -0.000530  -0.000000   0.080802  -0.036024   0.033687   0.032704
    14  H    0.000001   0.000000   0.039725  -0.005270  -0.008162   0.006042
    15  H   -0.000124   0.000001   0.009929   0.005152  -0.002329   0.260657
    16  H   -0.000001  -0.000000   0.023356   0.249694   0.002470  -0.001654
    17  H   -0.000758  -0.000000   0.030747  -0.000677   0.238317  -0.007411
    18  H    0.000029   0.000066   0.000031   0.000000  -0.000005   0.000001
              13         14         15         16         17         18
     1  Si   0.000243  -0.000113   0.002578   0.000043  -0.000140   0.028186
     2  O   -0.000080   0.000000   0.000098  -0.000000  -0.000008   0.237874
     3  O    0.000003   0.000000   0.000250   0.000000   0.000007  -0.002006
     4  O   -0.000304   0.000012  -0.001585   0.000003   0.000014  -0.005200
     5  O   -0.000412   0.000018   0.007629   0.000007  -0.000027   0.004142
     6  H    0.000037  -0.000000  -0.000519  -0.000000  -0.000000   0.000091
     7  H   -0.000530   0.000001  -0.000124  -0.000001  -0.000758   0.000029
     8  H   -0.000000   0.000000   0.000001  -0.000000  -0.000000   0.000066
     9  Si   0.080802   0.039725   0.009929   0.023356   0.030747   0.000031
    10  O   -0.036024  -0.005270   0.005152   0.249694  -0.000677   0.000000
    11  O    0.033687  -0.008162  -0.002329   0.002470   0.238317  -0.000005
    12  O    0.032704   0.006042   0.260657  -0.001654  -0.007411   0.000001
    13  O    8.446653   0.236390  -0.004914  -0.003265   0.003305  -0.000000
    14  H    0.236390   0.370765  -0.000006   0.000045   0.000115  -0.000000
    15  H   -0.004914  -0.000006   0.297679  -0.000003   0.000036  -0.000001
    16  H   -0.003265   0.000045  -0.000003   0.350349   0.000098  -0.000000
    17  H    0.003305   0.000115   0.000036   0.000098   0.354436   0.000000
    18  H   -0.000000  -0.000000  -0.000001  -0.000000   0.000000   0.358954
 Mulliken charges:
               1
     1  Si   2.102927
     2  O   -0.875882
     3  O   -0.874711
     4  O   -0.908299
     5  O   -0.998764
     6  H    0.386251
     7  H    0.414413
     8  H    0.373772
     9  Si   2.073054
    10  O   -0.916405
    11  O   -0.980414
    12  O   -0.932197
    13  O   -0.788295
    14  H    0.360438
    15  H    0.425471
    16  H    0.378857
    17  H    0.381946
    18  H    0.377836
 Sum of Mulliken charges =  -0.00000
 Mulliken charges with hydrogens summed into heavy atoms:
               1
     1  Si   2.102927
     2  O   -0.498046
     3  O   -0.500938
     4  O   -0.493886
     5  O   -0.612513
     9  Si   2.073054
    10  O   -0.537547
    11  O   -0.598468
    12  O   -0.506726
    13  O   -0.427857
 Electronic spatial extent (au):  <R**2>=           3220.4502
 Charge=             -0.0000 electrons
 Dipole moment (field-independent basis, Debye):
    X=             -0.3778    Y=              1.3050    Z=              0.2735  Tot=              1.3858
 Quadrupole moment (field-independent basis, Debye-Ang):
   XX=            -64.5092   YY=            -69.6866   ZZ=            -69.4520
   XY=              2.4796   XZ=             -1.1712   YZ=              1.3069
 Traceless Quadrupole moment (field-independent basis, Debye-Ang):
   XX=              3.3734   YY=             -1.8040   ZZ=             -1.5694
   XY=              2.4796   XZ=             -1.1712   YZ=              1.3069
 Octapole moment (field-independent basis, Debye-Ang**2):
  XXX=             -5.3138  YYY=             19.7413  ZZZ=             -1.6555  XYY=            -13.9845
  XXY=             -3.9281  XXZ=            -13.0015  XZZ=             15.6132  YZZ=             -4.0111
  YYZ=              9.9900  XYZ=              7.5436
 Hexadecapole moment (field-independent basis, Debye-Ang**3):
 XXXX=          -2940.5565 YYYY=           -354.0004 ZZZZ=           -341.2601 XXXY=              8.1741
 XXXZ=            152.7563 YYYX=             -4.8526 YYYZ=             -8.7539 ZZZX=            -11.9372
 ZZZY=             14.0240 XXYY=           -592.0933 XXZZ=           -471.6982 YYZZ=            -99.3135
 XXYZ=             55.7209 YYXZ=            -48.4647 ZZXY=              6.5522
 N-N= 7.935010127123D+02 E-N=-4.396815776474D+03  KE= 1.178115431076D+03
 1\1\GINC-GRA608\FOpt\RB3LYP\6-31+G(d,p)\H8O8Si2\SARASHS\11-Aug-2020\0\
 \#n B3LYP/6-31+G(d,p) EmpiricalDispersion=GD3 Opt=modredundant\\Title\
 \0,1\Si,-2.0170359046,0.0533752543,-0.0377583857\O,-2.8926180071,-1.03
 03255588,-0.9151370698\O,-3.112929583,0.9601268109,0.7958044466\O,-1.0
 368349153,1.0871733662,-0.8594877595\O,-0.9678259477,-0.8558877586,0.8
 893115401\H,-1.3118554582,-1.6980030812,1.2117973293\H,-0.1200645488,0
 .8227859363,-1.0365523846\H,-2.8123148547,1.8242184536,1.100053564\Si,
 3.0773977881,-0.1680349787,0.0505916948\O,4.3489604729,0.7106660701,0.
 6298802196\O,2.2295036978,0.8307073387,-0.9868217901\O,2.1432082403,-0
 .6491172902,1.3108664055\O,3.525852521,-1.5002265758,-0.8052191427\H,3
 .9852849306,-1.3551438769,-1.6398634767\H,1.1888933077,-0.7683493302,1
 .1720381208\H,4.6335445049,0.5284523384,1.532519075\H,2.3569665994,1.7
 746767249,-0.8300863212\H,-3.765402843,-0.7453738431,-1.2089760653\\Ve
 rsion=ES64L-G16RevB.01\State=1-A\HF=-1186.0620692\RMSD=6.867e-09\RMSF=
 1.756e-03\Dipole=-0.1330514,0.5061232,0.1529901\Quadrupole=2.6532301,-
 1.6476259,-1.0056042,1.7586364,-0.6162443,0.9853345\PG=C01 [X(H8O8Si2)
 ]\\@


 Where a calculator on the ENIAC is equipped with 18,000
 vacuum tubes and weighs 30 tons, computers inthe future
 may  have only 1,000 vacuum tubes and weigh only 1 1/2 tons.
              ---Popular Mechanics, March 1949
 Job cpu time:       0 days  3 hours 45 minutes 57.2 seconds.
 Elapsed time:       0 days  0 hours 14 minutes 32.2 seconds.
 File lengths (MBytes):  RWF=     40 Int=      0 D2E=      0 Chk=      5 Scr=      1
 Normal termination of Gaussian 16 at Tue Aug 11 13:30:32 2020.
