 Entering Gaussian System, Link 0=g16
 Initial command:
 /opt/software/gaussian/g16.b01/l1.exe "/localscratch/sarashs.36560094.0/Gau-208472.inp" -scrdir="/localscratch/sarashs.36560094.0/"
 Entering Link 1 = /opt/software/gaussian/g16.b01/l1.exe PID=    208477.
  
 Copyright (c) 1988-2017, Gaussian, Inc.  All Rights Reserved.
  
 This is part of the Gaussian(R) 16 program.  It is based on
 the Gaussian(R) 09 system (copyright 2009, Gaussian, Inc.),
 the Gaussian(R) 03 system (copyright 2003, Gaussian, Inc.),
 the Gaussian(R) 98 system (copyright 1998, Gaussian, Inc.),
 the Gaussian(R) 94 system (copyright 1995, Gaussian, Inc.),
 the Gaussian 92(TM) system (copyright 1992, Gaussian, Inc.),
 the Gaussian 90(TM) system (copyright 1990, Gaussian, Inc.),
 the Gaussian 88(TM) system (copyright 1988, Gaussian, Inc.),
 the Gaussian 86(TM) system (copyright 1986, Carnegie Mellon
 University), and the Gaussian 82(TM) system (copyright 1983,
 Carnegie Mellon University). Gaussian is a federally registered
 trademark of Gaussian, Inc.
  
 This software contains proprietary and confidential information,
 including trade secrets, belonging to Gaussian, Inc.
  
 This software is provided under written license and may be
 used, copied, transmitted, or stored only in accord with that
 written license.
  
 The following legend is applicable only to US Government
 contracts under FAR:
  
                    RESTRICTED RIGHTS LEGEND
  
 Use, reproduction and disclosure by the US Government is
 subject to restrictions as set forth in subparagraphs (a)
 and (c) of the Commercial Computer Software - Restricted
 Rights clause in FAR 52.227-19.
  
 Gaussian, Inc.
 340 Quinnipiac St., Bldg. 40, Wallingford CT 06492
  
  
 ---------------------------------------------------------------
 Warning -- This program may not be used in any manner that
 competes with the business of Gaussian, Inc. or will provide
 assistance to any competitor of Gaussian, Inc.  The licensee
 of this program is prohibited from giving any competitor of
 Gaussian, Inc. access to this program.  By using this program,
 the user acknowledges that Gaussian, Inc. is engaged in the
 business of creating and licensing software in the field of
 computational chemistry and represents and warrants to the
 licensee that it is not a competitor of Gaussian, Inc. and that
 it will not use this program in any manner prohibited above.
 ---------------------------------------------------------------
  

 Cite this work as:
 Gaussian 16, Revision B.01,
 M. J. Frisch, G. W. Trucks, H. B. Schlegel, G. E. Scuseria, 
 M. A. Robb, J. R. Cheeseman, G. Scalmani, V. Barone, 
 G. A. Petersson, H. Nakatsuji, X. Li, M. Caricato, A. V. Marenich, 
 J. Bloino, B. G. Janesko, R. Gomperts, B. Mennucci, H. P. Hratchian, 
 J. V. Ortiz, A. F. Izmaylov, J. L. Sonnenberg, D. Williams-Young, 
 F. Ding, F. Lipparini, F. Egidi, J. Goings, B. Peng, A. Petrone, 
 T. Henderson, D. Ranasinghe, V. G. Zakrzewski, J. Gao, N. Rega, 
 G. Zheng, W. Liang, M. Hada, M. Ehara, K. Toyota, R. Fukuda, 
 J. Hasegawa, M. Ishida, T. Nakajima, Y. Honda, O. Kitao, H. Nakai, 
 T. Vreven, K. Throssell, J. A. Montgomery, Jr., J. E. Peralta, 
 F. Ogliaro, M. J. Bearpark, J. J. Heyd, E. N. Brothers, K. N. Kudin, 
 V. N. Staroverov, T. A. Keith, R. Kobayashi, J. Normand, 
 K. Raghavachari, A. P. Rendell, J. C. Burant, S. S. Iyengar, 
 J. Tomasi, M. Cossi, J. M. Millam, M. Klene, C. Adamo, R. Cammi, 
 J. W. Ochterski, R. L. Martin, K. Morokuma, O. Farkas, 
 J. B. Foresman, and D. J. Fox, Gaussian, Inc., Wallingford CT, 2016.
 
 ******************************************
 Gaussian 16:  ES64L-G16RevB.01 20-Dec-2017
                29-Jul-2020 
 ******************************************
 %NProcShared=16
 Will use up to   16 processors via shared memory.
 -------------------------------------------------------------
 #n B3LYP/6-31+G(d,p) EmpiricalDispersion=GD3 Opt=modredundant
 -------------------------------------------------------------
 1/18=120,19=15,26=3,38=1/1,3;
 2/9=110,12=2,17=6,18=5,40=1/2;
 3/5=1,6=6,7=111,11=2,25=1,30=1,71=1,74=-5,124=31/1,2,3;
 4//1;
 5/5=2,38=5/2;
 6/7=2,8=2,9=2,10=2,28=1/1;
 7//1,2,3,16;
 1/18=20,19=15,26=3/3(2);
 2/9=110/2;
 99//99;
 2/9=110/2;
 3/5=1,6=6,7=111,11=2,25=1,30=1,71=1,74=-5,124=31/1,2,3;
 4/5=5,16=3,69=1/1;
 5/5=2,38=5/2;
 7//1,2,3,16;
 1/18=20,19=15,26=3/3(-5);
 2/9=110/2;
 6/7=2,8=2,9=2,10=2,19=2,28=1/1;
 99/9=1/99;
 -----
 Title
 -----
 Symbolic Z-matrix:
 Charge =  0 Multiplicity = 1
 Si                   -5.92292  -0.69022  -0.4483 
 O                    -4.3021   -0.86857  -0.22827 
 O                    -6.22667   0.84479  -0.92229 
 O                    -6.70155  -0.98952   0.95887 
 O                    -6.43317  -1.75218  -1.58206 
 H                    -5.82881  -1.86426  -2.33397 
 H                    -7.08686  -1.87798   1.01175 
 H                    -7.11674   1.15904  -0.70301 
 Si                   -3.31018  -2.97416  -1.406 
 O                    -1.79319  -2.57507  -0.93631 
 O                    -4.23059  -3.30155  -0.09125 
 O                    -3.24876  -4.28448  -2.38516 
 O                    -3.98384  -1.70788  -2.2029 
 H                    -4.00478  -0.89769  -1.66505 
 H                    -4.11864  -4.64444  -2.60985 
 H                    -1.10594  -3.06413  -1.41428 
 H                    -4.35706  -2.53859   0.49456 
 H                    -3.92809  -0.17095   0.33476 
 
 Add virtual bond connecting atoms H14        and O2         Dist= 2.77D+00.
 The following ModRedundant input section has been read:
 B       1       9 F                                                           
 

 GradGradGradGradGradGradGradGradGradGradGradGradGradGradGradGradGradGrad
 Berny optimization.
 Initialization pass.
                           ----------------------------
                           !    Initial Parameters    !
                           ! (Angstroms and Degrees)  !
 --------------------------                            --------------------------
 ! Name  Definition              Value          Derivative Info.                !
 --------------------------------------------------------------------------------
 ! R1    R(1,2)                  1.6454         estimate D2E/DX2                !
 ! R2    R(1,3)                  1.635          estimate D2E/DX2                !
 ! R3    R(1,4)                  1.6358         estimate D2E/DX2                !
 ! R4    R(1,5)                  1.6351         estimate D2E/DX2                !
 ! R5    R(1,9)                  3.6            Frozen                          !
 ! R6    R(2,14)                 1.4675         estimate D2E/DX2                !
 ! R7    R(2,18)                 0.9714         estimate D2E/DX2                !
 ! R8    R(3,8)                  0.9691         estimate D2E/DX2                !
 ! R9    R(4,7)                  0.9699         estimate D2E/DX2                !
 ! R10   R(5,6)                  0.9712         estimate D2E/DX2                !
 ! R11   R(9,10)                 1.6374         estimate D2E/DX2                !
 ! R12   R(9,11)                 1.638          estimate D2E/DX2                !
 ! R13   R(9,12)                 1.6369         estimate D2E/DX2                !
 ! R14   R(9,13)                 1.6408         estimate D2E/DX2                !
 ! R15   R(10,16)                0.9695         estimate D2E/DX2                !
 ! R16   R(11,17)                0.9702         estimate D2E/DX2                !
 ! R17   R(12,15)                0.9679         estimate D2E/DX2                !
 ! R18   R(13,14)                0.9727         estimate D2E/DX2                !
 ! A1    A(2,1,3)              108.8772         estimate D2E/DX2                !
 ! A2    A(2,1,4)              109.5124         estimate D2E/DX2                !
 ! A3    A(2,1,5)              109.2523         estimate D2E/DX2                !
 ! A4    A(3,1,4)              109.4344         estimate D2E/DX2                !
 ! A5    A(3,1,5)              110.5346         estimate D2E/DX2                !
 ! A6    A(4,1,5)              109.214          estimate D2E/DX2                !
 ! A7    A(1,2,14)              94.0601         estimate D2E/DX2                !
 ! A8    A(1,2,18)             112.2687         estimate D2E/DX2                !
 ! A9    A(14,2,18)            120.2471         estimate D2E/DX2                !
 ! A10   A(1,3,8)              114.1731         estimate D2E/DX2                !
 ! A11   A(1,4,7)              113.8041         estimate D2E/DX2                !
 ! A12   A(1,5,6)              114.6833         estimate D2E/DX2                !
 ! A13   A(10,9,11)            109.82           estimate D2E/DX2                !
 ! A14   A(10,9,12)            109.3858         estimate D2E/DX2                !
 ! A15   A(10,9,13)            109.3648         estimate D2E/DX2                !
 ! A16   A(11,9,12)            109.9517         estimate D2E/DX2                !
 ! A17   A(11,9,13)            108.2631         estimate D2E/DX2                !
 ! A18   A(12,9,13)            110.0383         estimate D2E/DX2                !
 ! A19   A(9,10,16)            113.1017         estimate D2E/DX2                !
 ! A20   A(9,11,17)            113.6237         estimate D2E/DX2                !
 ! A21   A(9,12,15)            113.7569         estimate D2E/DX2                !
 ! A22   A(9,13,14)            112.5252         estimate D2E/DX2                !
 ! A23   A(2,14,13)            124.2123         estimate D2E/DX2                !
 ! D1    D(3,1,2,14)           -74.6107         estimate D2E/DX2                !
 ! D2    D(3,1,2,18)            50.4723         estimate D2E/DX2                !
 ! D3    D(4,1,2,14)           165.77           estimate D2E/DX2                !
 ! D4    D(4,1,2,18)           -69.147          estimate D2E/DX2                !
 ! D5    D(5,1,2,14)            46.1928         estimate D2E/DX2                !
 ! D6    D(5,1,2,18)           171.2758         estimate D2E/DX2                !
 ! D7    D(2,1,3,8)           -154.199          estimate D2E/DX2                !
 ! D8    D(4,1,3,8)            -34.5313         estimate D2E/DX2                !
 ! D9    D(5,1,3,8)             85.7881         estimate D2E/DX2                !
 ! D10   D(2,1,4,7)           -100.0138         estimate D2E/DX2                !
 ! D11   D(3,1,4,7)            140.7097         estimate D2E/DX2                !
 ! D12   D(5,1,4,7)             19.587          estimate D2E/DX2                !
 ! D13   D(2,1,5,6)            -39.7339         estimate D2E/DX2                !
 ! D14   D(3,1,5,6)             80.0535         estimate D2E/DX2                !
 ! D15   D(4,1,5,6)           -159.4953         estimate D2E/DX2                !
 ! D16   D(1,2,14,13)          -89.8429         estimate D2E/DX2                !
 ! D17   D(18,2,14,13)         151.3956         estimate D2E/DX2                !
 ! D18   D(11,9,10,16)         130.3438         estimate D2E/DX2                !
 ! D19   D(12,9,10,16)           9.5908         estimate D2E/DX2                !
 ! D20   D(13,9,10,16)        -110.9862         estimate D2E/DX2                !
 ! D21   D(10,9,11,17)          63.842          estimate D2E/DX2                !
 ! D22   D(12,9,11,17)        -175.7474         estimate D2E/DX2                !
 ! D23   D(13,9,11,17)         -55.5049         estimate D2E/DX2                !
 ! D24   D(10,9,12,15)         172.6026         estimate D2E/DX2                !
 ! D25   D(11,9,12,15)          51.9299         estimate D2E/DX2                !
 ! D26   D(13,9,12,15)         -67.2318         estimate D2E/DX2                !
 ! D27   D(10,9,13,14)         -57.463          estimate D2E/DX2                !
 ! D28   D(11,9,13,14)          62.1705         estimate D2E/DX2                !
 ! D29   D(12,9,13,14)        -177.6412         estimate D2E/DX2                !
 ! D30   D(9,13,14,2)          -39.1474         estimate D2E/DX2                !
 --------------------------------------------------------------------------------
 Trust Radius=3.00D-01 FncErr=1.00D-07 GrdErr=1.00D-06 EigMax=2.50D+02 EigMin=1.00D-04
 Number of steps in this run=     81 maximum allowed number of steps=    108.
 GradGradGradGradGradGradGradGradGradGradGradGradGradGradGradGradGradGrad

                          Input orientation:                          
 ---------------------------------------------------------------------
 Center     Atomic      Atomic             Coordinates (Angstroms)
 Number     Number       Type             X           Y           Z
 ---------------------------------------------------------------------
      1         14           0       -5.922920   -0.690220   -0.448300
      2          8           0       -4.302100   -0.868570   -0.228270
      3          8           0       -6.226670    0.844790   -0.922290
      4          8           0       -6.701550   -0.989520    0.958870
      5          8           0       -6.433170   -1.752180   -1.582060
      6          1           0       -5.828810   -1.864260   -2.333970
      7          1           0       -7.086860   -1.877980    1.011750
      8          1           0       -7.116740    1.159040   -0.703010
      9         14           0       -3.310180   -2.974160   -1.406000
     10          8           0       -1.793190   -2.575070   -0.936310
     11          8           0       -4.230590   -3.301550   -0.091250
     12          8           0       -3.248760   -4.284480   -2.385160
     13          8           0       -3.983840   -1.707880   -2.202900
     14          1           0       -4.004780   -0.897690   -1.665050
     15          1           0       -4.118640   -4.644440   -2.609850
     16          1           0       -1.105940   -3.064130   -1.414280
     17          1           0       -4.357060   -2.538590    0.494560
     18          1           0       -3.928090   -0.170950    0.334760
 ---------------------------------------------------------------------
                    Distance matrix (angstroms):
                    1          2          3          4          5
     1  Si   0.000000
     2  O    1.645381   0.000000
     3  O    1.634988   2.668564   0.000000
     4  O    1.635840   2.679793   2.670013   0.000000
     5  O    1.635092   2.674878   2.687414   2.666459   0.000000
     6  H    2.223281   2.784998   3.080598   3.517050   0.971175
     7  H    2.212979   3.211144   3.448755   0.969856   2.677870
     8  H    2.215817   3.501254   0.969052   2.747824   3.116921
     9  Si   3.599997   2.608536   4.829521   4.586153   3.358169
    10  O    4.565685   3.115781   5.599231   5.495241   4.756423
    11  O    3.132173   2.437884   4.676227   3.543145   3.078055
    12  O    4.880703   4.174942   6.108793   5.827612   4.147045
    13  O    2.806116   2.169077   3.631305   4.230695   2.527177
    14  H    2.280962   1.467509   2.919713   3.763769   2.575678
    15  H    4.854233   4.467972   6.117458   5.724127   3.844290
    16  H    5.456360   4.054940   6.460928   6.422359   5.488966
    17  H    2.599495   1.820569   4.117058   2.848128   3.039905
    18  H    2.205033   0.971370   2.809871   2.958319   3.528443
                    6          7          8          9         10
     6  H    0.000000
     7  H    3.574454   0.000000
     8  H    3.668670   3.487805   0.000000
     9  Si   2.904566   4.616323   5.662812   0.000000
    10  O    4.329542   5.683644   6.506780   1.637419   0.000000
    11  O    3.106429   3.376602   5.347988   1.637958   2.680078
    12  O    3.537901   5.662266   6.886422   1.636907   2.672065
    13  O    1.856219   4.471201   4.503772   1.640833   2.674924
    14  H    2.169976   4.198267   3.852266   2.204836   2.869808
    15  H    3.275697   5.438715   6.804779   2.211944   3.534225
    16  H    4.958933   6.562315   7.380433   2.206091   0.969509
    17  H    3.259041   2.855818   4.766810   2.213099   2.936350
    18  H    3.688110   3.653778   3.607399   3.357089   3.457341
                   11         12         13         14         15
    11  O    0.000000
    12  O    2.681821   0.000000
    13  O    2.657016   2.685597   0.000000
    14  H    2.882079   3.544076   0.972692   0.000000
    15  H    2.856437   0.967857   2.967687   3.865714   0.000000
    16  H    3.401502   2.650196   3.277750   3.627619   3.605985
    17  H    0.970194   3.545314   2.847045   2.735063   3.758831
    18  H    3.173901   4.978010   2.967319   2.129148   5.359025
                   16         17         18
    16  H    0.000000
    17  H    3.806526   0.000000
    18  H    4.403880   2.411487   0.000000
 Stoichiometry    H8O8Si2
 Framework group  C1[X(H8O8Si2)]
 Deg. of freedom    48
 Full point group                 C1      NOp   1
 Largest Abelian subgroup         C1      NOp   1
 Largest concise Abelian subgroup C1      NOp   1
                         Standard orientation:                         
 ---------------------------------------------------------------------
 Center     Atomic      Atomic             Coordinates (Angstroms)
 Number     Number       Type             X           Y           Z
 ---------------------------------------------------------------------
      1         14           0       -1.788237   -0.005834   -0.011798
      2          8           0       -0.558895    1.062554    0.221750
      3          8           0       -2.851580    0.635524   -1.075353
      4          8           0       -2.544595   -0.288017    1.410970
      5          8           0       -1.179777   -1.410811   -0.585679
      6          1           0       -0.466891   -1.307971   -1.237139
      7          1           0       -2.276347   -1.115688    1.839485
      8          1           0       -3.755560    0.298324   -0.984924
      9         14           0        1.811717   -0.004207    0.005698
     10          8           0        2.532819    1.449025    0.227661
     11          8           0        0.995267   -0.431669    1.359799
     12          8           0        2.950276   -1.128795   -0.338470
     13          8           0        0.737377    0.104555   -1.229735
     14          1           0        0.064038    0.790081   -1.078749
     15          1           0        2.607653   -2.033413   -0.370478
     16          1           0        3.470239    1.450268   -0.019707
     17          1           0        0.262262    0.165763    1.576718
     18          1           0       -0.881256    1.954272    0.432658
 ---------------------------------------------------------------------
 Rotational constants (GHZ):           2.0083349           0.5802152           0.5764372
 Standard basis: 6-31+G(d,p) (6D, 7F)
 There are   238 symmetry adapted cartesian basis functions of A   symmetry.
 There are   238 symmetry adapted basis functions of A   symmetry.
   238 basis functions,   424 primitive gaussians,   238 cartesian basis functions
    50 alpha electrons       50 beta electrons
       nuclear repulsion energy       899.4629239101 Hartrees.
 NAtoms=   18 NActive=   18 NUniq=   18 SFac= 1.00D+00 NAtFMM=   60 NAOKFM=F Big=F
 Integral buffers will be    131072 words long.
 Raffenetti 2 integral format.
 Two-electron integral symmetry is turned on.
 Nuclear repulsion after empirical dispersion term =      899.4464824001 Hartrees.
 One-electron integrals computed using PRISM.
 NBasis=   238 RedAO= T EigKep=  2.06D-04  NBF=   238
 NBsUse=   238 1.00D-06 EigRej= -1.00D+00 NBFU=   238
 ExpMin= 3.31D-02 ExpMax= 1.61D+04 ExpMxC= 2.43D+03 IAcc=3 IRadAn=         5 AccDes= 0.00D+00
 Harris functional with IExCor=  402 and IRadAn=       5 diagonalized for initial guess.
 HarFok:  IExCor=  402 AccDes= 0.00D+00 IRadAn=         5 IDoV= 1 UseB2=F ITyADJ=14
 ICtDFT=  3500011 ScaDFX=  1.000000  1.000000  1.000000  1.000000
 FoFCou: FMM=F IPFlag=           0 FMFlag=      100000 FMFlg1=           0
         NFxFlg=           0 DoJE=T BraDBF=F KetDBF=T FulRan=T
         wScrn=  0.000000 ICntrl=       500 IOpCl=  0 I1Cent=   200000004 NGrid=           0
         NMat0=    1 NMatS0=      1 NMatT0=    0 NMatD0=    1 NMtDS0=    0 NMtDT0=    0
 Petite list used in FoFCou.
 Requested convergence on RMS density matrix=1.00D-08 within 128 cycles.
 Requested convergence on MAX density matrix=1.00D-06.
 Requested convergence on             energy=1.00D-06.
 No special actions if energy rises.
 SCF Done:  E(RB3LYP) =  -1186.00016852     A.U. after   12 cycles
            NFock= 12  Conv=0.29D-08     -V/T= 2.0060

 **********************************************************************

            Population analysis using the SCF Density.

 **********************************************************************

 Orbital symmetries:
       Occupied  (A) (A) (A) (A) (A) (A) (A) (A) (A) (A) (A) (A)
                 (A) (A) (A) (A) (A) (A) (A) (A) (A) (A) (A) (A)
                 (A) (A) (A) (A) (A) (A) (A) (A) (A) (A) (A) (A)
                 (A) (A) (A) (A) (A) (A) (A) (A) (A) (A) (A) (A)
                 (A) (A)
       Virtual   (A) (A) (A) (A) (A) (A) (A) (A) (A) (A) (A) (A)
                 (A) (A) (A) (A) (A) (A) (A) (A) (A) (A) (A) (A)
                 (A) (A) (A) (A) (A) (A) (A) (A) (A) (A) (A) (A)
                 (A) (A) (A) (A) (A) (A) (A) (A) (A) (A) (A) (A)
                 (A) (A) (A) (A) (A) (A) (A) (A) (A) (A) (A) (A)
                 (A) (A) (A) (A) (A) (A) (A) (A) (A) (A) (A) (A)
                 (A) (A) (A) (A) (A) (A) (A) (A) (A) (A) (A) (A)
                 (A) (A) (A) (A) (A) (A) (A) (A) (A) (A) (A) (A)
                 (A) (A) (A) (A) (A) (A) (A) (A) (A) (A) (A) (A)
                 (A) (A) (A) (A) (A) (A) (A) (A) (A) (A) (A) (A)
                 (A) (A) (A) (A) (A) (A) (A) (A) (A) (A) (A) (A)
                 (A) (A) (A) (A) (A) (A) (A) (A) (A) (A) (A) (A)
                 (A) (A) (A) (A) (A) (A) (A) (A) (A) (A) (A) (A)
                 (A) (A) (A) (A) (A) (A) (A) (A) (A) (A) (A) (A)
                 (A) (A) (A) (A) (A) (A) (A) (A) (A) (A) (A) (A)
                 (A) (A) (A) (A) (A) (A) (A) (A)
 The electronic state is 1-A.
 Alpha  occ. eigenvalues --  -66.23639 -66.20361 -19.21738 -19.18800 -19.18541
 Alpha  occ. eigenvalues --  -19.16793 -19.15965 -19.15865 -19.14329 -19.13534
 Alpha  occ. eigenvalues --   -5.37283  -5.33932  -3.73335  -3.73199  -3.73184
 Alpha  occ. eigenvalues --   -3.69965  -3.69879  -3.69841  -1.10503  -1.04942
 Alpha  occ. eigenvalues --   -1.03621  -1.02761  -1.01308  -1.00464  -0.99449
 Alpha  occ. eigenvalues --   -0.98923  -0.62696  -0.59305  -0.57111  -0.55580
 Alpha  occ. eigenvalues --   -0.54081  -0.53638  -0.52734  -0.51722  -0.47069
 Alpha  occ. eigenvalues --   -0.42173  -0.41658  -0.40198  -0.39871  -0.38422
 Alpha  occ. eigenvalues --   -0.38045  -0.37626  -0.37110  -0.36128  -0.35026
 Alpha  occ. eigenvalues --   -0.34590  -0.34107  -0.32038  -0.31865  -0.29800
 Alpha virt. eigenvalues --   -0.03928  -0.00674  -0.00026   0.00841   0.02167
 Alpha virt. eigenvalues --    0.03702   0.05160   0.07096   0.08090   0.09686
 Alpha virt. eigenvalues --    0.10257   0.11198   0.12008   0.12468   0.13275
 Alpha virt. eigenvalues --    0.13468   0.13716   0.14439   0.15616   0.16134
 Alpha virt. eigenvalues --    0.16632   0.17373   0.17673   0.18571   0.18669
 Alpha virt. eigenvalues --    0.19306   0.19638   0.20587   0.21564   0.22096
 Alpha virt. eigenvalues --    0.22504   0.22952   0.24007   0.24379   0.25191
 Alpha virt. eigenvalues --    0.25927   0.26346   0.27599   0.28338   0.28739
 Alpha virt. eigenvalues --    0.29656   0.29863   0.30656   0.30919   0.31185
 Alpha virt. eigenvalues --    0.33038   0.34444   0.34529   0.37563   0.37888
 Alpha virt. eigenvalues --    0.38924   0.39309   0.40939   0.42061   0.44237
 Alpha virt. eigenvalues --    0.44670   0.48797   0.50693   0.51542   0.52385
 Alpha virt. eigenvalues --    0.54227   0.57737   0.61063   0.62610   0.65033
 Alpha virt. eigenvalues --    0.65459   0.68506   0.76296   0.91028   0.93417
 Alpha virt. eigenvalues --    0.94298   0.94770   0.95783   0.97422   0.98656
 Alpha virt. eigenvalues --    0.99324   1.00065   1.01868   1.04957   1.05416
 Alpha virt. eigenvalues --    1.08374   1.10430   1.14805   1.16173   1.17372
 Alpha virt. eigenvalues --    1.17975   1.19435   1.19950   1.19995   1.20531
 Alpha virt. eigenvalues --    1.22330   1.22746   1.23509   1.25100   1.25796
 Alpha virt. eigenvalues --    1.26902   1.27283   1.28685   1.29825   1.30576
 Alpha virt. eigenvalues --    1.32728   1.33180   1.34495   1.36931   1.39332
 Alpha virt. eigenvalues --    1.43902   1.45448   1.49736   1.53853   1.54684
 Alpha virt. eigenvalues --    1.55911   1.58559   1.59686   1.60192   1.61561
 Alpha virt. eigenvalues --    1.64081   1.65359   1.66577   1.68683   1.70008
 Alpha virt. eigenvalues --    1.70713   1.72237   1.73559   1.76153   1.77770
 Alpha virt. eigenvalues --    1.80427   1.85344   1.86996   1.91581   1.92367
 Alpha virt. eigenvalues --    1.94000   1.97681   2.02926   2.03691   2.07700
 Alpha virt. eigenvalues --    2.10927   2.15927   2.20954   2.36028   2.37617
 Alpha virt. eigenvalues --    2.38389   2.38937   2.40480   2.41066   2.43823
 Alpha virt. eigenvalues --    2.47150   2.48785   2.52831   2.57915   2.58855
 Alpha virt. eigenvalues --    2.59930   2.60583   2.62152   2.62774   2.63314
 Alpha virt. eigenvalues --    2.65586   2.68066   2.68897   2.69821   2.72622
 Alpha virt. eigenvalues --    2.73973   2.76319   2.77573   2.78387   2.80287
 Alpha virt. eigenvalues --    2.80976   2.82769   2.87729   2.92414   3.00123
 Alpha virt. eigenvalues --    3.04046   3.12798   3.40760   3.41829   3.42711
 Alpha virt. eigenvalues --    3.46204   3.48313   3.56074   3.57723   3.71706
 Alpha virt. eigenvalues --    4.17574   4.19752   4.21428   4.26302   4.28980
 Alpha virt. eigenvalues --    4.35470   4.53296   4.74330
          Condensed to atoms (all electrons):
               1          2          3          4          5          6
     1  Si  12.103488  -0.165755  -0.091649   0.011717   0.019661   0.045889
     2  O   -0.165755   8.996703   0.092711   0.032214   0.045410  -0.009480
     3  O   -0.091649   0.092711   8.702558  -0.072991  -0.011700  -0.004444
     4  O    0.011717   0.032214  -0.072991   8.583320   0.066782   0.005656
     5  O    0.019661   0.045410  -0.011700   0.066782   8.524065   0.234001
     6  H    0.045889  -0.009480  -0.004444   0.005656   0.234001   0.297922
     7  H    0.045519  -0.008999   0.005567   0.239662  -0.003410   0.000070
     8  H    0.042816   0.001083   0.232121   0.000328  -0.007242  -0.000029
     9  Si   0.121902  -0.240974   0.009550   0.014844  -0.108861   0.013071
    10  O    0.003382   0.055534   0.000123  -0.001544  -0.002819   0.000050
    11  O   -0.053882   0.097582  -0.003022  -0.024211   0.059479  -0.008861
    12  O   -0.000641  -0.044382  -0.000463   0.003020  -0.006504   0.002259
    13  O   -0.022247  -0.046343  -0.033290  -0.012493   0.042047   0.015797
    14  H    0.018840  -0.003558   0.005175   0.003390  -0.015256  -0.001909
    15  H   -0.000134   0.000290   0.000002  -0.000031  -0.001078   0.000139
    16  H   -0.000298   0.000626   0.000002  -0.000003   0.000085  -0.000004
    17  H    0.005977  -0.006314   0.000155   0.014723  -0.012169   0.000807
    18  H    0.031394   0.218313   0.001171  -0.008488   0.002967  -0.000128
               7          8          9         10         11         12
     1  Si   0.045519   0.042816   0.121902   0.003382  -0.053882  -0.000641
     2  O   -0.008999   0.001083  -0.240974   0.055534   0.097582  -0.044382
     3  O    0.005567   0.232121   0.009550   0.000123  -0.003022  -0.000463
     4  O    0.239662   0.000328   0.014844  -0.001544  -0.024211   0.003020
     5  O   -0.003410  -0.007242  -0.108861  -0.002819   0.059479  -0.006504
     6  H    0.000070  -0.000029   0.013071   0.000050  -0.008861   0.002259
     7  H    0.339878   0.000053   0.001249  -0.000001  -0.002076  -0.000027
     8  H    0.000053   0.352444   0.000182  -0.000004   0.000128  -0.000000
     9  Si   0.001249   0.000182  12.365544  -0.212761  -0.179048   0.066968
    10  O   -0.000001  -0.000004  -0.212761   8.753833   0.118687  -0.063489
    11  O   -0.002076   0.000128  -0.179048   0.118687   8.607500   0.001723
    12  O   -0.000027  -0.000000   0.066968  -0.063489   0.001723   8.552987
    13  O   -0.000388   0.000606  -0.287034   0.126969   0.120378   0.012635
    14  H    0.000022  -0.000064   0.070645  -0.007237  -0.019654   0.010343
    15  H    0.000000   0.000000   0.052557   0.010010  -0.007134   0.232296
    16  H    0.000000  -0.000000   0.035700   0.229817   0.000900  -0.002451
    17  H    0.000146  -0.000005   0.056186  -0.006146   0.236846   0.007931
    18  H    0.000110   0.000003  -0.009953   0.001385   0.004496  -0.000210
              13         14         15         16         17         18
     1  Si  -0.022247   0.018840  -0.000134  -0.000298   0.005977   0.031394
     2  O   -0.046343  -0.003558   0.000290   0.000626  -0.006314   0.218313
     3  O   -0.033290   0.005175   0.000002   0.000002   0.000155   0.001171
     4  O   -0.012493   0.003390  -0.000031  -0.000003   0.014723  -0.008488
     5  O    0.042047  -0.015256  -0.001078   0.000085  -0.012169   0.002967
     6  H    0.015797  -0.001909   0.000139  -0.000004   0.000807  -0.000128
     7  H   -0.000388   0.000022   0.000000   0.000000   0.000146   0.000110
     8  H    0.000606  -0.000064   0.000000  -0.000000  -0.000005   0.000003
     9  Si  -0.287034   0.070645   0.052557   0.035700   0.056186  -0.009953
    10  O    0.126969  -0.007237   0.010010   0.229817  -0.006146   0.001385
    11  O    0.120378  -0.019654  -0.007134   0.000900   0.236846   0.004496
    12  O    0.012635   0.010343   0.232296  -0.002451   0.007931  -0.000210
    13  O    8.861610   0.216129  -0.008368  -0.005021  -0.025665   0.021986
    14  H    0.216129   0.333547  -0.000052  -0.000096   0.001643  -0.005553
    15  H   -0.008368  -0.000052   0.362041  -0.000006  -0.000043   0.000001
    16  H   -0.005021  -0.000096  -0.000006   0.359922  -0.000056   0.000012
    17  H   -0.025665   0.001643  -0.000043  -0.000056   0.342623  -0.001051
    18  H    0.021986  -0.005553   0.000001   0.000012  -0.001051   0.313122
 Mulliken charges:
               1
     1  Si   1.884021
     2  O   -1.014662
     3  O   -0.831576
     4  O   -0.855896
     5  O   -0.825458
     6  H    0.409193
     7  H    0.382625
     8  H    0.377580
     9  Si   2.230233
    10  O   -1.005789
    11  O   -0.949830
    12  O   -0.771997
    13  O   -0.977309
    14  H    0.393647
    15  H    0.359510
    16  H    0.380873
    17  H    0.384412
    18  H    0.430424
 Sum of Mulliken charges =  -0.00000
 Mulliken charges with hydrogens summed into heavy atoms:
               1
     1  Si   1.884021
     2  O   -0.584239
     3  O   -0.453997
     4  O   -0.473271
     5  O   -0.416265
     9  Si   2.230233
    10  O   -0.624917
    11  O   -0.565418
    12  O   -0.412487
    13  O   -0.583662
 Electronic spatial extent (au):  <R**2>=           2052.8233
 Charge=             -0.0000 electrons
 Dipole moment (field-independent basis, Debye):
    X=             -2.2456    Y=              0.5349    Z=              0.4557  Tot=              2.3529
 Quadrupole moment (field-independent basis, Debye-Ang):
   XX=            -66.5504   YY=            -66.6221   ZZ=            -76.4679
   XY=             -0.1004   XZ=             -2.2882   YZ=              0.7144
 Traceless Quadrupole moment (field-independent basis, Debye-Ang):
   XX=              3.3298   YY=              3.2580   ZZ=             -6.5878
   XY=             -0.1004   XZ=             -2.2882   YZ=              0.7144
 Octapole moment (field-independent basis, Debye-Ang**2):
  XXX=            -19.4753  YYY=             -3.1316  ZZZ=              6.7055  XYY=              5.0291
  XXY=              3.9754  XXZ=            -11.5144  XZZ=             -7.3006  YZZ=             -5.6647
  YYZ=              3.0392  XYZ=              2.6052
 Hexadecapole moment (field-independent basis, Debye-Ang**3):
 XXXX=          -1519.9512 YYYY=           -322.1648 ZZZZ=           -361.2503 XXXY=             97.3719
 XXXZ=             56.5841 YYYX=            -53.1998 YYYZ=              5.6128 ZZZX=            -13.2426
 ZZZY=             -2.7888 XXYY=           -328.9443 XXZZ=           -379.4415 YYZZ=           -110.2855
 XXYZ=            -13.1363 YYXZ=            -32.1583 ZZXY=             20.0515
 N-N= 8.994464824001D+02 E-N=-4.609034026716D+03  KE= 1.178949250212D+03
 Calling FoFJK, ICntrl=      2127 FMM=F ISym2X=0 I1Cent= 0 IOpClX= 0 NMat=1 NMatS=1 NMatT=0.
 ***** Axes restored to original set *****
 -------------------------------------------------------------------
 Center     Atomic                   Forces (Hartrees/Bohr)
 Number     Number              X              Y              Z
 -------------------------------------------------------------------
      1       14          -0.045120704   -0.006205851   -0.011929596
      2        8           0.008215760    0.060004183    0.061595744
      3        8           0.001604176    0.011645170    0.006720846
      4        8          -0.006014630   -0.007420494    0.005566773
      5        8          -0.013228003    0.000422348    0.006309231
      6        1           0.002201994   -0.000742038    0.002523717
      7        1           0.000734752    0.003707066    0.001768053
      8        1           0.004533268    0.000543878   -0.002309127
      9       14           0.000164117    0.001981260    0.003020212
     10        8           0.015497200   -0.005735076   -0.003667646
     11        8          -0.004651795   -0.019881069    0.014126292
     12        8          -0.005574667   -0.004977429   -0.003270296
     13        8           0.013996287   -0.013484042   -0.064946758
     14        1           0.016645014   -0.009114713   -0.016817500
     15        1           0.004322114   -0.001811153   -0.000860158
     16        1          -0.000420840    0.004463012    0.004207165
     17        1           0.005035080   -0.013095569   -0.004312485
     18        1           0.002060878   -0.000299484    0.002275534
 -------------------------------------------------------------------
 Cartesian Forces:  Max     0.064946758 RMS     0.017618085

 GradGradGradGradGradGradGradGradGradGradGradGradGradGradGradGradGradGrad
 Berny optimization.
 FormGI is forming the generalized inverse of G from B-inverse, IUseBI=4.
 Internal  Forces:  Max     0.066471986 RMS     0.018726667
 Search for a local minimum.
 Step number   1 out of a maximum of   81
 All quantities printed in internal units (Hartrees-Bohrs-Radians)
 Mixed Optimization -- RFO/linear search
 Second derivative matrix not updated -- first step.
 ITU=  0
     Eigenvalues ---    0.00602   0.03739   0.03799   0.03837   0.03844
     Eigenvalues ---    0.03851   0.03865   0.03875   0.03876   0.05724
     Eigenvalues ---    0.07838   0.10703   0.10772   0.11435   0.12173
     Eigenvalues ---    0.12197   0.12246   0.12480   0.12489   0.16000
     Eigenvalues ---    0.16000   0.16000   0.16000   0.16000   0.16000
     Eigenvalues ---    0.16000   0.20131   0.20260   0.20696   0.20836
     Eigenvalues ---    0.21454   0.40989   0.43796   0.44527   0.44613
     Eigenvalues ---    0.44696   0.44868   0.44990   0.45007   0.51665
     Eigenvalues ---    0.53098   0.53138   0.53337   0.53406   0.53477
     Eigenvalues ---    0.53571   0.538171000.000001000.000001000.00000
     Eigenvalues --- 1000.000001000.000001000.000001000.000001000.00000
     Eigenvalues --- 1000.000001000.000001000.000001000.000001000.00000
     Eigenvalues --- 1000.000001000.000001000.000001000.000001000.00000
     Eigenvalues --- 1000.000001000.000001000.000001000.000001000.00000
     Eigenvalues --- 1000.00000
 RFO step:  Lambda=-9.59137608D-02 EMin= 6.01797843D-03
 Linear search not attempted -- first point.
 Maximum step size (   0.300) exceeded in Quadratic search.
    -- Step size scaled by   0.619
 Iteration  1 RMS(Cart)=  0.25702359 RMS(Int)=  0.01712538
 Iteration  2 RMS(Cart)=  0.08721608 RMS(Int)=  0.00198844
 Iteration  3 RMS(Cart)=  0.00267590 RMS(Int)=  0.00130656
 Iteration  4 RMS(Cart)=  0.00000534 RMS(Int)=  0.00130656
 Iteration  5 RMS(Cart)=  0.00000003 RMS(Int)=  0.00130656
 Iteration  1 RMS(Cart)=  0.00073598 RMS(Int)=  0.00007299
 Iteration  2 RMS(Cart)=  0.00004532 RMS(Int)=  0.00007507
 Iteration  3 RMS(Cart)=  0.00000279 RMS(Int)=  0.00007532
 Iteration  4 RMS(Cart)=  0.00000017 RMS(Int)=  0.00007534
 Variable       Old X    -DE/DX   Delta X   Delta X   Delta X     New X
                                 (Linear)    (Quad)   (Total)
    R1        3.10932   0.01065   0.00000   0.02195   0.02034   3.12966
    R2        3.08968   0.00902   0.00000   0.01022   0.01022   3.09990
    R3        3.09129   0.00950   0.00000   0.01079   0.01079   3.10208
    R4        3.08988  -0.00247   0.00000  -0.00280  -0.00280   3.08707
    R5        6.80301   0.05731   0.00000   0.00000   0.00000   6.80301
    R6        2.77319   0.05727   0.00000   0.17540   0.17393   2.94712
    R7        1.83562   0.00190   0.00000   0.00187   0.00187   1.83750
    R8        1.83124  -0.00451   0.00000  -0.00441  -0.00441   1.82683
    R9        1.83276  -0.00359   0.00000  -0.00353  -0.00353   1.82924
   R10        1.83526  -0.00050   0.00000  -0.00049  -0.00049   1.83476
   R11        3.09427   0.01381   0.00000   0.01576   0.01576   3.11004
   R12        3.09529   0.01425   0.00000   0.01629   0.01629   3.11158
   R13        3.09331   0.00786   0.00000   0.00895   0.00895   3.10226
   R14        3.10072   0.00280   0.00000   0.01149   0.00994   3.11066
   R15        1.83211  -0.00462   0.00000  -0.00453  -0.00453   1.82757
   R16        1.83340  -0.01356   0.00000  -0.01333  -0.01333   1.82007
   R17        1.82899  -0.00301   0.00000  -0.00294  -0.00294   1.82605
   R18        1.83812   0.03556   0.00000   0.04269   0.04068   1.87880
    A1        1.90027  -0.01855   0.00000  -0.04013  -0.04035   1.85991
    A2        1.91135   0.00037   0.00000  -0.00249  -0.00264   1.90871
    A3        1.90681   0.01831   0.00000   0.04301   0.04319   1.95000
    A4        1.90999   0.00394   0.00000   0.00181   0.00156   1.91155
    A5        1.92919   0.00724   0.00000   0.01906   0.01938   1.94857
    A6        1.90614  -0.01129   0.00000  -0.02127  -0.02128   1.88486
    A7        1.64166   0.01000   0.00000   0.05193   0.04820   1.68986
    A8        1.95946   0.01840   0.00000   0.03949   0.04143   2.00089
    A9        2.09871  -0.00485   0.00000  -0.01182  -0.01338   2.08532
   A10        1.99270   0.00438   0.00000   0.01059   0.01059   2.00329
   A11        1.98626   0.00389   0.00000   0.00941   0.00941   1.99566
   A12        2.00160  -0.00353   0.00000  -0.00852  -0.00852   1.99308
   A13        1.91672  -0.00118   0.00000   0.00295   0.00141   1.91814
   A14        1.90914   0.00277   0.00000  -0.00956  -0.01020   1.89894
   A15        1.90878  -0.00591   0.00000  -0.00618  -0.00776   1.90102
   A16        1.91902  -0.02109   0.00000  -0.04862  -0.04808   1.87094
   A17        1.88955   0.04112   0.00000   0.09899   0.09865   1.98819
   A18        1.92053  -0.01545   0.00000  -0.03667  -0.03605   1.88448
   A19        1.97400   0.00741   0.00000   0.01791   0.01791   1.99191
   A20        1.98311   0.00352   0.00000   0.00851   0.00851   1.99162
   A21        1.98543   0.00667   0.00000   0.01613   0.01613   2.00156
   A22        1.96394   0.02271   0.00000   0.09365   0.08911   2.05305
   A23        2.16791   0.06647   0.00000   0.15099   0.14564   2.31355
    D1       -1.30220  -0.00763   0.00000  -0.02769  -0.02814  -1.33034
    D2        0.88091  -0.00078   0.00000   0.00215   0.00326   0.88417
    D3        2.89323  -0.00148   0.00000  -0.00425  -0.00512   2.88812
    D4       -1.20684   0.00537   0.00000   0.02558   0.02628  -1.18056
    D5        0.80622   0.00099   0.00000  -0.00285  -0.00387   0.80234
    D6        2.98933   0.00783   0.00000   0.02699   0.02753   3.01685
    D7       -2.69128   0.00769   0.00000   0.02095   0.02074  -2.67055
    D8       -0.60268  -0.00066   0.00000  -0.00511  -0.00500  -0.60768
    D9        1.49729  -0.00757   0.00000  -0.01834  -0.01823   1.47905
   D10       -1.74557  -0.01189   0.00000  -0.02903  -0.02908  -1.77465
   D11        2.45585   0.00814   0.00000   0.02035   0.02046   2.47631
   D12        0.34186   0.00383   0.00000   0.00906   0.00899   0.35085
   D13       -0.69349   0.00539   0.00000   0.01401   0.01357  -0.67992
   D14        1.39720  -0.00145   0.00000   0.00344   0.00385   1.40105
   D15       -2.78372   0.00073   0.00000   0.00398   0.00401  -2.77971
   D16       -1.56806   0.04292   0.00000   0.16467   0.16733  -1.40072
   D17        2.64235   0.01529   0.00000   0.08448   0.08694   2.72929
   D18        2.27493  -0.02347   0.00000  -0.06026  -0.06000   2.21493
   D19        0.16739   0.00152   0.00000   0.00383   0.00391   0.17130
   D20       -1.93707   0.02240   0.00000   0.05849   0.05815  -1.87892
   D21        1.11425   0.00618   0.00000   0.01776   0.01841   1.13266
   D22       -3.06737  -0.00445   0.00000  -0.02288  -0.02211  -3.08948
   D23       -0.96874  -0.01060   0.00000  -0.03577  -0.03718  -1.00592
   D24        3.01248   0.00042   0.00000  -0.00027  -0.00014   3.01234
   D25        0.90635   0.01331   0.00000   0.03248   0.03251   0.93886
   D26       -1.17342  -0.01468   0.00000  -0.03657  -0.03673  -1.21014
   D27       -1.00292   0.00162   0.00000   0.02036   0.01997  -0.98295
   D28        1.08508   0.02111   0.00000   0.07895   0.07992   1.16500
   D29       -3.10042   0.01147   0.00000   0.05868   0.05810  -3.04232
   D30       -0.68325   0.04919   0.00000   0.17453   0.17884  -0.50441
         Item               Value     Threshold  Converged?
 Maximum Force            0.058617     0.000450     NO 
 RMS     Force            0.017461     0.000300     NO 
 Maximum Displacement     0.879263     0.001800     NO 
 RMS     Displacement     0.334278     0.001200     NO 
 Predicted change in Energy=-4.972424D-02
 GradGradGradGradGradGradGradGradGradGradGradGradGradGradGradGradGradGrad

                          Input orientation:                          
 ---------------------------------------------------------------------
 Center     Atomic      Atomic             Coordinates (Angstroms)
 Number     Number       Type             X           Y           Z
 ---------------------------------------------------------------------
      1         14           0       -5.873576   -0.648698   -0.377854
      2          8           0       -4.229514   -0.524705   -0.221317
      3          8           0       -6.383800    0.746929   -1.072692
      4          8           0       -6.551879   -0.801129    1.109210
      5          8           0       -6.300030   -1.953654   -1.263237
      6          1           0       -5.718672   -2.127535   -2.021172
      7          1           0       -6.808566   -1.705512    1.339880
      8          1           0       -7.294093    0.995156   -0.862246
      9         14           0       -3.378083   -3.002898   -1.468836
     10          8           0       -1.940666   -2.755293   -0.706570
     11          8           0       -4.501051   -3.534965   -0.388528
     12          8           0       -3.185176   -4.185796   -2.590681
     13          8           0       -3.809975   -1.622729   -2.255109
     14          1           0       -3.880459   -0.788952   -1.718158
     15          1           0       -4.003546   -4.479181   -3.012505
     16          1           0       -1.192112   -3.209746   -1.116984
     17          1           0       -4.725314   -2.893467    0.293989
     18          1           0       -3.923379    0.294336    0.204051
 ---------------------------------------------------------------------
                    Distance matrix (angstroms):
                    1          2          3          4          5
     1  Si   0.000000
     2  O    1.656145   0.000000
     3  O    1.640397   2.642506   0.000000
     4  O    1.641552   2.690742   2.680566   0.000000
     5  O    1.633608   2.722963   2.708592   2.649575   0.000000
     6  H    2.216179   2.833043   3.099121   3.500411   0.970915
     7  H    2.222987   3.237769   3.466323   0.967991   2.663907
     8  H    2.225929   3.480289   0.966716   2.768422   3.137584
     9  Si   3.599997   2.902185   4.822081   4.644038   3.111424
    10  O    4.473654   3.232618   5.669307   5.327204   4.467276
    11  O    3.196009   3.027104   4.727308   3.731350   2.549899
    12  O    4.963381   4.484207   6.071841   6.039855   4.055475
    13  O    2.954872   2.349038   3.692961   4.417206   2.700684
    14  H    2.405951   1.559551   3.007036   3.889813   2.723565
    15  H    5.011087   4.845583   6.061411   6.083634   3.835631
    16  H    5.387150   4.151804   6.527699   6.283667   5.262127
    17  H    2.609380   2.474346   4.227395   2.894616   2.405812
    18  H    2.243033   0.972361   2.808662   2.988038   3.585368
                    6          7          8          9         10
     6  H    0.000000
     7  H    3.558460   0.000000
     8  H    3.684598   3.518338   0.000000
     9  Si   2.559237   4.619557   5.629167   0.000000
    10  O    4.049147   5.383906   6.538294   1.645760   0.000000
    11  O    2.475679   3.414515   5.342985   1.646578   2.695294
    12  O    3.313515   5.893222   6.834687   1.641644   2.673017
    13  O    1.988135   4.682130   4.575202   1.646093   2.678618
    14  H    2.294047   4.331915   3.945697   2.283879   2.941532
    15  H    3.074840   5.874064   6.739413   2.225653   3.541836
    16  H    4.741148   6.312167   7.414868   2.223748   0.967109
    17  H    2.633131   2.616307   4.801759   2.221386   2.962174
    18  H    3.747020   3.689689   3.604144   3.737332   3.749749
                   11         12         13         14         15
    11  O    0.000000
    12  O    2.646618   0.000000
    13  O    2.760137   2.659378   0.000000
    14  H    3.113461   3.575369   0.994218   0.000000
    15  H    2.832722   0.966302   2.961492   3.912579   0.000000
    16  H    3.403747   2.663975   3.266062   3.667270   3.620584
    17  H    0.963142   3.516171   2.991742   3.031749   3.737424
    18  H    3.917704   5.331702   3.120171   2.206862   5.756659
                   16         17         18
    16  H    0.000000
    17  H    3.817643   0.000000
    18  H    4.635034   3.288355   0.000000
 Stoichiometry    H8O8Si2
 Framework group  C1[X(H8O8Si2)]
 Deg. of freedom    48
 Full point group                 C1      NOp   1
 Largest Abelian subgroup         C1      NOp   1
 Largest concise Abelian subgroup C1      NOp   1
                         Standard orientation:                         
 ---------------------------------------------------------------------
 Center     Atomic      Atomic             Coordinates (Angstroms)
 Number     Number       Type             X           Y           Z
 ---------------------------------------------------------------------
      1         14           0       -1.797324   -0.011490   -0.013335
      2          8           0       -0.792702    1.207867    0.483373
      3          8           0       -2.849881    0.655154   -1.080393
      4          8           0       -2.623160   -0.596692    1.279037
      5          8           0       -0.963788   -1.247454   -0.681383
      6          1           0       -0.215480   -0.969902   -1.234262
      7          1           0       -2.278612   -1.431212    1.628135
      8          1           0       -3.705247    0.208500   -1.138589
      9         14           0        1.802607    0.000318    0.004967
     10          8           0        2.397197    1.164046    1.005331
     11          8           0        1.044043   -1.164015    0.888215
     12          8           0        3.056194   -0.719930   -0.772695
     13          8           0        0.842364    0.710089   -1.128073
     14          1           0        0.082071    1.264185   -0.806511
     15          1           0        2.813806   -1.493235   -1.298990
     16          1           0        3.337698    1.350853    0.879386
     17          1           0        0.258855   -0.856076    1.353291
     18          1           0       -1.249195    2.010776    0.787408
 ---------------------------------------------------------------------
 Rotational constants (GHZ):           1.9447367           0.5730703           0.5675616
 Standard basis: 6-31+G(d,p) (6D, 7F)
 There are   238 symmetry adapted cartesian basis functions of A   symmetry.
 There are   238 symmetry adapted basis functions of A   symmetry.
   238 basis functions,   424 primitive gaussians,   238 cartesian basis functions
    50 alpha electrons       50 beta electrons
       nuclear repulsion energy       889.9709508781 Hartrees.
 NAtoms=   18 NActive=   18 NUniq=   18 SFac= 1.00D+00 NAtFMM=   60 NAOKFM=F Big=F
 Integral buffers will be    131072 words long.
 Raffenetti 2 integral format.
 Two-electron integral symmetry is turned on.
 Nuclear repulsion after empirical dispersion term =      889.9539068688 Hartrees.
 One-electron integrals computed using PRISM.
 NBasis=   238 RedAO= T EigKep=  2.18D-04  NBF=   238
 NBsUse=   238 1.00D-06 EigRej= -1.00D+00 NBFU=   238
 Initial guess from the checkpoint file:  "/localscratch/sarashs.36560094.0/Gau-208477.chk"
 B after Tr=    -0.000000   -0.000000   -0.000000
         Rot=    0.985378   -0.169161    0.011245   -0.017005 Ang= -19.62 deg.
 ExpMin= 3.31D-02 ExpMax= 1.61D+04 ExpMxC= 2.43D+03 IAcc=3 IRadAn=         5 AccDes= 0.00D+00
 Harris functional with IExCor=  402 and IRadAn=       5 diagonalized for initial guess.
 HarFok:  IExCor=  402 AccDes= 0.00D+00 IRadAn=         5 IDoV= 1 UseB2=F ITyADJ=14
 ICtDFT=  3500011 ScaDFX=  1.000000  1.000000  1.000000  1.000000
 FoFCou: FMM=F IPFlag=           0 FMFlag=      100000 FMFlg1=           0
         NFxFlg=           0 DoJE=T BraDBF=F KetDBF=T FulRan=T
         wScrn=  0.000000 ICntrl=       500 IOpCl=  0 I1Cent=   200000004 NGrid=           0
         NMat0=    1 NMatS0=      1 NMatT0=    0 NMatD0=    1 NMtDS0=    0 NMtDT0=    0
 Petite list used in FoFCou.
 Requested convergence on RMS density matrix=1.00D-08 within 128 cycles.
 Requested convergence on MAX density matrix=1.00D-06.
 Requested convergence on             energy=1.00D-06.
 No special actions if energy rises.
 SCF Done:  E(RB3LYP) =  -1186.01920152     A.U. after   12 cycles
            NFock= 12  Conv=0.49D-08     -V/T= 2.0063
 Calling FoFJK, ICntrl=      2127 FMM=F ISym2X=0 I1Cent= 0 IOpClX= 0 NMat=1 NMatS=1 NMatT=0.
 ***** Axes restored to original set *****
 -------------------------------------------------------------------
 Center     Atomic                   Forces (Hartrees/Bohr)
 Number     Number              X              Y              Z
 -------------------------------------------------------------------
      1       14          -0.029441291    0.006095645   -0.003630641
      2        8           0.002351950    0.023094874    0.022123300
      3        8          -0.000131880    0.008487234    0.004840988
      4        8          -0.003211044   -0.007231017    0.004168732
      5        8          -0.010234684    0.008974493    0.001198580
      6        1          -0.003269123    0.002817734    0.000176348
      7        1          -0.001923492    0.003575211    0.001635338
      8        1           0.002020598    0.000762219   -0.002377715
      9       14           0.018646918   -0.000048164    0.001041565
     10        8           0.008261616   -0.004474406   -0.001246091
     11        8           0.008053843   -0.005738123    0.005219733
     12        8          -0.004577847   -0.003199846   -0.003302812
     13        8          -0.003847703   -0.000041849   -0.022749669
     14        1           0.013515199   -0.021745457   -0.011800785
     15        1           0.003736333   -0.002149368   -0.000861151
     16        1          -0.000818377    0.002189931    0.002778864
     17        1           0.001311150   -0.006106032    0.001863221
     18        1          -0.000442165   -0.005263082    0.000922195
 -------------------------------------------------------------------
 Cartesian Forces:  Max     0.029441291 RMS     0.009018935

 GradGradGradGradGradGradGradGradGradGradGradGradGradGradGradGradGradGrad
 Berny optimization.
 Using GEDIIS/GDIIS optimizer.
 FormGI is forming the generalized inverse of G from B-inverse, IUseBI=4.
 Internal  Forces:  Max     0.048386766 RMS     0.013439036
 Search for a local minimum.
 Step number   2 out of a maximum of   81
 All quantities printed in internal units (Hartrees-Bohrs-Radians)
 Mixed Optimization -- RFO/linear search
 Update second derivatives using D2CorX and points    1    2
 DE= -1.90D-02 DEPred=-4.97D-02 R= 3.83D-01
 Trust test= 3.83D-01 RLast= 4.24D-01 DXMaxT set to 3.00D-01
 ITU=  0  0
 Use linear search instead of GDIIS.
     Eigenvalues ---    0.00677   0.03698   0.03831   0.03844   0.03851
     Eigenvalues ---    0.03861   0.03866   0.03876   0.03889   0.05204
     Eigenvalues ---    0.08719   0.10323   0.10810   0.11378   0.11733
     Eigenvalues ---    0.12233   0.12514   0.12885   0.15473   0.15845
     Eigenvalues ---    0.16000   0.16000   0.16000   0.16000   0.16000
     Eigenvalues ---    0.18047   0.19616   0.20390   0.20560   0.20969
     Eigenvalues ---    0.40914   0.43373   0.43721   0.44460   0.44640
     Eigenvalues ---    0.44788   0.44904   0.44980   0.46595   0.53016
     Eigenvalues ---    0.53129   0.53188   0.53396   0.53465   0.53562
     Eigenvalues ---    0.53809   0.601851000.000001000.000001000.00000
     Eigenvalues --- 1000.000001000.000001000.000001000.000001000.00000
     Eigenvalues --- 1000.000001000.000001000.000001000.000001000.00000
     Eigenvalues --- 1000.000001000.000001000.000001000.000001000.00000
     Eigenvalues --- 1000.000001000.000001000.000001000.000001000.00000
     Eigenvalues --- 1000.00000
 RFO step:  Lambda=-3.89353906D-02 EMin= 6.77027853D-03
 Quartic linear search produced a step of -0.22676.
 Maximum step size (   0.300) exceeded in Quadratic search.
    -- Step size scaled by   0.699
 Iteration  1 RMS(Cart)=  0.21025212 RMS(Int)=  0.01067961
 Iteration  2 RMS(Cart)=  0.02853761 RMS(Int)=  0.00049329
 Iteration  3 RMS(Cart)=  0.00036723 RMS(Int)=  0.00046879
 Iteration  4 RMS(Cart)=  0.00000014 RMS(Int)=  0.00046879
 Iteration  1 RMS(Cart)=  0.00012957 RMS(Int)=  0.00001320
 Iteration  2 RMS(Cart)=  0.00000832 RMS(Int)=  0.00001359
 Iteration  3 RMS(Cart)=  0.00000053 RMS(Int)=  0.00001364
 Variable       Old X    -DE/DX   Delta X   Delta X   Delta X     New X
                                 (Linear)    (Quad)   (Total)
    R1        3.12966   0.01482  -0.00461   0.01926   0.01496   3.14462
    R2        3.09990   0.00624  -0.00232   0.01517   0.01285   3.11276
    R3        3.10208   0.00772  -0.00245   0.01721   0.01476   3.11684
    R4        3.08707  -0.00664   0.00064  -0.00923  -0.00860   3.07848
    R5        6.80301   0.04702  -0.00000   0.00000  -0.00000   6.80301
    R6        2.94712   0.01862  -0.03944   0.15447   0.11527   3.06240
    R7        1.83750  -0.00417  -0.00042  -0.00206  -0.00248   1.83501
    R8        1.82683  -0.00222   0.00100  -0.00576  -0.00476   1.82207
    R9        1.82924  -0.00244   0.00080  -0.00519  -0.00439   1.82485
   R10        1.83476  -0.00260   0.00011  -0.00272  -0.00260   1.83216
   R11        3.11004   0.00687  -0.00357   0.02062   0.01704   3.12708
   R12        3.11158   0.00209  -0.00369   0.01612   0.01242   3.12401
   R13        3.10226   0.00660  -0.00203   0.01450   0.01247   3.11473
   R14        3.11066   0.00055  -0.00225  -0.00378  -0.00577   3.10489
   R15        1.82757  -0.00284   0.00103  -0.00641  -0.00538   1.82219
   R16        1.82007  -0.00305   0.00302  -0.01420  -0.01118   1.80890
   R17        1.82605  -0.00214   0.00067  -0.00440  -0.00374   1.82231
   R18        1.87880  -0.00788  -0.00922   0.01474   0.00585   1.88465
    A1        1.85991  -0.01631   0.00915  -0.07006  -0.06097   1.79895
    A2        1.90871  -0.00160   0.00060  -0.00324  -0.00351   1.90520
    A3        1.95000   0.02570  -0.00979   0.09768   0.08799   2.03799
    A4        1.91155   0.00334  -0.00035  -0.00306  -0.00406   1.90749
    A5        1.94857  -0.00382  -0.00439   0.00488   0.00131   1.94989
    A6        1.88486  -0.00734   0.00483  -0.02693  -0.02278   1.86208
    A7        1.68986  -0.00256  -0.01093  -0.02104  -0.03130   1.65856
    A8        2.00089  -0.01351  -0.00939   0.03762   0.02791   2.02880
    A9        2.08532   0.01077   0.00303   0.03451   0.03794   2.12326
   A10        2.00329   0.00394  -0.00240   0.01825   0.01585   2.01913
   A11        1.99566   0.00592  -0.00213   0.02232   0.02019   2.01585
   A12        1.99308  -0.00086   0.00193  -0.00885  -0.00692   1.98616
   A13        1.91814  -0.00887  -0.00032  -0.01839  -0.02001   1.89812
   A14        1.89894   0.00108   0.00231  -0.01623  -0.01493   1.88402
   A15        1.90102  -0.00476   0.00176  -0.01622  -0.01554   1.88548
   A16        1.87094  -0.00633   0.01090  -0.05253  -0.04155   1.82939
   A17        1.98819   0.02595  -0.02237   0.14157   0.11929   2.10748
   A18        1.88448  -0.00780   0.00817  -0.04470  -0.03625   1.84823
   A19        1.99191   0.00413  -0.00406   0.02446   0.02040   2.01230
   A20        1.99162   0.00708  -0.00193   0.02454   0.02261   2.01423
   A21        2.00156   0.00697  -0.00366   0.03024   0.02658   2.02814
   A22        2.05305  -0.04230  -0.02021  -0.12534  -0.14474   1.90831
   A23        2.31355  -0.01580  -0.03302   0.02180  -0.01035   2.30320
    D1       -1.33034  -0.01054   0.00638  -0.08322  -0.07593  -1.40627
    D2        0.88417  -0.00592  -0.00074  -0.03698  -0.03715   0.84701
    D3        2.88812  -0.00453   0.00116  -0.03871  -0.03729   2.85083
    D4       -1.18056   0.00008  -0.00596   0.00753   0.00149  -1.17907
    D5        0.80234  -0.01050   0.00088  -0.06446  -0.06423   0.73811
    D6        3.01685  -0.00589  -0.00624  -0.01822  -0.02546   2.99140
    D7       -2.67055   0.00886  -0.00470   0.03722   0.03233  -2.63821
    D8       -0.60768  -0.00044   0.00113  -0.00759  -0.00608  -0.61377
    D9        1.47905  -0.00982   0.00413  -0.04013  -0.03618   1.44288
   D10       -1.77465  -0.01574   0.00659  -0.06866  -0.06187  -1.83651
   D11        2.47631   0.00290  -0.00464   0.01927   0.01485   2.49116
   D12        0.35085   0.01009  -0.00204   0.03181   0.02935   0.38020
   D13       -0.67992   0.00303  -0.00308   0.01104   0.00766  -0.67226
   D14        1.40105  -0.00289  -0.00087  -0.00857  -0.00911   1.39194
   D15       -2.77971  -0.00587  -0.00091  -0.02692  -0.02786  -2.80757
   D16       -1.40072  -0.03241  -0.03794  -0.00600  -0.04435  -1.44507
   D17        2.72929  -0.01901  -0.01971  -0.05526  -0.07542   2.65387
   D18        2.21493  -0.01182   0.01361  -0.07895  -0.06473   2.15020
   D19        0.17130   0.00021  -0.00089   0.00423   0.00329   0.17459
   D20       -1.87892   0.01162  -0.01319   0.07600   0.06226  -1.81667
   D21        1.13266   0.00189  -0.00417   0.01852   0.01434   1.14700
   D22       -3.08948  -0.00528   0.00501  -0.04110  -0.03539  -3.12488
   D23       -1.00592  -0.00366   0.00843  -0.04723  -0.03948  -1.04541
   D24        3.01234  -0.00159   0.00003  -0.00466  -0.00459   3.00775
   D25        0.93886   0.01188  -0.00737   0.05528   0.04778   0.98664
   D26       -1.21014  -0.01102   0.00833  -0.05786  -0.04944  -1.25958
   D27       -0.98295  -0.00663  -0.00453  -0.03230  -0.03717  -1.02011
   D28        1.16500  -0.00362  -0.01812   0.03043   0.01312   1.17812
   D29       -3.04232  -0.00093  -0.01318   0.02101   0.00735  -3.03497
   D30       -0.50441  -0.04839  -0.04055  -0.05204  -0.09343  -0.59784
         Item               Value     Threshold  Converged?
 Maximum Force            0.047602     0.000450     NO 
 RMS     Force            0.012228     0.000300     NO 
 Maximum Displacement     0.501983     0.001800     NO 
 RMS     Displacement     0.231874     0.001200     NO 
 Predicted change in Energy=-2.286363D-02
 GradGradGradGradGradGradGradGradGradGradGradGradGradGradGradGradGradGrad

                          Input orientation:                          
 ---------------------------------------------------------------------
 Center     Atomic      Atomic             Coordinates (Angstroms)
 Number     Number       Type             X           Y           Z
 ---------------------------------------------------------------------
      1         14           0       -5.926166   -0.667844   -0.428623
      2          8           0       -4.276259   -0.669674   -0.212048
      3          8           0       -6.230971    0.862524   -0.956195
      4          8           0       -6.663657   -0.898916    1.028465
      5          8           0       -6.534174   -1.787719   -1.443531
      6          1           0       -5.984311   -1.946054   -2.226208
      7          1           0       -7.038862   -1.777411    1.169830
      8          1           0       -7.102211    1.213777   -0.738857
      9         14           0       -3.351607   -2.977169   -1.427945
     10          8           0       -1.859819   -2.577295   -0.833837
     11          8           0       -4.271207   -3.580017   -0.193513
     12          8           0       -3.161741   -4.241371   -2.468352
     13          8           0       -3.889317   -1.720687   -2.339920
     14          1           0       -3.927672   -0.897519   -1.778176
     15          1           0       -3.972146   -4.646845   -2.798140
     16          1           0       -1.114186   -3.005550   -1.270220
     17          1           0       -4.487468   -2.956526    0.499865
     18          1           0       -3.908117    0.076455    0.288646
 ---------------------------------------------------------------------
                    Distance matrix (angstroms):
                    1          2          3          4          5
     1  Si   0.000000
     2  O    1.664062   0.000000
     3  O    1.647199   2.592737   0.000000
     4  O    1.649361   2.700203   2.688635   0.000000
     5  O    1.629059   2.804418   2.711682   2.630115   0.000000
     6  H    2.206470   2.933160   3.092229   3.485815   0.969537
     7  H    2.241491   3.281561   3.484526   0.965669   2.661667
     8  H    2.240497   3.436702   0.964195   2.789127   3.134998
     9  Si   3.599997   2.767295   4.822503   4.617658   3.397613
    10  O    4.510585   3.140831   5.563659   5.418671   4.779619
    11  O    3.357814   2.910407   4.915133   3.795438   3.145775
    12  O    4.957079   4.369220   6.144635   5.971864   4.294645
    13  O    2.985010   2.404619   3.751136   4.440528   2.793435
    14  H    2.422400   1.620550   3.013070   3.919547   2.774581
    15  H    5.026455   4.753762   6.232833   5.994507   4.071063
    16  H    5.415560   4.071209   6.422001   6.365413   5.557825
    17  H    2.858322   2.404397   4.443541   3.041214   3.054817
    18  H    2.267372   0.971046   2.750125   3.015242   3.656742
                    6          7          8          9         10
     6  H    0.000000
     7  H    3.559999   0.000000
     8  H    3.666939   3.548846   0.000000
     9  Si   2.937950   4.667302   5.666208   0.000000
    10  O    4.398704   5.610435   6.470234   1.654780   0.000000
    11  O    3.120322   3.573235   5.593965   1.653152   2.688915
    12  O    3.646096   5.859995   6.948173   1.648242   2.671291
    13  O    2.110147   4.716057   4.636504   1.643039   2.668506
    14  H    2.351579   4.375437   3.951639   2.186198   2.826559
    15  H    3.416166   5.777819   6.955922   2.247291   3.550134
    16  H    5.074895   6.524105   7.344488   2.243152   0.964261
    17  H    3.270025   2.889425   5.075702   2.237645   2.971047
    18  H    3.837397   3.743644   3.542810   3.546972   3.535234
                   11         12         13         14         15
    11  O    0.000000
    12  O    2.615951   0.000000
    13  O    2.865311   2.626730   0.000000
    14  H    3.134481   3.499192   0.997313   0.000000
    15  H    2.830484   0.964325   2.962976   3.885840   0.000000
    16  H    3.384685   2.674931   3.239827   3.552114   3.632674
    17  H    0.957226   3.495524   3.154276   3.121274   3.741600
    18  H    3.705955   5.177040   3.184248   2.284898   5.642864
                   16         17         18
    16  H    0.000000
    17  H    3.809807   0.000000
    18  H    4.442394   3.095034   0.000000
 Stoichiometry    H8O8Si2
 Framework group  C1[X(H8O8Si2)]
 Deg. of freedom    48
 Full point group                 C1      NOp   1
 Largest Abelian subgroup         C1      NOp   1
 Largest concise Abelian subgroup C1      NOp   1
                         Standard orientation:                         
 ---------------------------------------------------------------------
 Center     Atomic      Atomic             Coordinates (Angstroms)
 Number     Number       Type             X           Y           Z
 ---------------------------------------------------------------------
      1         14           0       -1.805435   -0.020741   -0.020910
      2          8           0       -0.694157    1.039663    0.619173
      3          8           0       -2.858785    0.972621   -0.806372
      4          8           0       -2.593150   -0.787101    1.208963
      5          8           0       -1.227589   -1.184595   -1.003444
      6          1           0       -0.513251   -0.885217   -1.586622
      7          1           0       -2.333353   -1.704630    1.361154
      8          1           0       -3.765416    0.651355   -0.873311
      9         14           0        1.794436   -0.001834    0.002644
     10          8           0        2.427492    1.229178    0.909366
     11          8           0        1.180177   -1.150330    1.020757
     12          8           0        3.039059   -0.751055   -0.775999
     13          8           0        0.861224    0.662178   -1.175398
     14          1           0        0.144148    1.214514   -0.756637
     15          1           0        2.818494   -1.561035   -1.250560
     16          1           0        3.356663    1.426964    0.744073
     17          1           0        0.428181   -0.874610    1.544936
     18          1           0       -1.055643    1.804243    1.096329
 ---------------------------------------------------------------------
 Rotational constants (GHZ):           1.8752702           0.5632619           0.5561575
 Standard basis: 6-31+G(d,p) (6D, 7F)
 There are   238 symmetry adapted cartesian basis functions of A   symmetry.
 There are   238 symmetry adapted basis functions of A   symmetry.
   238 basis functions,   424 primitive gaussians,   238 cartesian basis functions
    50 alpha electrons       50 beta electrons
       nuclear repulsion energy       881.3803607445 Hartrees.
 NAtoms=   18 NActive=   18 NUniq=   18 SFac= 1.00D+00 NAtFMM=   60 NAOKFM=F Big=F
 Integral buffers will be    131072 words long.
 Raffenetti 2 integral format.
 Two-electron integral symmetry is turned on.
 Nuclear repulsion after empirical dispersion term =      881.3637293374 Hartrees.
 One-electron integrals computed using PRISM.
 NBasis=   238 RedAO= T EigKep=  2.51D-04  NBF=   238
 NBsUse=   238 1.00D-06 EigRej= -1.00D+00 NBFU=   238
 Initial guess from the checkpoint file:  "/localscratch/sarashs.36560094.0/Gau-208477.chk"
 B after Tr=    -0.000000   -0.000000    0.000000
         Rot=    0.999263   -0.036540   -0.009756    0.006601 Ang=  -4.40 deg.
 ExpMin= 3.31D-02 ExpMax= 1.61D+04 ExpMxC= 2.43D+03 IAcc=3 IRadAn=         5 AccDes= 0.00D+00
 Harris functional with IExCor=  402 and IRadAn=       5 diagonalized for initial guess.
 HarFok:  IExCor=  402 AccDes= 0.00D+00 IRadAn=         5 IDoV= 1 UseB2=F ITyADJ=14
 ICtDFT=  3500011 ScaDFX=  1.000000  1.000000  1.000000  1.000000
 FoFCou: FMM=F IPFlag=           0 FMFlag=      100000 FMFlg1=           0
         NFxFlg=           0 DoJE=T BraDBF=F KetDBF=T FulRan=T
         wScrn=  0.000000 ICntrl=       500 IOpCl=  0 I1Cent=   200000004 NGrid=           0
         NMat0=    1 NMatS0=      1 NMatT0=    0 NMatD0=    1 NMtDS0=    0 NMtDT0=    0
 Petite list used in FoFCou.
 Requested convergence on RMS density matrix=1.00D-08 within 128 cycles.
 Requested convergence on MAX density matrix=1.00D-06.
 Requested convergence on             energy=1.00D-06.
 No special actions if energy rises.
 SCF Done:  E(RB3LYP) =  -1186.03312309     A.U. after   11 cycles
            NFock= 11  Conv=0.64D-08     -V/T= 2.0064
 Calling FoFJK, ICntrl=      2127 FMM=F ISym2X=0 I1Cent= 0 IOpClX= 0 NMat=1 NMatS=1 NMatT=0.
 ***** Axes restored to original set *****
 -------------------------------------------------------------------
 Center     Atomic                   Forces (Hartrees/Bohr)
 Number     Number              X              Y              Z
 -------------------------------------------------------------------
      1       14          -0.026857484    0.017991680    0.011620795
      2        8           0.001536047    0.009399862    0.015928168
      3        8           0.001577029    0.003709913    0.004448922
      4        8           0.000018538   -0.003471096    0.000429979
      5        8           0.006095710   -0.004316929   -0.000739533
      6        1           0.000080776   -0.001435225   -0.002177863
      7        1          -0.001432861    0.001368239    0.000528541
      8        1          -0.000346487    0.000670271   -0.001922476
      9       14           0.025506383   -0.017213992   -0.003653233
     10        8           0.001772396   -0.000824631    0.001016441
     11        8          -0.005665888    0.004170980   -0.006559493
     12        8          -0.002016065   -0.002480564   -0.002075705
     13        8          -0.011602555    0.012255085   -0.005563931
     14        1           0.011323283   -0.017933995   -0.018189364
     15        1           0.002258217   -0.001478831   -0.000244803
     16        1          -0.000341370    0.000707975    0.000469132
     17        1           0.000677391    0.002163874    0.007626176
     18        1          -0.002583059   -0.003282615   -0.000941755
 -------------------------------------------------------------------
 Cartesian Forces:  Max     0.026857484 RMS     0.008501436

 GradGradGradGradGradGradGradGradGradGradGradGradGradGradGradGradGradGrad
 Berny optimization.
 Using GEDIIS/GDIIS optimizer.
 FormGI is forming the generalized inverse of G from B-inverse, IUseBI=4.
 Internal  Forces:  Max     0.024339294 RMS     0.005198215
 Search for a local minimum.
 Step number   3 out of a maximum of   81
 All quantities printed in internal units (Hartrees-Bohrs-Radians)
 Mixed Optimization -- RFO/linear search
 Update second derivatives using D2CorX and points    1    2    3
 DE= -1.39D-02 DEPred=-2.29D-02 R= 6.09D-01
 TightC=F SS=  1.41D+00  RLast= 3.56D-01 DXNew= 5.0454D-01 1.0689D+00
 Trust test= 6.09D-01 RLast= 3.56D-01 DXMaxT set to 5.05D-01
 ITU=  1  0  0
 Use linear search instead of GDIIS.
     Eigenvalues ---    0.00610   0.03746   0.03813   0.03844   0.03851
     Eigenvalues ---    0.03863   0.03874   0.03882   0.03899   0.05081
     Eigenvalues ---    0.09037   0.09667   0.10457   0.11052   0.11698
     Eigenvalues ---    0.12647   0.13724   0.14463   0.15414   0.15877
     Eigenvalues ---    0.16000   0.16000   0.16000   0.16000   0.16068
     Eigenvalues ---    0.18884   0.20277   0.20606   0.21142   0.31564
     Eigenvalues ---    0.40821   0.43061   0.43880   0.44333   0.44639
     Eigenvalues ---    0.44821   0.44950   0.45015   0.47641   0.53002
     Eigenvalues ---    0.53143   0.53381   0.53455   0.53559   0.53797
     Eigenvalues ---    0.54238   0.584011000.000001000.000001000.00000
     Eigenvalues --- 1000.000001000.000001000.000001000.000001000.00000
     Eigenvalues --- 1000.000001000.000001000.000001000.000001000.00000
     Eigenvalues --- 1000.000001000.000001000.000001000.000001000.00000
     Eigenvalues --- 1000.000001000.000001000.000001000.000001000.00000
     Eigenvalues --- 1000.00000
 RFO step:  Lambda=-1.28610462D-02 EMin= 6.10369866D-03
 Quartic linear search produced a step of  0.10763.
 Iteration  1 RMS(Cart)=  0.12615205 RMS(Int)=  0.00824157
 Iteration  2 RMS(Cart)=  0.01325115 RMS(Int)=  0.00069073
 Iteration  3 RMS(Cart)=  0.00005978 RMS(Int)=  0.00068982
 Iteration  4 RMS(Cart)=  0.00000010 RMS(Int)=  0.00068982
 Iteration  1 RMS(Cart)=  0.00035102 RMS(Int)=  0.00003477
 Iteration  2 RMS(Cart)=  0.00002152 RMS(Int)=  0.00003575
 Iteration  3 RMS(Cart)=  0.00000132 RMS(Int)=  0.00003587
 Iteration  4 RMS(Cart)=  0.00000008 RMS(Int)=  0.00003588
 Variable       Old X    -DE/DX   Delta X   Delta X   Delta X     New X
                                 (Linear)    (Quad)   (Total)
    R1        3.14462   0.00658   0.00161   0.02127   0.02204   3.16666
    R2        3.11276   0.00303   0.00138   0.01232   0.01371   3.12646
    R3        3.11684   0.00177   0.00159   0.00990   0.01149   3.12833
    R4        3.07848   0.00347  -0.00093   0.00561   0.00469   3.08316
    R5        6.80301   0.01861  -0.00000   0.00000   0.00000   6.80301
    R6        3.06240   0.02434   0.01241   0.24938   0.26109   3.32349
    R7        1.83501  -0.00399  -0.00027  -0.00839  -0.00866   1.82636
    R8        1.82207   0.00012  -0.00051  -0.00175  -0.00226   1.81981
    R9        1.82485  -0.00061  -0.00047  -0.00297  -0.00345   1.82140
   R10        1.83216   0.00204  -0.00028   0.00340   0.00312   1.83528
   R11        3.12708   0.00179   0.00183   0.01145   0.01328   3.14036
   R12        3.12401   0.00126   0.00134   0.00910   0.01044   3.13444
   R13        3.11473   0.00453   0.00134   0.01564   0.01698   3.13171
   R14        3.10489   0.00618  -0.00062   0.01318   0.01190   3.11680
   R15        1.82219  -0.00079  -0.00058  -0.00377  -0.00435   1.81784
   R16        1.80890   0.00678  -0.00120   0.00850   0.00730   1.81620
   R17        1.82231  -0.00119  -0.00040  -0.00386  -0.00426   1.81805
   R18        1.88465  -0.00558   0.00063  -0.00493  -0.00513   1.87952
    A1        1.79895  -0.00118  -0.00656  -0.03165  -0.03804   1.76090
    A2        1.90520   0.00546  -0.00038   0.02355   0.02311   1.92831
    A3        2.03799  -0.00985   0.00947  -0.03051  -0.02078   2.01720
    A4        1.90749  -0.00172  -0.00044   0.00065   0.00016   1.90765
    A5        1.94989   0.00664   0.00014   0.04134   0.04125   1.99114
    A6        1.86208   0.00092  -0.00245  -0.00195  -0.00457   1.85751
    A7        1.65856   0.00462  -0.00337   0.03053   0.02439   1.68295
    A8        2.02880  -0.00168   0.00300   0.02503   0.02745   2.05624
    A9        2.12326   0.00107   0.00408   0.03353   0.03617   2.15943
   A10        2.01913   0.00253   0.00171   0.02209   0.02380   2.04293
   A11        2.01585   0.00238   0.00217   0.02214   0.02431   2.04016
   A12        1.98616   0.00298  -0.00074   0.01589   0.01514   2.00130
   A13        1.89812   0.00109  -0.00215  -0.00493  -0.00729   1.89084
   A14        1.88402  -0.00183  -0.00161  -0.00423  -0.00599   1.87803
   A15        1.88548   0.00400  -0.00167   0.01207   0.01025   1.89573
   A16        1.82939   0.00373  -0.00447   0.00269  -0.00179   1.82760
   A17        2.10748  -0.00983   0.01284  -0.01253   0.00031   2.10779
   A18        1.84823   0.00330  -0.00390   0.00716   0.00331   1.85154
   A19        2.01230   0.00074   0.00220   0.01305   0.01524   2.02754
   A20        2.01423   0.00325   0.00243   0.02818   0.03061   2.04484
   A21        2.02814   0.00422   0.00286   0.03664   0.03950   2.06764
   A22        1.90831  -0.00949  -0.01558  -0.10328  -0.12105   1.78727
   A23        2.30320   0.00420  -0.00111   0.02634   0.02288   2.32609
    D1       -1.40627  -0.00401  -0.00817  -0.09003  -0.09885  -1.50512
    D2        0.84701  -0.00029  -0.00400  -0.01442  -0.01828   0.82874
    D3        2.85083  -0.00379  -0.00401  -0.08502  -0.08937   2.76146
    D4       -1.17907  -0.00007   0.00016  -0.00941  -0.00879  -1.18787
    D5        0.73811  -0.00239  -0.00691  -0.07959  -0.08670   0.65141
    D6        2.99140   0.00133  -0.00274  -0.00398  -0.00613   2.98527
    D7       -2.63821  -0.00546   0.00348  -0.03425  -0.03114  -2.66935
    D8       -0.61377  -0.00056  -0.00065  -0.02296  -0.02364  -0.63741
    D9        1.44288   0.00352  -0.00389   0.00009  -0.00341   1.43947
   D10       -1.83651   0.00207  -0.00666  -0.01945  -0.02611  -1.86262
   D11        2.49116   0.00153   0.00160   0.00532   0.00685   2.49800
   D12        0.38020  -0.00601   0.00316  -0.04342  -0.04019   0.34001
   D13       -0.67226   0.00156   0.00082   0.01057   0.01158  -0.66068
   D14        1.39194  -0.00192  -0.00098  -0.02117  -0.02243   1.36952
   D15       -2.80757   0.00034  -0.00300   0.00189  -0.00102  -2.80858
   D16       -1.44507   0.00195  -0.00477   0.14685   0.14417  -1.30090
   D17        2.65387  -0.00024  -0.00812   0.07140   0.06343   2.71730
   D18        2.15020   0.00441  -0.00697   0.00573  -0.00112   2.14907
   D19        0.17459   0.00043   0.00035   0.00720   0.00752   0.18211
   D20       -1.81667  -0.00450   0.00670  -0.00506   0.00156  -1.81510
   D21        1.14700  -0.00263   0.00154  -0.04923  -0.04768   1.09932
   D22       -3.12488  -0.00237  -0.00381  -0.05497  -0.05867   3.09964
   D23       -1.04541  -0.00114  -0.00425  -0.05120  -0.05556  -1.10097
   D24        3.00775  -0.00146  -0.00049  -0.01690  -0.01737   2.99038
   D25        0.98664  -0.00370   0.00514  -0.01067  -0.00554   0.98110
   D26       -1.25958   0.00392  -0.00532  -0.00144  -0.00676  -1.26634
   D27       -1.02011  -0.00019  -0.00400  -0.02961  -0.03365  -1.05376
   D28        1.17812  -0.00295   0.00141  -0.03538  -0.03385   1.14428
   D29       -3.03497  -0.00161   0.00079  -0.03397  -0.03326  -3.06823
   D30       -0.59784  -0.00431  -0.01006  -0.11696  -0.12452  -0.72236
         Item               Value     Threshold  Converged?
 Maximum Force            0.023685     0.000450     NO 
 RMS     Force            0.004703     0.000300     NO 
 Maximum Displacement     0.404272     0.001800     NO 
 RMS     Displacement     0.130107     0.001200     NO 
 Predicted change in Energy=-6.621039D-03
 GradGradGradGradGradGradGradGradGradGradGradGradGradGradGradGradGradGrad

                          Input orientation:                          
 ---------------------------------------------------------------------
 Center     Atomic      Atomic             Coordinates (Angstroms)
 Number     Number       Type             X           Y           Z
 ---------------------------------------------------------------------
      1         14           0       -5.957062   -0.687153   -0.425640
      2          8           0       -4.299397   -0.674035   -0.180644
      3          8           0       -6.225977    0.894635   -0.829177
      4          8           0       -6.748636   -1.033791    0.986358
      5          8           0       -6.497107   -1.757626   -1.532147
      6          1           0       -5.923017   -1.862576   -2.308431
      7          1           0       -7.141309   -1.910760    1.062064
      8          1           0       -7.098976    1.253169   -0.637620
      9         14           0       -3.344219   -2.943792   -1.445746
     10          8           0       -1.810320   -2.564809   -0.930834
     11          8           0       -4.239087   -3.402347   -0.126599
     12          8           0       -3.236889   -4.310270   -2.377212
     13          8           0       -3.873417   -1.746878   -2.449570
     14          1           0       -3.850215   -0.946939   -1.858986
     15          1           0       -4.051040   -4.741723   -2.653949
[...]
 ---------------------------------------------------------------------
 Center     Atomic      Atomic             Coordinates (Angstroms)
 Number     Number       Type             X           Y           Z
 ---------------------------------------------------------------------
      1         14           0       -6.062472   -0.693259   -0.812506
      2          8           0       -4.723222    0.298385   -0.772023
      3          8           0       -7.382728    0.290948   -0.759947
      4          8           0       -6.197389   -1.748618    0.420581
      5          8           0       -5.931544   -1.504069   -2.253251
      6          1           0       -5.389132   -1.070620   -2.925886
      7          1           0       -5.374397   -2.210107    0.681643
      8          1           0       -8.142905   -0.034845   -0.264702
      9         14           0       -3.260220   -2.937642   -1.077290
     10          8           0       -1.926792   -3.906791   -1.006678
     11          8           0       -3.637998   -2.619085    0.527140
     12          8           0       -4.422610   -3.807501   -1.842100
     13          8           0       -2.961840   -1.509923   -1.820764
     14          1           0       -3.237789   -0.693756   -1.369889
     15          1           0       -5.179345   -3.281078   -2.151765
     16          1           0       -1.876326   -4.610340   -1.663230
     17          1           0       -3.218847   -3.224833    1.151213
     18          1           0       -4.774335    1.065293   -0.189307
 ---------------------------------------------------------------------
                    Distance matrix (angstroms):
                    1          2          3          4          5
     1  Si   0.000000
     2  O    1.666909   0.000000
     3  O    1.647575   2.659545   0.000000
     4  O    1.628647   2.790286   2.637898   0.000000
     5  O    1.658403   2.627340   2.749178   2.698121   0.000000
     6  H    2.249924   2.637562   3.243391   3.508818   0.966709
     7  H    2.237579   2.971483   3.516654   0.979001   3.069610
     8  H    2.249845   3.473133   0.963990   2.681727   3.317087
     9  Si   3.599997   3.564468   5.245911   3.504905   3.251767
    10  O    5.241025   5.055550   6.888334   4.993274   4.833742
    11  O    3.373652   3.373005   4.914050   2.705467   3.772822
    12  O    3.667113   4.253673   5.170169   3.536746   2.784193
    13  O    3.361166   2.733550   4.890064   3.943271   3.001036
    14  H    2.879151   1.883692   4.303742   3.616318   2.948432
    15  H    3.044722   3.863197   4.421700   3.162564   1.932321
    16  H    5.795780   5.744096   7.426912   5.585992   5.142163
    17  H    4.283838   4.286612   5.775047   3.403638   4.680826
    18  H    2.267196   0.964530   2.780100   3.211719   3.492938
                    6          7          8          9         10
     6  H    0.000000
     7  H    3.783241   0.000000
     8  H    3.967114   3.645815   0.000000
     9  Si   3.381619   2.844802   5.738218   0.000000
    10  O    4.869808   4.197040   7.360880   1.649929   0.000000
    11  O    4.169844   1.790590   5.253522   1.678806   2.634201
    12  O    3.098270   3.134780   5.528265   1.640957   2.633799
    13  O    2.702966   3.545805   5.607193   1.637122   2.734784
    14  H    2.681684   3.327642   5.071071   2.262994   3.489159
    15  H    2.351467   3.035329   4.783484   2.226092   3.504547
    16  H    5.144290   4.847272   7.884228   2.248645   0.963633
    17  H    5.096421   2.428284   6.035494   2.247313   2.605948
    18  H    3.525473   3.441929   3.544468   4.370875   5.787764
                   11         12         13         14         15
    11  O    0.000000
    12  O    2.764281   0.000000
    13  O    2.683297   2.722714   0.000000
    14  H    2.732357   3.364847   0.972401   0.000000
    15  H    3.160778   0.972452   2.857250   3.327943   0.000000
    16  H    3.444751   2.675838   3.288730   4.156833   3.593820
    17  H    0.965446   3.278486   3.440875   3.572487   3.841404
    18  H    3.921632   5.157476   3.546621   2.617059   4.786044
                   16         17         18
    16  H    0.000000
    17  H    3.412196   0.000000
    18  H    6.540926   4.756229   0.000000
 Stoichiometry    H8O8Si2
 Framework group  C1[X(H8O8Si2)]
 Deg. of freedom    48
 Full point group                 C1      NOp   1
 Largest Abelian subgroup         C1      NOp   1
 Largest concise Abelian subgroup C1      NOp   1
                         Standard orientation:                         
 ---------------------------------------------------------------------
 Center     Atomic      Atomic             Coordinates (Angstroms)
 Number     Number       Type             X           Y           Z
 ---------------------------------------------------------------------
      1         14           0       -1.802161   -0.020207   -0.044605
      2          8           0       -1.414626    0.511472    1.486969
      3          8           0       -3.446246   -0.003015   -0.150407
      4          8           0       -1.310124   -1.528080   -0.414347
      5          8           0       -1.088917    1.083119   -1.056660
      6          1           0       -0.907419    1.948469   -0.665822
      7          1           0       -0.401757   -1.763042   -0.134878
      8          1           0       -3.851784   -0.710235   -0.664854
      9         14           0        1.796898    0.035907    0.015445
     10          8           0        3.433394   -0.088369    0.184863
     11          8           0        1.199204   -1.423287    0.591557
     12          8           0        1.513977    0.249091   -1.586819
     13          8           0        1.159657    1.238954    0.924715
     14          1           0        0.396511    1.029229    1.489681
     15          1           0        0.617917    0.562425   -1.797914
     16          1           0        3.965260    0.305887   -0.515329
     17          1           0        1.867167   -2.117526    0.654354
     18          1           0       -1.982740    0.205915    2.204047
 ---------------------------------------------------------------------
 Rotational constants (GHZ):           1.9407544           0.5695885           0.5669469

 **********************************************************************

            Population analysis using the SCF Density.

 **********************************************************************

 Orbital symmetries:
       Occupied  (A) (A) (A) (A) (A) (A) (A) (A) (A) (A) (A) (A)
                 (A) (A) (A) (A) (A) (A) (A) (A) (A) (A) (A) (A)
                 (A) (A) (A) (A) (A) (A) (A) (A) (A) (A) (A) (A)
                 (A) (A) (A) (A) (A) (A) (A) (A) (A) (A) (A) (A)
                 (A) (A)
       Virtual   (A) (A) (A) (A) (A) (A) (A) (A) (A) (A) (A) (A)
                 (A) (A) (A) (A) (A) (A) (A) (A) (A) (A) (A) (A)
                 (A) (A) (A) (A) (A) (A) (A) (A) (A) (A) (A) (A)
                 (A) (A) (A) (A) (A) (A) (A) (A) (A) (A) (A) (A)
                 (A) (A) (A) (A) (A) (A) (A) (A) (A) (A) (A) (A)
                 (A) (A) (A) (A) (A) (A) (A) (A) (A) (A) (A) (A)
                 (A) (A) (A) (A) (A) (A) (A) (A) (A) (A) (A) (A)
                 (A) (A) (A) (A) (A) (A) (A) (A) (A) (A) (A) (A)
                 (A) (A) (A) (A) (A) (A) (A) (A) (A) (A) (A) (A)
                 (A) (A) (A) (A) (A) (A) (A) (A) (A) (A) (A) (A)
                 (A) (A) (A) (A) (A) (A) (A) (A) (A) (A) (A) (A)
                 (A) (A) (A) (A) (A) (A) (A) (A) (A) (A) (A) (A)
                 (A) (A) (A) (A) (A) (A) (A) (A) (A) (A) (A) (A)
                 (A) (A) (A) (A) (A) (A) (A) (A) (A) (A) (A) (A)
                 (A) (A) (A) (A) (A) (A) (A) (A) (A) (A) (A) (A)
                 (A) (A) (A) (A) (A) (A) (A) (A)
 The electronic state is 1-A.
 Alpha  occ. eigenvalues --  -66.23324 -66.22100 -19.19280 -19.18648 -19.18458
 Alpha  occ. eigenvalues --  -19.17492 -19.16647 -19.16438 -19.15896 -19.15661
 Alpha  occ. eigenvalues --   -5.36691  -5.35469  -3.72725  -3.72659  -3.72614
 Alpha  occ. eigenvalues --   -3.71522  -3.71433  -3.71375  -1.06329  -1.04749
 Alpha  occ. eigenvalues --   -1.02857  -1.02373  -1.01573  -1.00546  -1.00373
 Alpha  occ. eigenvalues --   -0.99721  -0.60971  -0.59594  -0.56360  -0.54752
 Alpha  occ. eigenvalues --   -0.54257  -0.52778  -0.52594  -0.52244  -0.43136
 Alpha  occ. eigenvalues --   -0.42206  -0.41503  -0.40430  -0.39432  -0.38800
 Alpha  occ. eigenvalues --   -0.38269  -0.37880  -0.36361  -0.36018  -0.35562
 Alpha  occ. eigenvalues --   -0.34986  -0.34795  -0.33274  -0.32758  -0.31632
 Alpha virt. eigenvalues --   -0.03365  -0.00846   0.00856   0.01082   0.02355
 Alpha virt. eigenvalues --    0.04468   0.04872   0.06957   0.08122   0.08442
 Alpha virt. eigenvalues --    0.10507   0.11428   0.12539   0.12590   0.13327
 Alpha virt. eigenvalues --    0.13759   0.14176   0.14734   0.15206   0.15905
 Alpha virt. eigenvalues --    0.16126   0.17115   0.17656   0.18307   0.18889
 Alpha virt. eigenvalues --    0.19764   0.19880   0.20917   0.21085   0.21390
 Alpha virt. eigenvalues --    0.22839   0.23287   0.24051   0.24281   0.25397
 Alpha virt. eigenvalues --    0.26044   0.26197   0.27008   0.27545   0.28097
 Alpha virt. eigenvalues --    0.28759   0.29237   0.29899   0.30121   0.31925
 Alpha virt. eigenvalues --    0.32850   0.33343   0.33830   0.36312   0.37793
 Alpha virt. eigenvalues --    0.38889   0.39548   0.40554   0.41384   0.43863
 Alpha virt. eigenvalues --    0.45976   0.46648   0.46925   0.48525   0.52835
 Alpha virt. eigenvalues --    0.53529   0.57112   0.60376   0.61367   0.62790
 Alpha virt. eigenvalues --    0.65396   0.68111   0.75490   0.91811   0.92866
 Alpha virt. eigenvalues --    0.93837   0.94419   0.95853   0.98416   0.98920
 Alpha virt. eigenvalues --    1.01045   1.01973   1.04623   1.06547   1.11624
 Alpha virt. eigenvalues --    1.12301   1.15065   1.15279   1.16391   1.17041
 Alpha virt. eigenvalues --    1.17486   1.18754   1.18891   1.19948   1.20920
 Alpha virt. eigenvalues --    1.21293   1.22183   1.23968   1.24212   1.25462
 Alpha virt. eigenvalues --    1.25628   1.27185   1.27603   1.28772   1.30118
 Alpha virt. eigenvalues --    1.30875   1.33000   1.34223   1.35667   1.37476
 Alpha virt. eigenvalues --    1.38238   1.48880   1.50982   1.51867   1.53723
 Alpha virt. eigenvalues --    1.57104   1.59142   1.59703   1.60811   1.61722
 Alpha virt. eigenvalues --    1.62279   1.63777   1.65114   1.66151   1.69508
 Alpha virt. eigenvalues --    1.69823   1.72479   1.73383   1.75935   1.77374
 Alpha virt. eigenvalues --    1.78351   1.80808   1.83414   1.86999   1.87576
 Alpha virt. eigenvalues --    1.89226   1.92357   1.98511   1.99240   2.04371
 Alpha virt. eigenvalues --    2.06810   2.12535   2.14232   2.35197   2.35737
 Alpha virt. eigenvalues --    2.38229   2.38702   2.40206   2.42807   2.43912
 Alpha virt. eigenvalues --    2.46998   2.49742   2.50455   2.56913   2.59089
 Alpha virt. eigenvalues --    2.60008   2.60476   2.60844   2.62683   2.63035
 Alpha virt. eigenvalues --    2.63541   2.63873   2.65365   2.67042   2.68861
 Alpha virt. eigenvalues --    2.69633   2.72732   2.73763   2.77416   2.77856
 Alpha virt. eigenvalues --    2.78980   2.79781   2.83616   2.87365   2.88361
 Alpha virt. eigenvalues --    3.00278   3.03423   3.40507   3.43684   3.45051
 Alpha virt. eigenvalues --    3.45531   3.48062   3.54296   3.56085   3.59025
 Alpha virt. eigenvalues --    4.18021   4.18853   4.25379   4.28847   4.30787
 Alpha virt. eigenvalues --    4.36825   4.38176   4.48328
          Condensed to atoms (all electrons):
               1          2          3          4          5          6
     1  Si  11.982527  -0.113312  -0.046361   0.137379  -0.196496   0.047057
     2  O   -0.113312   8.791302   0.012066   0.011469   0.138419  -0.003557
     3  O   -0.046361   0.012066   8.623069  -0.024275   0.008337  -0.003855
     4  O    0.137379   0.011469  -0.024275   8.508516   0.070353   0.003596
     5  O   -0.196496   0.138419   0.008337   0.070353   8.635055   0.258072
     6  H    0.047057  -0.003557  -0.003855   0.003596   0.258072   0.321106
     7  H    0.023890  -0.003819   0.007762   0.228363  -0.004398   0.000026
     8  H    0.029158   0.002648   0.239577   0.000334  -0.002930   0.000011
     9  Si  -0.118211   0.046767  -0.000484   0.050099   0.087393  -0.004575
    10  O    0.006991   0.000043  -0.000262   0.002707  -0.001999   0.000037
    11  O    0.068097  -0.024696  -0.001613  -0.048446  -0.030393   0.000512
    12  O    0.003513  -0.021384   0.001892   0.003429  -0.014875  -0.000904
    13  O    0.097881  -0.038307   0.002030  -0.050780  -0.028723  -0.005296
    14  H    0.012633  -0.004270  -0.000428   0.002536  -0.012291   0.000816
    15  H    0.002273   0.000133  -0.000718   0.002610   0.013111  -0.001890
    16  H    0.000148  -0.000007   0.000000   0.000008  -0.000088   0.000001
    17  H   -0.003394   0.000769  -0.000074   0.004547   0.000545  -0.000001
    18  H    0.026970   0.238823   0.004238  -0.006940   0.005054   0.000134
               7          8          9         10         11         12
     1  Si   0.023890   0.029158  -0.118211   0.006991   0.068097   0.003513
     2  O   -0.003819   0.002648   0.046767   0.000043  -0.024696  -0.021384
     3  O    0.007762   0.239577  -0.000484  -0.000262  -0.001613   0.001892
     4  O    0.228363   0.000334   0.050099   0.002707  -0.048446   0.003429
     5  O   -0.004398  -0.002930   0.087393  -0.001999  -0.030393  -0.014875
     6  H    0.000026   0.000011  -0.004575   0.000037   0.000512  -0.000904
     7  H    0.287827   0.000060   0.010093  -0.000364   0.015946   0.001301
     8  H    0.000060   0.353289  -0.000029   0.000000   0.000027   0.000007
     9  Si   0.010093  -0.000029  11.850408  -0.004680  -0.184047   0.100737
    10  O   -0.000364   0.000000  -0.004680   8.615752   0.014550   0.000190
    11  O    0.015946   0.000027  -0.184047   0.014550   8.847839   0.071637
    12  O    0.001301   0.000007   0.100737   0.000190   0.071637   8.535962
    13  O   -0.001485   0.000010  -0.076637  -0.005666   0.103331   0.028028
    14  H   -0.000227  -0.000002   0.030739   0.001881   0.001019   0.000366
    15  H   -0.000011  -0.000000   0.024590   0.007993  -0.006120   0.227997
    16  H   -0.000005  -0.000000   0.027017   0.241716   0.003112   0.000858
    17  H   -0.002135   0.000000   0.021427   0.008213   0.228234  -0.006174
    18  H    0.000244   0.000071  -0.001576   0.000023  -0.000525  -0.000029
              13         14         15         16         17         18
     1  Si   0.097881   0.012633   0.002273   0.000148  -0.003394   0.026970
     2  O   -0.038307  -0.004270   0.000133  -0.000007   0.000769   0.238823
     3  O    0.002030  -0.000428  -0.000718   0.000000  -0.000074   0.004238
     4  O   -0.050780   0.002536   0.002610   0.000008   0.004547  -0.006940
     5  O   -0.028723  -0.012291   0.013111  -0.000088   0.000545   0.005054
     6  H   -0.005296   0.000816  -0.001890   0.000001  -0.000001   0.000134
     7  H   -0.001485  -0.000227  -0.000011  -0.000005  -0.002135   0.000244
     8  H    0.000010  -0.000002  -0.000000  -0.000000   0.000000   0.000071
     9  Si  -0.076637   0.030739   0.024590   0.027017   0.021427  -0.001576
    10  O   -0.005666   0.001881   0.007993   0.241716   0.008213   0.000023
    11  O    0.103331   0.001019  -0.006120   0.003112   0.228234  -0.000525
    12  O    0.028028   0.000366   0.227997   0.000858  -0.006174  -0.000029
    13  O    8.617840   0.246562  -0.005774  -0.003190   0.002132   0.002485
    14  H    0.246562   0.293746   0.000167  -0.000022   0.000009   0.000105
    15  H   -0.005774   0.000167   0.306429   0.000095   0.000036  -0.000007
    16  H   -0.003190  -0.000022   0.000095   0.353511   0.000051  -0.000000
    17  H    0.002132   0.000009   0.000036   0.000051   0.328662  -0.000006
    18  H    0.002485   0.000105  -0.000007  -0.000000  -0.000006   0.328050
 Mulliken charges:
               1
     1  Si   2.039256
     2  O   -1.033085
     3  O   -0.820903
     4  O   -0.895507
     5  O   -0.924147
     6  H    0.388710
     7  H    0.436932
     8  H    0.377768
     9  Si   2.140968
    10  O   -0.887125
    11  O   -1.058461
    12  O   -0.932550
    13  O   -0.884442
    14  H    0.426659
    15  H    0.429086
    16  H    0.376793
    17  H    0.417158
    18  H    0.402888
 Sum of Mulliken charges =  -0.00000
 Mulliken charges with hydrogens summed into heavy atoms:
               1
     1  Si   2.039256
     2  O   -0.630198
     3  O   -0.443134
     4  O   -0.458575
     5  O   -0.535436
     9  Si   2.140968
    10  O   -0.510331
    11  O   -0.641303
    12  O   -0.503465
    13  O   -0.457782
 Electronic spatial extent (au):  <R**2>=           2091.5079
 Charge=              0.0000 electrons
 Dipole moment (field-independent basis, Debye):
    X=             -0.9914    Y=             -0.9071    Z=              0.9418  Tot=              1.6409
 Quadrupole moment (field-independent basis, Debye-Ang):
   XX=            -68.8002   YY=            -68.8975   ZZ=            -71.5309
   XY=             -0.4476   XZ=             -4.4563   YZ=             -2.8449
 Traceless Quadrupole moment (field-independent basis, Debye-Ang):
   XX=              0.9427   YY=              0.8454   ZZ=             -1.7880
   XY=             -0.4476   XZ=             -4.4563   YZ=             -2.8449
 Octapole moment (field-independent basis, Debye-Ang**2):
  XXX=              6.8121  YYY=             -3.0600  ZZZ=             20.9698  XYY=              7.0813
  XXY=            -17.6681  XXZ=            -18.9689  XZZ=            -19.2435  YZZ=             -1.6971
  YYZ=             -0.9717  XYZ=             -8.4329
 Hexadecapole moment (field-independent basis, Debye-Ang**3):
 XXXX=          -1650.3092 YYYY=           -327.2419 ZZZZ=           -333.1039 XXXY=            112.9352
 XXXZ=            -46.0593 YYYX=            -53.4054 YYYZ=            -23.4295 ZZZX=            -21.4326
 ZZZY=              1.1389 XXYY=           -336.7323 XXZZ=           -335.1035 YYZZ=           -127.9037
 XXYZ=             -0.1918 YYXZ=              1.6711 ZZXY=              2.2799
 N-N= 8.811017477959D+02 E-N=-4.571864704690D+03  KE= 1.178323583851D+03
 1\1\GINC-GRA1305\FOpt\RB3LYP\6-31+G(d,p)\H8O8Si2\SARASHS\29-Jul-2020\0
 \\#n B3LYP/6-31+G(d,p) EmpiricalDispersion=GD3 Opt=modredundant\\Title
 \\0,1\Si,-6.0624715168,-0.6932587439,-0.8125063439\O,-4.7232215287,0.2
 983848846,-0.772023474\O,-7.3827284996,0.2909484814,-0.7599466534\O,-6
 .19738939,-1.7486179544,0.4205812671\O,-5.9315438002,-1.5040686112,-2.
 2532508611\H,-5.3891318047,-1.0706195953,-2.925885507\H,-5.3743970298,
 -2.2101073045,0.681642851\H,-8.1429046475,-0.0348448199,-0.2647016064\
 Si,-3.2602199173,-2.937642318,-1.077289784\O,-1.9267918158,-3.90679141
 23,-1.0066777288\O,-3.6379983237,-2.6190847257,0.5271400758\O,-4.42261
 01167,-3.8075013562,-1.84210012\O,-2.9618404571,-1.5099227278,-1.82076
 44062\H,-3.2377886808,-0.6937559571,-1.3698888429\H,-5.1793452581,-3.2
 810778976,-2.1517651955\H,-1.876325935,-4.6103398034,-1.6632300224\H,-
 3.2188466215,-3.2248328749,1.1512131824\H,-4.7743346569,1.0652927361,-
 0.1893068308\\Version=ES64L-G16RevB.01\State=1-A\HF=-1186.0687744\RMSD
 =5.066e-09\RMSF=2.910e-03\Dipole=-0.1377549,0.3944212,0.4921891\Quadru
 pole=-3.777819,1.8578135,1.9200055,-2.0786227,0.0666379,1.3631517\PG=C
 01 [X(H8O8Si2)]\\@


 It is also a good rule not to put too much confidence in
 experimental results until they have been confirmed by
 Theory.
                             -- Sir Arthur Eddington
 Job cpu time:       0 days  4 hours 36 minutes 18.9 seconds.
 Elapsed time:       0 days  0 hours 19 minutes 43.3 seconds.
 File lengths (MBytes):  RWF=     40 Int=      0 D2E=      0 Chk=      5 Scr=      1
 Normal termination of Gaussian 16 at Wed Jul 29 17:48:31 2020.
