 Entering Gaussian System, Link 0=g16
 Initial command:
 /opt/software/gaussian/g16.b01/l1.exe "/localscratch/sarashs.36560092.0/Gau-21925.inp" -scrdir="/localscratch/sarashs.36560092.0/"
 Entering Link 1 = /opt/software/gaussian/g16.b01/l1.exe PID=     21926.
  
 Copyright (c) 1988-2017, Gaussian, Inc.  All Rights Reserved.
  
 This is part of the Gaussian(R) 16 program.  It is based on
 the Gaussian(R) 09 system (copyright 2009, Gaussian, Inc.),
 the Gaussian(R) 03 system (copyright 2003, Gaussian, Inc.),
 the Gaussian(R) 98 system (copyright 1998, Gaussian, Inc.),
 the Gaussian(R) 94 system (copyright 1995, Gaussian, Inc.),
 the Gaussian 92(TM) system (copyright 1992, Gaussian, Inc.),
 the Gaussian 90(TM) system (copyright 1990, Gaussian, Inc.),
 the Gaussian 88(TM) system (copyright 1988, Gaussian, Inc.),
 the Gaussian 86(TM) system (copyright 1986, Carnegie Mellon
 University), and the Gaussian 82(TM) system (copyright 1983,
 Carnegie Mellon University). Gaussian is a federally registered
 trademark of Gaussian, Inc.
  
 This software contains proprietary and confidential information,
 including trade secrets, belonging to Gaussian, Inc.
  
 This software is provided under written license and may be
 used, copied, transmitted, or stored only in accord with that
 written license.
  
 The following legend is applicable only to US Government
 contracts under FAR:
  
                    RESTRICTED RIGHTS LEGEND
  
 Use, reproduction and disclosure by the US Government is
 subject to restrictions as set forth in subparagraphs (a)
 and (c) of the Commercial Computer Software - Restricted
 Rights clause in FAR 52.227-19.
  
 Gaussian, Inc.
 340 Quinnipiac St., Bldg. 40, Wallingford CT 06492
  
  
 ---------------------------------------------------------------
 Warning -- This program may not be used in any manner that
 competes with the business of Gaussian, Inc. or will provide
 assistance to any competitor of Gaussian, Inc.  The licensee
 of this program is prohibited from giving any competitor of
 Gaussian, Inc. access to this program.  By using this program,
 the user acknowledges that Gaussian, Inc. is engaged in the
 business of creating and licensing software in the field of
 computational chemistry and represents and warrants to the
 licensee that it is not a competitor of Gaussian, Inc. and that
 it will not use this program in any manner prohibited above.
 ---------------------------------------------------------------
  

 Cite this work as:
 Gaussian 16, Revision B.01,
 M. J. Frisch, G. W. Trucks, H. B. Schlegel, G. E. Scuseria, 
 M. A. Robb, J. R. Cheeseman, G. Scalmani, V. Barone, 
 G. A. Petersson, H. Nakatsuji, X. Li, M. Caricato, A. V. Marenich, 
 J. Bloino, B. G. Janesko, R. Gomperts, B. Mennucci, H. P. Hratchian, 
 J. V. Ortiz, A. F. Izmaylov, J. L. Sonnenberg, D. Williams-Young, 
 F. Ding, F. Lipparini, F. Egidi, J. Goings, B. Peng, A. Petrone, 
 T. Henderson, D. Ranasinghe, V. G. Zakrzewski, J. Gao, N. Rega, 
 G. Zheng, W. Liang, M. Hada, M. Ehara, K. Toyota, R. Fukuda, 
 J. Hasegawa, M. Ishida, T. Nakajima, Y. Honda, O. Kitao, H. Nakai, 
 T. Vreven, K. Throssell, J. A. Montgomery, Jr., J. E. Peralta, 
 F. Ogliaro, M. J. Bearpark, J. J. Heyd, E. N. Brothers, K. N. Kudin, 
 V. N. Staroverov, T. A. Keith, R. Kobayashi, J. Normand, 
 K. Raghavachari, A. P. Rendell, J. C. Burant, S. S. Iyengar, 
 J. Tomasi, M. Cossi, J. M. Millam, M. Klene, C. Adamo, R. Cammi, 
 J. W. Ochterski, R. L. Martin, K. Morokuma, O. Farkas, 
 J. B. Foresman, and D. J. Fox, Gaussian, Inc., Wallingford CT, 2016.
 
 ******************************************
 Gaussian 16:  ES64L-G16RevB.01 20-Dec-2017
                29-Jul-2020 
 ******************************************
 %NProcShared=16
 Will use up to   16 processors via shared memory.
 -------------------------------------------------------------
 #n B3LYP/6-31+G(d,p) EmpiricalDispersion=GD3 Opt=modredundant
 -------------------------------------------------------------
 1/18=120,19=15,26=3,38=1/1,3;
 2/9=110,12=2,17=6,18=5,40=1/2;
 3/5=1,6=6,7=111,11=2,25=1,30=1,71=1,74=-5,124=31/1,2,3;
 4//1;
 5/5=2,38=5/2;
 6/7=2,8=2,9=2,10=2,28=1/1;
 7//1,2,3,16;
 1/18=20,19=15,26=3/3(2);
 2/9=110/2;
 99//99;
 2/9=110/2;
 3/5=1,6=6,7=111,11=2,25=1,30=1,71=1,74=-5,124=31/1,2,3;
 4/5=5,16=3,69=1/1;
 5/5=2,38=5/2;
 7//1,2,3,16;
 1/18=20,19=15,26=3/3(-5);
 2/9=110/2;
 6/7=2,8=2,9=2,10=2,19=2,28=1/1;
 99/9=1/99;
 -----
 Title
 -----
 Symbolic Z-matrix:
 Charge =  0 Multiplicity = 1
 Si                   -6.57611  -0.11923  -0.20887 
 O                    -4.95529  -0.29758   0.01116 
 O                    -6.87986   1.41578  -0.68286 
 O                    -7.35474  -0.41853   1.1983 
 O                    -7.08636  -1.18119  -1.34263 
 H                    -6.482    -1.29327  -2.09454 
 H                    -7.74005  -1.30699   1.25118 
 H                    -7.76993   1.73003  -0.46358 
 Si                   -3.31018  -2.97416  -1.406 
 O                    -1.79319  -2.57507  -0.93631 
 O                    -4.23059  -3.30155  -0.09125 
 O                    -3.24876  -4.28448  -2.38516 
 O                    -3.98384  -1.70788  -2.2029 
 H                    -4.00478  -0.89769  -1.66505 
 H                    -4.11864  -4.64444  -2.60985 
 H                    -1.10594  -3.06413  -1.41428 
 H                    -4.35706  -2.53859   0.49456 
 H                    -4.58128   0.40004   0.57419 
 
 Add virtual bond connecting atoms H14        and O2         Dist= 3.81D+00.
 The following ModRedundant input section has been read:
 B       1       9 F                                                           
 

 GradGradGradGradGradGradGradGradGradGradGradGradGradGradGradGradGradGrad
 Berny optimization.
 Initialization pass.
                           ----------------------------
                           !    Initial Parameters    !
                           ! (Angstroms and Degrees)  !
 --------------------------                            --------------------------
 ! Name  Definition              Value          Derivative Info.                !
 --------------------------------------------------------------------------------
 ! R1    R(1,2)                  1.6454         estimate D2E/DX2                !
 ! R2    R(1,3)                  1.635          estimate D2E/DX2                !
 ! R3    R(1,4)                  1.6358         estimate D2E/DX2                !
 ! R4    R(1,5)                  1.6351         estimate D2E/DX2                !
 ! R5    R(1,9)                  4.5            Frozen                          !
 ! R6    R(2,14)                 2.0182         estimate D2E/DX2                !
 ! R7    R(2,18)                 0.9714         estimate D2E/DX2                !
 ! R8    R(3,8)                  0.9691         estimate D2E/DX2                !
 ! R9    R(4,7)                  0.9699         estimate D2E/DX2                !
 ! R10   R(5,6)                  0.9712         estimate D2E/DX2                !
 ! R11   R(9,10)                 1.6374         estimate D2E/DX2                !
 ! R12   R(9,11)                 1.638          estimate D2E/DX2                !
 ! R13   R(9,12)                 1.6369         estimate D2E/DX2                !
 ! R14   R(9,13)                 1.6408         estimate D2E/DX2                !
 ! R15   R(10,16)                0.9695         estimate D2E/DX2                !
 ! R16   R(11,17)                0.9702         estimate D2E/DX2                !
 ! R17   R(12,15)                0.9679         estimate D2E/DX2                !
 ! R18   R(13,14)                0.9727         estimate D2E/DX2                !
 ! A1    A(2,1,3)              108.8772         estimate D2E/DX2                !
 ! A2    A(2,1,4)              109.5124         estimate D2E/DX2                !
 ! A3    A(2,1,5)              109.2523         estimate D2E/DX2                !
 ! A4    A(3,1,4)              109.4344         estimate D2E/DX2                !
 ! A5    A(3,1,5)              110.5346         estimate D2E/DX2                !
 ! A6    A(4,1,5)              109.214          estimate D2E/DX2                !
 ! A7    A(1,2,14)             112.6498         estimate D2E/DX2                !
 ! A8    A(1,2,18)             112.2687         estimate D2E/DX2                !
 ! A9    A(14,2,18)            120.9044         estimate D2E/DX2                !
 ! A10   A(1,3,8)              114.1731         estimate D2E/DX2                !
 ! A11   A(1,4,7)              113.8041         estimate D2E/DX2                !
 ! A12   A(1,5,6)              114.6833         estimate D2E/DX2                !
 ! A13   A(10,9,11)            109.82           estimate D2E/DX2                !
 ! A14   A(10,9,12)            109.3858         estimate D2E/DX2                !
 ! A15   A(10,9,13)            109.3648         estimate D2E/DX2                !
 ! A16   A(11,9,12)            109.9517         estimate D2E/DX2                !
 ! A17   A(11,9,13)            108.2631         estimate D2E/DX2                !
 ! A18   A(12,9,13)            110.0383         estimate D2E/DX2                !
 ! A19   A(9,10,16)            113.1017         estimate D2E/DX2                !
 ! A20   A(9,11,17)            113.6237         estimate D2E/DX2                !
 ! A21   A(9,12,15)            113.7569         estimate D2E/DX2                !
 ! A22   A(9,13,14)            112.5252         estimate D2E/DX2                !
 ! A23   A(2,14,13)            135.8114         estimate D2E/DX2                !
 ! D1    D(3,1,2,14)           -90.0845         estimate D2E/DX2                !
 ! D2    D(3,1,2,18)            50.4723         estimate D2E/DX2                !
 ! D3    D(4,1,2,14)           150.2963         estimate D2E/DX2                !
 ! D4    D(4,1,2,18)           -69.147          estimate D2E/DX2                !
 ! D5    D(5,1,2,14)            30.719          estimate D2E/DX2                !
 ! D6    D(5,1,2,18)           171.2758         estimate D2E/DX2                !
 ! D7    D(2,1,3,8)           -154.199          estimate D2E/DX2                !
 ! D8    D(4,1,3,8)            -34.5313         estimate D2E/DX2                !
 ! D9    D(5,1,3,8)             85.7881         estimate D2E/DX2                !
 ! D10   D(2,1,4,7)           -100.0138         estimate D2E/DX2                !
 ! D11   D(3,1,4,7)            140.7097         estimate D2E/DX2                !
 ! D12   D(5,1,4,7)             19.587          estimate D2E/DX2                !
 ! D13   D(2,1,5,6)            -39.7339         estimate D2E/DX2                !
 ! D14   D(3,1,5,6)             80.0535         estimate D2E/DX2                !
 ! D15   D(4,1,5,6)           -159.4953         estimate D2E/DX2                !
 ! D16   D(1,2,14,13)          -68.229          estimate D2E/DX2                !
 ! D17   D(18,2,14,13)         155.0234         estimate D2E/DX2                !
 ! D18   D(11,9,10,16)         130.3438         estimate D2E/DX2                !
 ! D19   D(12,9,10,16)           9.5908         estimate D2E/DX2                !
 ! D20   D(13,9,10,16)        -110.9862         estimate D2E/DX2                !
 ! D21   D(10,9,11,17)          63.842          estimate D2E/DX2                !
 ! D22   D(12,9,11,17)        -175.7474         estimate D2E/DX2                !
 ! D23   D(13,9,11,17)         -55.5049         estimate D2E/DX2                !
 ! D24   D(10,9,12,15)         172.6026         estimate D2E/DX2                !
 ! D25   D(11,9,12,15)          51.9299         estimate D2E/DX2                !
 ! D26   D(13,9,12,15)         -67.2318         estimate D2E/DX2                !
 ! D27   D(10,9,13,14)         -57.463          estimate D2E/DX2                !
 ! D28   D(11,9,13,14)          62.1705         estimate D2E/DX2                !
 ! D29   D(12,9,13,14)        -177.6412         estimate D2E/DX2                !
 ! D30   D(9,13,14,2)          -66.6457         estimate D2E/DX2                !
 --------------------------------------------------------------------------------
 Trust Radius=3.00D-01 FncErr=1.00D-07 GrdErr=1.00D-06 EigMax=2.50D+02 EigMin=1.00D-04
 Number of steps in this run=     81 maximum allowed number of steps=    108.
 GradGradGradGradGradGradGradGradGradGradGradGradGradGradGradGradGradGrad

                          Input orientation:                          
 ---------------------------------------------------------------------
 Center     Atomic      Atomic             Coordinates (Angstroms)
 Number     Number       Type             X           Y           Z
 ---------------------------------------------------------------------
      1         14           0       -6.576110   -0.119230   -0.208870
      2          8           0       -4.955290   -0.297580    0.011160
      3          8           0       -6.879860    1.415780   -0.682860
      4          8           0       -7.354740   -0.418530    1.198300
      5          8           0       -7.086360   -1.181190   -1.342630
      6          1           0       -6.482000   -1.293270   -2.094540
      7          1           0       -7.740050   -1.306990    1.251180
      8          1           0       -7.769930    1.730030   -0.463580
      9         14           0       -3.310180   -2.974160   -1.406000
     10          8           0       -1.793190   -2.575070   -0.936310
     11          8           0       -4.230590   -3.301550   -0.091250
     12          8           0       -3.248760   -4.284480   -2.385160
     13          8           0       -3.983840   -1.707880   -2.202900
     14          1           0       -4.004780   -0.897690   -1.665050
     15          1           0       -4.118640   -4.644440   -2.609850
     16          1           0       -1.105940   -3.064130   -1.414280
     17          1           0       -4.357060   -2.538590    0.494560
     18          1           0       -4.581280    0.400040    0.574190
 ---------------------------------------------------------------------
                    Distance matrix (angstroms):
                    1          2          3          4          5
     1  Si   0.000000
     2  O    1.645381   0.000000
     3  O    1.634988   2.668564   0.000000
     4  O    1.635840   2.679793   2.670013   0.000000
     5  O    1.635092   2.674878   2.687414   2.666459   0.000000
     6  H    2.223281   2.784998   3.080598   3.517050   0.971175
     7  H    2.212979   3.211144   3.448755   0.969856   2.677870
     8  H    2.215817   3.501254   0.969052   2.747824   3.116921
     9  Si   4.500005   3.446565   5.704132   5.447209   4.180705
    10  O    5.425555   4.010428   6.470343   6.335461   5.488683
    11  O    3.955055   3.091846   5.442595   4.442416   3.770584
    12  O    5.758194   4.954792   6.969625   6.681753   5.044249
    13  O    3.635908   2.799057   4.522688   4.959189   3.262376
    14  H    3.055847   2.018237   3.818760   4.432900   3.111344
    15  H    5.681671   5.144402   6.932813   6.544667   4.733636
    16  H    6.328365   4.950068   7.344571   7.271332   6.270249
    17  H    3.357425   2.369321   4.836102   3.738448   3.559056
    18  H    2.205033   0.971370   2.809871   2.958319   3.528443
                    6          7          8          9         10
     6  H    0.000000
     7  H    3.574454   0.000000
     8  H    3.668670   3.487805   0.000000
     9  Si   3.655123   5.428058   6.550338   0.000000
    10  O    4.996944   6.462065   7.380974   1.637419   0.000000
    11  O    3.621492   4.254021   6.162983   1.637958   2.680078
    12  O    4.414254   6.500777   7.765808   1.636907   2.672065
    13  O    2.534649   5.118642   5.401753   1.640833   2.674924
    14  H    2.545106   4.756487   4.746030   2.204836   2.869808
    15  H    4.132960   6.257854   7.653252   2.211944   3.534225
    16  H    5.700940   7.362312   8.264173   2.206091   0.969509
    17  H    3.573462   3.678850   5.548588   2.213099   2.936350
    18  H    3.688110   3.653778   3.607399   4.113645   4.348142
                   11         12         13         14         15
    11  O    0.000000
    12  O    2.681821   0.000000
    13  O    2.657016   2.685597   0.000000
    14  H    2.882079   3.544076   0.972692   0.000000
    15  H    2.856437   0.967857   2.967687   3.865714   0.000000
    16  H    3.401502   2.650196   3.277750   3.627619   3.605985
    17  H    0.970194   3.545314   2.847045   2.735063   3.758831
    18  H    3.777243   5.698955   3.537300   2.651538   5.983220
                   16         17         18
    16  H    0.000000
    17  H    3.806526   0.000000
    18  H    5.294570   2.948247   0.000000
 Stoichiometry    H8O8Si2
 Framework group  C1[X(H8O8Si2)]
 Deg. of freedom    48
 Full point group                 C1      NOp   1
 Largest Abelian subgroup         C1      NOp   1
 Largest concise Abelian subgroup C1      NOp   1
                         Standard orientation:                         
 ---------------------------------------------------------------------
 Center     Atomic      Atomic             Coordinates (Angstroms)
 Number     Number       Type             X           Y           Z
 ---------------------------------------------------------------------
      1         14           0       -2.238258   -0.004802   -0.010475
      2          8           0       -1.007961    1.062949    0.220950
      3          8           0       -3.302911    0.636948   -1.072481
      4          8           0       -2.992541   -0.286307    1.413528
      5          8           0       -1.631473   -1.410220   -0.585051
      6          1           0       -0.919553   -1.307894   -1.237646
      7          1           0       -2.724079   -1.114047    1.841774
      8          1           0       -4.206935    0.300264   -0.980573
      9         14           0        2.261723   -0.005253    0.004340
     10          8           0        2.983974    1.447622    0.224905
     11          8           0        1.447159   -0.432016    1.359798
     12          8           0        3.399119   -1.130533   -0.341405
     13          8           0        1.185508    0.103877   -1.229428
     14          1           0        0.512785    0.789803   -1.077512
     15          1           0        3.055947   -2.034967   -0.372710
     16          1           0        3.921005    1.448301   -0.023932
     17          1           0        0.714825    0.165861    1.577755
     18          1           0       -1.329499    1.954884    0.432199
 ---------------------------------------------------------------------
 Rotational constants (GHZ):           2.0083195           0.4143707           0.4124408
 Standard basis: 6-31+G(d,p) (6D, 7F)
 There are   238 symmetry adapted cartesian basis functions of A   symmetry.
 There are   238 symmetry adapted basis functions of A   symmetry.
   238 basis functions,   424 primitive gaussians,   238 cartesian basis functions
    50 alpha electrons       50 beta electrons
       nuclear repulsion energy       831.1908003330 Hartrees.
 NAtoms=   18 NActive=   18 NUniq=   18 SFac= 1.00D+00 NAtFMM=   60 NAOKFM=F Big=F
 Integral buffers will be    131072 words long.
 Raffenetti 2 integral format.
 Two-electron integral symmetry is turned on.
 Nuclear repulsion after empirical dispersion term =      831.1755593489 Hartrees.
 One-electron integrals computed using PRISM.
 NBasis=   238 RedAO= T EigKep=  2.50D-04  NBF=   238
 NBsUse=   238 1.00D-06 EigRej= -1.00D+00 NBFU=   238
 ExpMin= 3.31D-02 ExpMax= 1.61D+04 ExpMxC= 2.43D+03 IAcc=3 IRadAn=         5 AccDes= 0.00D+00
 Harris functional with IExCor=  402 and IRadAn=       5 diagonalized for initial guess.
 HarFok:  IExCor=  402 AccDes= 0.00D+00 IRadAn=         5 IDoV= 1 UseB2=F ITyADJ=14
 ICtDFT=  3500011 ScaDFX=  1.000000  1.000000  1.000000  1.000000
 FoFCou: FMM=F IPFlag=           0 FMFlag=      100000 FMFlg1=           0
         NFxFlg=           0 DoJE=T BraDBF=F KetDBF=T FulRan=T
         wScrn=  0.000000 ICntrl=       500 IOpCl=  0 I1Cent=   200000004 NGrid=           0
         NMat0=    1 NMatS0=      1 NMatT0=    0 NMatD0=    1 NMtDS0=    0 NMtDT0=    0
 Petite list used in FoFCou.
 Requested convergence on RMS density matrix=1.00D-08 within 128 cycles.
 Requested convergence on MAX density matrix=1.00D-06.
 Requested convergence on             energy=1.00D-06.
 No special actions if energy rises.
 SCF Done:  E(RB3LYP) =  -1186.05426855     A.U. after   11 cycles
            NFock= 11  Conv=0.99D-08     -V/T= 2.0065

 **********************************************************************

            Population analysis using the SCF Density.

 **********************************************************************

 Orbital symmetries:
       Occupied  (A) (A) (A) (A) (A) (A) (A) (A) (A) (A) (A) (A)
                 (A) (A) (A) (A) (A) (A) (A) (A) (A) (A) (A) (A)
                 (A) (A) (A) (A) (A) (A) (A) (A) (A) (A) (A) (A)
                 (A) (A) (A) (A) (A) (A) (A) (A) (A) (A) (A) (A)
                 (A) (A)
       Virtual   (A) (A) (A) (A) (A) (A) (A) (A) (A) (A) (A) (A)
                 (A) (A) (A) (A) (A) (A) (A) (A) (A) (A) (A) (A)
                 (A) (A) (A) (A) (A) (A) (A) (A) (A) (A) (A) (A)
                 (A) (A) (A) (A) (A) (A) (A) (A) (A) (A) (A) (A)
                 (A) (A) (A) (A) (A) (A) (A) (A) (A) (A) (A) (A)
                 (A) (A) (A) (A) (A) (A) (A) (A) (A) (A) (A) (A)
                 (A) (A) (A) (A) (A) (A) (A) (A) (A) (A) (A) (A)
                 (A) (A) (A) (A) (A) (A) (A) (A) (A) (A) (A) (A)
                 (A) (A) (A) (A) (A) (A) (A) (A) (A) (A) (A) (A)
                 (A) (A) (A) (A) (A) (A) (A) (A) (A) (A) (A) (A)
                 (A) (A) (A) (A) (A) (A) (A) (A) (A) (A) (A) (A)
                 (A) (A) (A) (A) (A) (A) (A) (A) (A) (A) (A) (A)
                 (A) (A) (A) (A) (A) (A) (A) (A) (A) (A) (A) (A)
                 (A) (A) (A) (A) (A) (A) (A) (A) (A) (A) (A) (A)
                 (A) (A) (A) (A) (A) (A) (A) (A) (A) (A) (A) (A)
                 (A) (A) (A) (A) (A) (A) (A) (A)
 The electronic state is 1-A.
 Alpha  occ. eigenvalues --  -66.23017 -66.20649 -19.20173 -19.18308 -19.18039
 Alpha  occ. eigenvalues --  -19.17508 -19.17035 -19.16180 -19.15455 -19.15432
 Alpha  occ. eigenvalues --   -5.36616  -5.34240  -3.72631  -3.72577  -3.72524
 Alpha  occ. eigenvalues --   -3.70267  -3.70178  -3.70159  -1.06950  -1.04333
 Alpha  occ. eigenvalues --   -1.03521  -1.02260  -1.01759  -1.00805  -1.00191
 Alpha  occ. eigenvalues --   -0.99529  -0.60962  -0.58724  -0.55566  -0.54450
 Alpha  occ. eigenvalues --   -0.54260  -0.53148  -0.51947  -0.51846  -0.44049
 Alpha  occ. eigenvalues --   -0.41507  -0.40423  -0.39758  -0.39544  -0.38797
 Alpha  occ. eigenvalues --   -0.38661  -0.38239  -0.37752  -0.36952  -0.34975
 Alpha  occ. eigenvalues --   -0.34713  -0.34577  -0.33276  -0.32996  -0.30420
 Alpha virt. eigenvalues --   -0.04031  -0.01063   0.00118   0.00877   0.01948
 Alpha virt. eigenvalues --    0.02681   0.04494   0.06473   0.08680   0.09548
 Alpha virt. eigenvalues --    0.10203   0.11114   0.11572   0.12343   0.12743
 Alpha virt. eigenvalues --    0.13573   0.13674   0.14481   0.15006   0.15793
 Alpha virt. eigenvalues --    0.16404   0.16884   0.17021   0.17659   0.18439
 Alpha virt. eigenvalues --    0.18727   0.19073   0.20185   0.20484   0.21117
 Alpha virt. eigenvalues --    0.21665   0.21996   0.22490   0.23280   0.24077
 Alpha virt. eigenvalues --    0.25294   0.25647   0.25931   0.27124   0.27440
 Alpha virt. eigenvalues --    0.27544   0.28326   0.28840   0.30140   0.30455
 Alpha virt. eigenvalues --    0.30894   0.32701   0.33573   0.35204   0.36078
 Alpha virt. eigenvalues --    0.36647   0.38143   0.39149   0.39764   0.42570
 Alpha virt. eigenvalues --    0.44577   0.47131   0.47742   0.49648   0.50027
 Alpha virt. eigenvalues --    0.51490   0.53916   0.61035   0.62029   0.62764
 Alpha virt. eigenvalues --    0.64451   0.65417   0.70618   0.93520   0.94245
 Alpha virt. eigenvalues --    0.95391   0.96448   0.96569   0.97115   0.98019
 Alpha virt. eigenvalues --    0.98867   0.99663   1.01258   1.03920   1.04294
 Alpha virt. eigenvalues --    1.07515   1.10466   1.15140   1.16218   1.16429
 Alpha virt. eigenvalues --    1.17745   1.17858   1.18466   1.20067   1.20674
 Alpha virt. eigenvalues --    1.21310   1.22136   1.22740   1.23414   1.24263
 Alpha virt. eigenvalues --    1.24640   1.25520   1.26899   1.27581   1.29360
 Alpha virt. eigenvalues --    1.30070   1.31440   1.32053   1.33859   1.34736
 Alpha virt. eigenvalues --    1.38094   1.46131   1.49285   1.53597   1.54512
 Alpha virt. eigenvalues --    1.56152   1.56611   1.57683   1.58572   1.59085
 Alpha virt. eigenvalues --    1.60547   1.63130   1.63405   1.64521   1.66801
 Alpha virt. eigenvalues --    1.67529   1.67841   1.69289   1.71646   1.72990
 Alpha virt. eigenvalues --    1.76852   1.79221   1.82240   1.87592   1.88883
 Alpha virt. eigenvalues --    1.90002   1.92274   1.93012   2.00954   2.02247
 Alpha virt. eigenvalues --    2.09592   2.11648   2.15591   2.35889   2.36540
 Alpha virt. eigenvalues --    2.36731   2.37705   2.37994   2.38531   2.40174
 Alpha virt. eigenvalues --    2.42114   2.46962   2.49577   2.58118   2.58688
 Alpha virt. eigenvalues --    2.58872   2.60271   2.60970   2.61816   2.62407
 Alpha virt. eigenvalues --    2.62772   2.65918   2.67447   2.68836   2.70148
 Alpha virt. eigenvalues --    2.71774   2.72374   2.73518   2.74726   2.77067
 Alpha virt. eigenvalues --    2.78550   2.79354   2.80921   2.81781   2.82725
 Alpha virt. eigenvalues --    2.98559   3.01373   3.39688   3.40644   3.42105
 Alpha virt. eigenvalues --    3.44424   3.45542   3.47794   3.50372   3.52937
 Alpha virt. eigenvalues --    4.12151   4.17086   4.17603   4.20593   4.21102
 Alpha virt. eigenvalues --    4.23414   4.32938   4.44358
          Condensed to atoms (all electrons):
               1          2          3          4          5          6
     1  Si  11.802727  -0.076613   0.038473   0.040234   0.092278   0.036184
     2  O   -0.076613   8.700664   0.059897   0.036342   0.028732  -0.007441
     3  O    0.038473   0.059897   8.517564  -0.007899  -0.014226  -0.007383
     4  O    0.040234   0.036342  -0.007899   8.501343   0.072510   0.006152
     5  O    0.092278   0.028732  -0.014226   0.072510   8.428902   0.247969
     6  H    0.036184  -0.007441  -0.007383   0.006152   0.247969   0.325306
     7  H    0.038367  -0.006923   0.004994   0.241489  -0.003490   0.000060
     8  H    0.038890   0.003020   0.237362  -0.001580  -0.007012   0.000047
     9  Si   0.019142  -0.018948   0.001779   0.000783  -0.037683   0.002432
    10  O    0.000743   0.005247   0.000025  -0.000130   0.000077   0.000122
    11  O   -0.024896   0.021246  -0.000838  -0.003931   0.025203  -0.002325
    12  O    0.002020  -0.004422  -0.000045   0.000130  -0.001189  -0.000024
    13  O   -0.031137   0.007632  -0.005323  -0.002639   0.036920   0.008339
    14  H    0.010934  -0.002061  -0.000563   0.000643  -0.005891  -0.000472
    15  H   -0.000208   0.000095   0.000000  -0.000002  -0.000069   0.000012
    16  H   -0.000215   0.000035   0.000000   0.000000   0.000009  -0.000000
    17  H    0.003195   0.002337   0.000144   0.001102  -0.002855   0.000163
    18  H    0.045398   0.214758  -0.002498  -0.008184   0.006538   0.000062
               7          8          9         10         11         12
     1  Si   0.038367   0.038890   0.019142   0.000743  -0.024896   0.002020
     2  O   -0.006923   0.003020  -0.018948   0.005247   0.021246  -0.004422
     3  O    0.004994   0.237362   0.001779   0.000025  -0.000838  -0.000045
     4  O    0.241489  -0.001580   0.000783  -0.000130  -0.003931   0.000130
     5  O   -0.003490  -0.007012  -0.037683   0.000077   0.025203  -0.001189
     6  H    0.000060   0.000047   0.002432   0.000122  -0.002325  -0.000024
     7  H    0.348328   0.000080   0.000247  -0.000002  -0.000307  -0.000003
     8  H    0.000080   0.356526  -0.000073   0.000000   0.000021  -0.000000
     9  Si   0.000247  -0.000073  11.841814  -0.010379  -0.017805   0.038915
    10  O   -0.000002   0.000000  -0.010379   8.555328   0.061202   0.014971
    11  O   -0.000307   0.000021  -0.017805   0.061202   8.518697   0.032859
    12  O   -0.000003  -0.000000   0.038915   0.014971   0.032859   8.481279
    13  O    0.000014   0.000083  -0.019125   0.048106   0.044200   0.040081
    14  H   -0.000002  -0.000005   0.049340  -0.006149  -0.018834   0.007501
    15  H    0.000000   0.000000   0.040393   0.008394  -0.007547   0.244604
    16  H    0.000000   0.000000   0.033774   0.236991   0.001310  -0.000666
    17  H    0.000067  -0.000001   0.051840  -0.007447   0.232816   0.006897
    18  H    0.000082   0.000122  -0.000511   0.000011   0.001112  -0.000010
              13         14         15         16         17         18
     1  Si  -0.031137   0.010934  -0.000208  -0.000215   0.003195   0.045398
     2  O    0.007632  -0.002061   0.000095   0.000035   0.002337   0.214758
     3  O   -0.005323  -0.000563   0.000000   0.000000   0.000144  -0.002498
     4  O   -0.002639   0.000643  -0.000002   0.000000   0.001102  -0.008184
     5  O    0.036920  -0.005891  -0.000069   0.000009  -0.002855   0.006538
     6  H    0.008339  -0.000472   0.000012  -0.000000   0.000163   0.000062
     7  H    0.000014  -0.000002   0.000000   0.000000   0.000067   0.000082
     8  H    0.000083  -0.000005   0.000000   0.000000  -0.000001   0.000122
     9  Si  -0.019125   0.049340   0.040393   0.033774   0.051840  -0.000511
    10  O    0.048106  -0.006149   0.008394   0.236991  -0.007447   0.000011
    11  O    0.044200  -0.018834  -0.007547   0.001310   0.232816   0.001112
    12  O    0.040081   0.007501   0.244604  -0.000666   0.006897  -0.000010
    13  O    8.555007   0.224501  -0.008272  -0.003647  -0.018733   0.004569
    14  H    0.224501   0.344822  -0.000004  -0.000030   0.000456  -0.001254
    15  H   -0.008272  -0.000004   0.360282   0.000051   0.000009   0.000000
    16  H   -0.003647  -0.000030   0.000051   0.356615  -0.000032   0.000000
    17  H   -0.018733   0.000456   0.000009  -0.000032   0.348941  -0.000128
    18  H    0.004569  -0.001254   0.000000   0.000000  -0.000128   0.344261
 Mulliken charges:
               1
     1  Si   1.964484
     2  O   -0.963595
     3  O   -0.821463
     4  O   -0.876363
     5  O   -0.866721
     6  H    0.390796
     7  H    0.377000
     8  H    0.372522
     9  Si   2.024067
    10  O   -0.907111
    11  O   -0.862182
    12  O   -0.862897
    13  O   -0.880574
    14  H    0.397066
    15  H    0.362262
    16  H    0.375806
    17  H    0.381230
    18  H    0.395673
 Sum of Mulliken charges =  -0.00000
 Mulliken charges with hydrogens summed into heavy atoms:
               1
     1  Si   1.964484
     2  O   -0.567922
     3  O   -0.448941
     4  O   -0.499363
     5  O   -0.475925
     9  Si   2.024067
    10  O   -0.531305
    11  O   -0.480952
    12  O   -0.500635
    13  O   -0.483508
 Electronic spatial extent (au):  <R**2>=           2700.2811
 Charge=             -0.0000 electrons
 Dipole moment (field-independent basis, Debye):
    X=             -2.1702    Y=              0.1684    Z=              0.3207  Tot=              2.2002
 Quadrupole moment (field-independent basis, Debye-Ang):
   XX=            -66.8185   YY=            -66.6702   ZZ=            -75.9799
   XY=              0.1951   XZ=             -2.4326   YZ=              0.7593
 Traceless Quadrupole moment (field-independent basis, Debye-Ang):
   XX=              3.0044   YY=              3.1527   ZZ=             -6.1570
   XY=              0.1951   XZ=             -2.4326   YZ=              0.7593
 Octapole moment (field-independent basis, Debye-Ang**2):
  XXX=            -22.3327  YYY=             -4.2066  ZZZ=              6.1909  XYY=              4.8891
  XXY=              2.1858  XXZ=            -12.5240  XZZ=             -8.5829  YZZ=             -6.1850
  YYZ=              3.1287  XYZ=              2.3904
 Hexadecapole moment (field-independent basis, Debye-Ang**3):
 XXXX=          -2221.8215 YYYY=           -321.9153 ZZZZ=           -358.4201 XXXY=            120.8909
 XXXZ=             60.8942 YYYX=            -66.8505 YYYZ=              5.9319 ZZZX=            -13.4466
 ZZZY=             -2.7900 XXYY=           -449.1799 XXZZ=           -524.1741 YYZZ=           -110.3257
 XXYZ=            -15.4777 YYXZ=            -38.4787 ZZXY=             26.3980
 N-N= 8.311755593489D+02 E-N=-4.472301184841D+03  KE= 1.178450673155D+03
 Calling FoFJK, ICntrl=      2127 FMM=F ISym2X=0 I1Cent= 0 IOpClX= 0 NMat=1 NMatS=1 NMatT=0.
 ***** Axes restored to original set *****
 -------------------------------------------------------------------
 Center     Atomic                   Forces (Hartrees/Bohr)
 Number     Number              X              Y              Z
 -------------------------------------------------------------------
      1       14          -0.012504708   -0.004040410   -0.006906280
      2        8           0.016166816    0.008801654    0.003878042
      3        8          -0.002141272    0.012048557    0.005526170
      4        8          -0.010464002   -0.007767453    0.004296418
      5        8           0.005874245   -0.006150003   -0.004003664
      6        1          -0.001657307   -0.003936091    0.001992899
      7        1           0.001113993    0.004259842    0.002675869
      8        1           0.004544994    0.000768046   -0.002141975
      9       14          -0.003729312    0.002987567    0.002932986
     10        8           0.014554135   -0.005955841   -0.003829482
     11        8          -0.004139961   -0.001100045    0.011849228
     12        8          -0.005269922   -0.004163813   -0.002666508
     13        8          -0.005259667    0.011686028   -0.009025550
     14        1          -0.000757622   -0.002998546   -0.002003175
     15        1           0.004234563   -0.001584864   -0.001213102
     16        1          -0.000073988    0.004424093    0.004213392
     17        1          -0.002190324   -0.003297586   -0.002616278
     18        1           0.001699340   -0.003981135   -0.002958991
 -------------------------------------------------------------------
 Cartesian Forces:  Max     0.016166816 RMS     0.006053289

 GradGradGradGradGradGradGradGradGradGradGradGradGradGradGradGradGradGrad
 Berny optimization.
 FormGI is forming the generalized inverse of G from B-inverse, IUseBI=4.
 Internal  Forces:  Max     0.015164671 RMS     0.005561241
 Search for a local minimum.
 Step number   1 out of a maximum of   81
 All quantities printed in internal units (Hartrees-Bohrs-Radians)
 Mixed Optimization -- RFO/linear search
 Second derivative matrix not updated -- first step.
 ITU=  0
     Eigenvalues ---    0.00448   0.03536   0.03739   0.03799   0.03837
     Eigenvalues ---    0.03844   0.03851   0.03865   0.03875   0.03876
     Eigenvalues ---    0.03899   0.07695   0.10703   0.10772   0.12173
     Eigenvalues ---    0.12197   0.12246   0.12480   0.14053   0.16000
     Eigenvalues ---    0.16000   0.16000   0.16000   0.16000   0.16000
     Eigenvalues ---    0.16000   0.20131   0.20260   0.20696   0.20836
     Eigenvalues ---    0.21114   0.41350   0.43803   0.44527   0.44613
     Eigenvalues ---    0.44696   0.44868   0.44990   0.45007   0.51770
     Eigenvalues ---    0.53098   0.53138   0.53337   0.53406   0.53477
     Eigenvalues ---    0.53571   0.538171000.000001000.000001000.00000
     Eigenvalues --- 1000.000001000.000001000.000001000.000001000.00000
     Eigenvalues --- 1000.000001000.000001000.000001000.000001000.00000
     Eigenvalues --- 1000.000001000.000001000.000001000.000001000.00000
     Eigenvalues --- 1000.000001000.000001000.000001000.000001000.00000
     Eigenvalues --- 1000.00000
 RFO step:  Lambda=-8.75279231D-03 EMin= 4.47562164D-03
 Linear search not attempted -- first point.
 Iteration  1 RMS(Cart)=  0.11371980 RMS(Int)=  0.00385694
 Iteration  2 RMS(Cart)=  0.00713005 RMS(Int)=  0.00040626
 Iteration  3 RMS(Cart)=  0.00003111 RMS(Int)=  0.00040607
 Iteration  4 RMS(Cart)=  0.00000002 RMS(Int)=  0.00040607
 Iteration  1 RMS(Cart)=  0.00017548 RMS(Int)=  0.00001876
 Iteration  2 RMS(Cart)=  0.00001193 RMS(Int)=  0.00001935
 Iteration  3 RMS(Cart)=  0.00000081 RMS(Int)=  0.00001943
 Variable       Old X    -DE/DX   Delta X   Delta X   Delta X     New X
                                 (Linear)    (Quad)   (Total)
    R1        3.10932   0.01516   0.00000   0.03753   0.03799   3.14731
    R2        3.08968   0.01061   0.00000   0.02312   0.02312   3.11280
    R3        3.09129   0.01109   0.00000   0.02424   0.02424   3.11553
    R4        3.08988   0.00663   0.00000   0.01445   0.01445   3.10433
    R5        8.50378  -0.00117   0.00000   0.00000  -0.00000   8.50378
    R6        3.81392   0.00160   0.00000   0.06015   0.06065   3.87457
    R7        1.83562  -0.00392   0.00000  -0.00726  -0.00726   1.82836
    R8        1.83124  -0.00441   0.00000  -0.00810  -0.00810   1.82314
    R9        1.83276  -0.00420   0.00000  -0.00774  -0.00774   1.82503
   R10        1.83526  -0.00212   0.00000  -0.00392  -0.00392   1.83133
   R11        3.09427   0.01315   0.00000   0.02891   0.02891   3.12318
   R12        3.09529   0.01185   0.00000   0.02610   0.02610   3.12139
   R13        3.09331   0.00688   0.00000   0.01511   0.01511   3.10841
   R14        3.10072   0.01308   0.00000   0.03191   0.03235   3.13307
   R15        1.83211  -0.00436   0.00000  -0.00802  -0.00802   1.82408
   R16        1.83340  -0.00389   0.00000  -0.00717  -0.00717   1.82623
   R17        1.82899  -0.00293   0.00000  -0.00536  -0.00536   1.82362
   R18        1.83812  -0.00153   0.00000  -0.00037   0.00007   1.83819
    A1        1.90027  -0.00823   0.00000  -0.04351  -0.04292   1.85734
    A2        1.91135   0.01103   0.00000   0.04660   0.04661   1.95796
    A3        1.90681  -0.00840   0.00000  -0.04610  -0.04549   1.86132
    A4        1.90999  -0.00307   0.00000  -0.00850  -0.00829   1.90170
    A5        1.92919   0.01262   0.00000   0.06602   0.06542   1.99461
    A6        1.90614  -0.00386   0.00000  -0.01427  -0.01408   1.89206
    A7        1.96611  -0.01004   0.00000  -0.04745  -0.04656   1.91955
    A8        1.95946   0.00812   0.00000   0.04166   0.04115   2.00061
    A9        2.11018   0.00096   0.00000  -0.00103  -0.00103   2.10915
   A10        1.99270   0.00463   0.00000   0.02742   0.02742   2.02011
   A11        1.98626   0.00538   0.00000   0.03189   0.03189   2.01814
   A12        2.00160   0.00520   0.00000   0.03083   0.03083   2.03243
   A13        1.91672   0.00191   0.00000   0.01247   0.01218   1.92890
   A14        1.90914  -0.00301   0.00000  -0.02105  -0.02103   1.88811
   A15        1.90878   0.00158   0.00000   0.01188   0.01163   1.92040
   A16        1.91902  -0.00159   0.00000  -0.01191  -0.01186   1.90716
   A17        1.88955   0.00186   0.00000   0.01588   0.01569   1.90524
   A18        1.92053  -0.00067   0.00000  -0.00669  -0.00662   1.91391
   A19        1.97400   0.00783   0.00000   0.04637   0.04637   2.02037
   A20        1.98311   0.00270   0.00000   0.01599   0.01599   1.99910
   A21        1.98543   0.00667   0.00000   0.03950   0.03950   2.02493
   A22        1.96394   0.00021   0.00000   0.01799   0.01891   1.98284
   A23        2.37036   0.00129   0.00000   0.01904   0.02029   2.39065
    D1       -1.57227  -0.00189   0.00000  -0.00233  -0.00291  -1.57518
    D2        0.88091  -0.00257   0.00000  -0.01051  -0.01140   0.86950
    D3        2.62316   0.00024   0.00000   0.00648   0.00662   2.62979
    D4       -1.20684  -0.00044   0.00000  -0.00169  -0.00187  -1.20872
    D5        0.53615   0.00339   0.00000   0.02373   0.02465   0.56080
    D6        2.98933   0.00271   0.00000   0.01555   0.01616   3.00548
    D7       -2.69128  -0.00487   0.00000  -0.02420  -0.02486  -2.71614
    D8       -0.60268   0.00177   0.00000   0.00126   0.00117  -0.60151
    D9        1.49729   0.00294   0.00000   0.01959   0.02034   1.51763
   D10       -1.74557   0.00053   0.00000   0.00858   0.00864  -1.73693
   D11        2.45585   0.00578   0.00000   0.03870   0.03844   2.49429
   D12        0.34186  -0.00541   0.00000  -0.02824  -0.02804   0.31381
   D13       -0.69349   0.00630   0.00000   0.05721   0.05802  -0.63547
   D14        1.39720  -0.00137   0.00000   0.01516   0.01447   1.41167
   D15       -2.78372   0.00024   0.00000   0.03676   0.03664  -2.74708
   D16       -1.19082   0.00317   0.00000   0.10034   0.10011  -1.09071
   D17        2.70567   0.00136   0.00000   0.09306   0.09243   2.79809
   D18        2.27493  -0.00221   0.00000  -0.01520  -0.01531   2.25962
   D19        0.16739   0.00045   0.00000   0.00494   0.00494   0.17233
   D20       -1.93707   0.00216   0.00000   0.01878   0.01889  -1.91818
   D21        1.11425   0.00384   0.00000   0.04615   0.04628   1.16053
   D22       -3.06737   0.00032   0.00000   0.02048   0.02048  -3.04689
   D23       -0.96874  -0.00031   0.00000   0.01500   0.01487  -0.95387
   D24        3.01248  -0.00014   0.00000  -0.00255  -0.00251   3.00997
   D25        0.90635   0.00040   0.00000   0.00278   0.00270   0.90905
   D26       -1.17342  -0.00049   0.00000  -0.00525  -0.00520  -1.17862
   D27       -1.00292  -0.00218   0.00000  -0.01150  -0.01161  -1.01453
   D28        1.08508   0.00215   0.00000   0.01986   0.01996   1.10504
   D29       -3.10042   0.00095   0.00000   0.01112   0.01112  -3.08930
   D30       -1.16319   0.00263   0.00000  -0.02535  -0.02645  -1.18964
         Item               Value     Threshold  Converged?
 Maximum Force            0.015231     0.000450     NO 
 RMS     Force            0.005599     0.000300     NO 
 Maximum Displacement     0.356937     0.001800     NO 
 RMS     Displacement     0.116694     0.001200     NO 
 Predicted change in Energy=-4.667014D-03
 GradGradGradGradGradGradGradGradGradGradGradGradGradGradGradGradGradGrad

                          Input orientation:                          
 ---------------------------------------------------------------------
 Center     Atomic      Atomic             Coordinates (Angstroms)
 Number     Number       Type             X           Y           Z
 ---------------------------------------------------------------------
      1         14           0       -6.585699   -0.113823   -0.187112
      2          8           0       -4.942924   -0.194469    0.074840
      3          8           0       -6.895035    1.407028   -0.739071
      4          8           0       -7.449496   -0.368472    1.193871
      5          8           0       -6.951085   -1.307407   -1.255027
      6          1           0       -6.296289   -1.482153   -1.947745
      7          1           0       -7.806084   -1.259042    1.305350
      8          1           0       -7.792093    1.731083   -0.594003
      9         14           0       -3.330217   -2.963933   -1.423543
     10          8           0       -1.776364   -2.637020   -0.965130
     11          8           0       -4.251006   -3.356584   -0.109652
     12          8           0       -3.300967   -4.236177   -2.465770
     13          8           0       -3.990545   -1.642022   -2.175416
     14          1           0       -3.993516   -0.841012   -1.623533
     15          1           0       -4.159895   -4.596174   -2.718565
     16          1           0       -1.087495   -3.101405   -1.456597
     17          1           0       -4.388108   -2.632317    0.515301
     18          1           0       -4.581782    0.534968    0.597913
 ---------------------------------------------------------------------
                    Distance matrix (angstroms):
                    1          2          3          4          5
     1  Si   0.000000
     2  O    1.665482   0.000000
     3  O    1.647221   2.652919   0.000000
     4  O    1.648668   2.750529   2.682553   0.000000
     5  O    1.642739   2.653279   2.763605   2.669665   0.000000
     6  H    2.248536   2.753285   3.188535   3.527027   0.969099
     7  H    2.242390   3.293199   3.481035   0.965763   2.699795
     8  H    2.241568   3.503265   0.964765   2.778847   3.221284
     9  Si   4.500005   3.537782   5.681701   5.527724   3.985368
    10  O    5.486487   4.132154   6.527344   6.480126   5.350668
    11  O    3.996534   3.242184   5.484437   4.567091   3.577909
    12  O    5.742434   5.048379   6.909745   6.749994   4.833938
    13  O    3.608817   2.840086   4.449253   4.993833   3.118314
    14  H    3.051478   2.050332   3.775549   4.483844   3.016710
    15  H    5.690716   5.271741   6.887512   6.633408   4.555072
    16  H    6.384941   5.065560   7.387037   7.414105   6.135205
    17  H    3.415495   2.538687   4.916752   3.867500   3.385012
    18  H    2.247861   0.967527   2.810543   3.065152   3.527227
                    6          7          8          9         10
     6  H    0.000000
     7  H    3.593312   0.000000
     8  H    3.794065   3.542398   0.000000
     9  Si   3.356791   5.512431   6.529904   0.000000
    10  O    4.767492   6.588735   7.443592   1.652717   0.000000
    11  O    3.327951   4.363541   6.217575   1.651768   2.715414
    12  O    4.101824   6.586408   7.699476   1.644901   2.670887
    13  O    2.322466   5.178875   5.322637   1.657949   2.712455
    14  H    2.412248   4.825845   4.701574   2.233104   2.928293
    15  H    3.854280   6.373621   7.598738   2.242691   3.548808
    16  H    5.476745   7.494137   8.309551   2.247174   0.965263
    17  H    3.321240   3.767310   5.644195   2.233432   3.002150
    18  H    3.672695   3.757002   3.627320   4.230249   4.513866
                   11         12         13         14         15
    11  O    0.000000
    12  O    2.688411   0.000000
    13  O    2.697210   2.699901   0.000000
    14  H    2.947242   3.565969   0.972729   0.000000
    15  H    2.889864   0.965019   3.008439   3.915102   0.000000
    16  H    3.447779   2.684324   3.327792   3.685403   3.642326
    17  H    0.966398   3.555423   2.894599   2.817639   3.790344
    18  H    3.969161   5.812958   3.574941   2.678470   6.124185
                   16         17         18
    16  H    0.000000
    17  H    3.873302   0.000000
    18  H    5.445572   3.174277   0.000000
 Stoichiometry    H8O8Si2
 Framework group  C1[X(H8O8Si2)]
 Deg. of freedom    48
 Full point group                 C1      NOp   1
 Largest Abelian subgroup         C1      NOp   1
 Largest concise Abelian subgroup C1      NOp   1
                         Standard orientation:                         
 ---------------------------------------------------------------------
 Center     Atomic      Atomic             Coordinates (Angstroms)
 Number     Number       Type             X           Y           Z
 ---------------------------------------------------------------------
      1         14           0       -2.248434   -0.010028   -0.017175
      2          8           0       -1.085761    1.026647    0.572170
      3          8           0       -3.280449    0.909054   -0.913594
      4          8           0       -3.096874   -0.744992    1.190336
      5          8           0       -1.456824   -1.167070   -0.873446
      6          1           0       -0.679845   -0.877231   -1.374894
      7          1           0       -2.821127   -1.644898    1.406740
      8          1           0       -4.173407    0.558252   -1.015253
      9         14           0        2.251499   -0.002677    0.007287
     10          8           0        3.036834    1.283564    0.685747
     11          8           0        1.468161   -0.880024    1.167019
     12          8           0        3.370399   -0.955763   -0.731219
     13          8           0        1.148319    0.530367   -1.109698
     14          1           0        0.484204    1.138493   -0.741817
     15          1           0        3.049695   -1.800698   -1.069590
     16          1           0        3.965520    1.383895    0.442420
     17          1           0        0.735453   -0.416803    1.594209
     18          1           0       -1.433833    1.822594    0.998108
 ---------------------------------------------------------------------
 Rotational constants (GHZ):           1.9907796           0.4136419           0.4098662
 Standard basis: 6-31+G(d,p) (6D, 7F)
 There are   238 symmetry adapted cartesian basis functions of A   symmetry.
 There are   238 symmetry adapted basis functions of A   symmetry.
   238 basis functions,   424 primitive gaussians,   238 cartesian basis functions
    50 alpha electrons       50 beta electrons
       nuclear repulsion energy       827.1343028510 Hartrees.
 NAtoms=   18 NActive=   18 NUniq=   18 SFac= 1.00D+00 NAtFMM=   60 NAOKFM=F Big=F
 Integral buffers will be    131072 words long.
 Raffenetti 2 integral format.
 Two-electron integral symmetry is turned on.
 Nuclear repulsion after empirical dispersion term =      827.1191321962 Hartrees.
 One-electron integrals computed using PRISM.
 NBasis=   238 RedAO= T EigKep=  2.53D-04  NBF=   238
 NBsUse=   238 1.00D-06 EigRej= -1.00D+00 NBFU=   238
 Initial guess from the checkpoint file:  "/localscratch/sarashs.36560092.0/Gau-21926.chk"
 B after Tr=    -0.000000    0.000000    0.000000
         Rot=    0.987421   -0.158061    0.003401   -0.002366 Ang= -18.20 deg.
 ExpMin= 3.31D-02 ExpMax= 1.61D+04 ExpMxC= 2.43D+03 IAcc=3 IRadAn=         5 AccDes= 0.00D+00
 Harris functional with IExCor=  402 and IRadAn=       5 diagonalized for initial guess.
 HarFok:  IExCor=  402 AccDes= 0.00D+00 IRadAn=         5 IDoV= 1 UseB2=F ITyADJ=14
 ICtDFT=  3500011 ScaDFX=  1.000000  1.000000  1.000000  1.000000
 FoFCou: FMM=F IPFlag=           0 FMFlag=      100000 FMFlg1=           0
         NFxFlg=           0 DoJE=T BraDBF=F KetDBF=T FulRan=T
         wScrn=  0.000000 ICntrl=       500 IOpCl=  0 I1Cent=   200000004 NGrid=           0
         NMat0=    1 NMatS0=      1 NMatT0=    0 NMatD0=    1 NMtDS0=    0 NMtDT0=    0
 Petite list used in FoFCou.
 Requested convergence on RMS density matrix=1.00D-08 within 128 cycles.
 Requested convergence on MAX density matrix=1.00D-06.
 Requested convergence on             energy=1.00D-06.
 No special actions if energy rises.
 SCF Done:  E(RB3LYP) =  -1186.05989066     A.U. after   10 cycles
            NFock= 10  Conv=0.67D-08     -V/T= 2.0067
 Calling FoFJK, ICntrl=      2127 FMM=F ISym2X=0 I1Cent= 0 IOpClX= 0 NMat=1 NMatS=1 NMatT=0.
 ***** Axes restored to original set *****
 -------------------------------------------------------------------
 Center     Atomic                   Forces (Hartrees/Bohr)
 Number     Number              X              Y              Z
 -------------------------------------------------------------------
      1       14          -0.003323932   -0.004553225   -0.004866523
      2        8           0.003397537    0.003258046    0.002119260
      3        8           0.000366121    0.000993587    0.004235673
      4        8          -0.002333597   -0.000776826   -0.002151748
      5        8           0.000830971    0.001760604    0.001965671
      6        1           0.001699094   -0.002066846    0.000801505
      7        1           0.000575884    0.000830641    0.000717183
      8        1           0.000523592    0.000817509   -0.000693226
      9       14           0.000854801    0.001755222    0.002361876
     10        8           0.000090925   -0.002642671   -0.002305623
     11        8           0.001810987    0.000323573    0.001387722
     12        8          -0.002763510    0.000898533    0.000326110
     13        8          -0.002015511    0.002684205   -0.001800392
     14        1          -0.000015573   -0.002353001   -0.000730084
     15        1           0.001667964   -0.001047855   -0.000653707
     16        1          -0.000165078    0.001288052    0.001156040
     17        1          -0.001950919    0.000073229   -0.000576967
     18        1           0.000750245   -0.001242777   -0.001292771
 -------------------------------------------------------------------
 Cartesian Forces:  Max     0.004866523 RMS     0.001932465

 GradGradGradGradGradGradGradGradGradGradGradGradGradGradGradGradGradGrad
 Berny optimization.
 Using GEDIIS/GDIIS optimizer.
 FormGI is forming the generalized inverse of G from B-inverse, IUseBI=4.
 Internal  Forces:  Max     0.005855592 RMS     0.001900991
 Search for a local minimum.
 Step number   2 out of a maximum of   81
 All quantities printed in internal units (Hartrees-Bohrs-Radians)
 Mixed Optimization -- RFO/linear search
 Update second derivatives using D2CorX and points    1    2
 DE= -5.62D-03 DEPred=-4.67D-03 R= 1.20D+00
 TightC=F SS=  1.41D+00  RLast= 2.56D-01 DXNew= 5.0454D-01 7.6715D-01
 Trust test= 1.20D+00 RLast= 2.56D-01 DXMaxT set to 5.05D-01
 ITU=  1  0
 Use linear search instead of GDIIS.
     Eigenvalues ---    0.00484   0.03555   0.03633   0.03747   0.03819
     Eigenvalues ---    0.03844   0.03850   0.03852   0.03866   0.03876
     Eigenvalues ---    0.04007   0.07063   0.10746   0.11090   0.11476
     Eigenvalues ---    0.12264   0.12379   0.12462   0.13693   0.14040
     Eigenvalues ---    0.16000   0.16000   0.16000   0.16000   0.16000
     Eigenvalues ---    0.16191   0.17600   0.20603   0.20678   0.20859
     Eigenvalues ---    0.21062   0.40944   0.43791   0.44512   0.44678
     Eigenvalues ---    0.44738   0.44883   0.44968   0.48449   0.51788
     Eigenvalues ---    0.53013   0.53204   0.53363   0.53445   0.53463
     Eigenvalues ---    0.53791   0.538101000.000001000.000001000.00000
     Eigenvalues --- 1000.000001000.000001000.000001000.000001000.00000
     Eigenvalues --- 1000.000001000.000001000.000001000.000001000.00000
     Eigenvalues --- 1000.000001000.000001000.000001000.000001000.00000
     Eigenvalues --- 1000.000001000.000001000.000001000.000001000.00000
     Eigenvalues --- 1000.00000
 RFO step:  Lambda=-1.88461782D-03 EMin= 4.84074931D-03
 Quartic linear search produced a step of  0.41172.
 Iteration  1 RMS(Cart)=  0.12382149 RMS(Int)=  0.00433471
 Iteration  2 RMS(Cart)=  0.00828816 RMS(Int)=  0.00039634
 Iteration  3 RMS(Cart)=  0.00003252 RMS(Int)=  0.00039594
 Iteration  4 RMS(Cart)=  0.00000001 RMS(Int)=  0.00039594
 Iteration  1 RMS(Cart)=  0.00013250 RMS(Int)=  0.00001475
 Iteration  2 RMS(Cart)=  0.00000953 RMS(Int)=  0.00001524
 Iteration  3 RMS(Cart)=  0.00000068 RMS(Int)=  0.00001531
 Variable       Old X    -DE/DX   Delta X   Delta X   Delta X     New X
                                 (Linear)    (Quad)   (Total)
    R1        3.14731   0.00339   0.01564   0.00111   0.01710   3.16440
    R2        3.11280   0.00032   0.00952  -0.00359   0.00593   3.11873
    R3        3.11553  -0.00029   0.00998  -0.00572   0.00426   3.11979
    R4        3.10433  -0.00214   0.00595  -0.00957  -0.00362   3.10071
    R5        8.50378  -0.00271  -0.00000   0.00000   0.00000   8.50378
    R6        3.87457   0.00130   0.02497  -0.00182   0.02352   3.89809
    R7        1.82836  -0.00136  -0.00299  -0.00216  -0.00515   1.82321
    R8        1.82314  -0.00032  -0.00334   0.00077  -0.00257   1.82057
    R9        1.82503  -0.00090  -0.00318  -0.00084  -0.00402   1.82101
   R10        1.83133   0.00095  -0.00162   0.00329   0.00167   1.83301
   R11        3.12318  -0.00066   0.01190  -0.00781   0.00409   3.12727
   R12        3.12139   0.00063   0.01074  -0.00319   0.00756   3.12894
   R13        3.10841   0.00030   0.00622  -0.00204   0.00418   3.11259
   R14        3.13307   0.00189   0.01332  -0.00271   0.01096   3.14403
   R15        1.82408  -0.00133  -0.00330  -0.00191  -0.00521   1.81887
   R16        1.82623  -0.00004  -0.00295   0.00131  -0.00165   1.82458
   R17        1.82362  -0.00092  -0.00221  -0.00135  -0.00356   1.82006
   R18        1.83819  -0.00085   0.00003  -0.00417  -0.00381   1.83438
    A1        1.85734  -0.00308  -0.01767  -0.01585  -0.03273   1.82462
    A2        1.95796   0.00534   0.01919   0.02478   0.04395   2.00192
    A3        1.86132  -0.00382  -0.01873  -0.01949  -0.03745   1.82387
    A4        1.90170  -0.00227  -0.00341  -0.01263  -0.01578   1.88592
    A5        1.99461   0.00552   0.02693   0.02870   0.05499   2.04960
    A6        1.89206  -0.00136  -0.00580  -0.00405  -0.00952   1.88254
    A7        1.91955  -0.00586  -0.01917  -0.05877  -0.07741   1.84213
    A8        2.00061   0.00305   0.01694   0.02043   0.03664   2.03725
    A9        2.10915   0.00145  -0.00042   0.01183   0.01134   2.12049
   A10        2.02011   0.00208   0.01129   0.01244   0.02373   2.04384
   A11        2.01814   0.00113   0.01313   0.00321   0.01634   2.03448
   A12        2.03243   0.00037   0.01269  -0.00322   0.00947   2.04190
   A13        1.92890   0.00047   0.00501   0.00115   0.00603   1.93493
   A14        1.88811  -0.00076  -0.00866  -0.00121  -0.00985   1.87826
   A15        1.92040   0.00032   0.00479  -0.00031   0.00435   1.92476
   A16        1.90716   0.00027  -0.00488   0.00437  -0.00048   1.90668
   A17        1.90524  -0.00048   0.00646  -0.00596   0.00041   1.90564
   A18        1.91391   0.00018  -0.00272   0.00209  -0.00060   1.91331
   A19        2.02037   0.00202   0.01909   0.00795   0.02704   2.04741
   A20        1.99910   0.00126   0.00659   0.00770   0.01428   2.01338
   A21        2.02493   0.00337   0.01626   0.02117   0.03743   2.06236
   A22        1.98284  -0.00228   0.00778  -0.03740  -0.02895   1.95389
   A23        2.39065   0.00037   0.00836  -0.01417  -0.00494   2.38571
    D1       -1.57518  -0.00113  -0.00120  -0.00333  -0.00519  -1.58037
    D2        0.86950  -0.00220  -0.00470  -0.02955  -0.03523   0.83427
    D3        2.62979   0.00057   0.00273   0.00808   0.01094   2.64073
    D4       -1.20872  -0.00050  -0.00077  -0.01813  -0.01910  -1.22781
    D5        0.56080   0.00163   0.01015   0.01130   0.02247   0.58326
    D6        3.00548   0.00056   0.00665  -0.01491  -0.00758   2.99791
    D7       -2.71614  -0.00240  -0.01024  -0.01326  -0.02430  -2.74045
    D8       -0.60151   0.00092   0.00048   0.00013   0.00069  -0.60082
    D9        1.51763   0.00123   0.00837   0.00504   0.01413   1.53176
   D10       -1.73693   0.00045   0.00356   0.00940   0.01294  -1.72399
   D11        2.49429   0.00251   0.01583   0.02219   0.03779   2.53207
   D12        0.31381  -0.00198  -0.01155  -0.00257  -0.01387   0.29994
   D13       -0.63547   0.00364   0.02389   0.05126   0.07601  -0.55946
   D14        1.41167   0.00044   0.00596   0.03510   0.04026   1.45193
   D15       -2.74708   0.00022   0.01509   0.03511   0.05014  -2.69694
   D16       -1.09071  -0.00108   0.04122  -0.07440  -0.03305  -1.12377
   D17        2.79809  -0.00039   0.03805  -0.04752  -0.01025   2.78784
   D18        2.25962   0.00019  -0.00630   0.00713   0.00077   2.26039
   D19        0.17233   0.00004   0.00203   0.00186   0.00390   0.17623
   D20       -1.91818   0.00010   0.00778   0.00024   0.00808  -1.91010
   D21        1.16053   0.00135   0.01905   0.02845   0.04757   1.20810
   D22       -3.04689   0.00087   0.00843   0.03038   0.03882  -3.00807
   D23       -0.95387   0.00096   0.00612   0.03197   0.03803  -0.91584
   D24        3.00997  -0.00004  -0.00103  -0.00272  -0.00374   3.00623
   D25        0.90905  -0.00032   0.00111  -0.00596  -0.00489   0.90416
   D26       -1.17862  -0.00000  -0.00214  -0.00261  -0.00472  -1.18334
   D27       -1.01453  -0.00084  -0.00478  -0.01756  -0.02239  -1.03692
   D28        1.10504  -0.00036   0.00822  -0.02014  -0.01187   1.09317
   D29       -3.08930  -0.00021   0.00458  -0.01717  -0.01258  -3.10188
   D30       -1.18964  -0.00268  -0.01089  -0.05288  -0.06461  -1.25425
         Item               Value     Threshold  Converged?
 Maximum Force            0.005615     0.000450     NO 
 RMS     Force            0.001885     0.000300     NO 
 Maximum Displacement     0.364093     0.001800     NO 
 RMS     Displacement     0.127104     0.001200     NO 
 Predicted change in Energy=-1.497602D-03
 GradGradGradGradGradGradGradGradGradGradGradGradGradGradGradGradGradGrad

                          Input orientation:                          
 ---------------------------------------------------------------------
 Center     Atomic      Atomic             Coordinates (Angstroms)
 Number     Number       Type             X           Y           Z
 ---------------------------------------------------------------------
      1         14           0       -6.603701   -0.119019   -0.188369
      2          8           0       -4.971080   -0.234721    0.165475
      3          8           0       -6.806393    1.434822   -0.706227
      4          8           0       -7.607715   -0.364398    1.098988
      5          8           0       -6.874841   -1.319111   -1.273989
      6          1           0       -6.146294   -1.542856   -1.874013
      7          1           0       -7.995239   -1.242762    1.182030
      8          1           0       -7.691721    1.808461   -0.637407
      9         14           0       -3.333062   -2.951546   -1.425200
     10          8           0       -1.749283   -2.584971   -1.115522
     11          8           0       -4.130301   -3.348429   -0.029329
     12          8           0       -3.355147   -4.241901   -2.448663
     13          8           0       -4.095185   -1.657425   -2.141075
     14          1           0       -4.070512   -0.865883   -1.579710
     15          1           0       -4.203535   -4.655476   -2.640549
     16          1           0       -1.081245   -3.026850   -1.649266
     17          1           0       -4.271345   -2.619462    0.587886
     18          1           0       -4.591999    0.472597    0.701049
 ---------------------------------------------------------------------
                    Distance matrix (angstroms):
                    1          2          3          4          5
     1  Si   0.000000
     2  O    1.674529   0.000000
     3  O    1.650358   2.629755   0.000000
     4  O    1.650922   2.800020   2.671725   0.000000
     5  O    1.640825   2.621501   2.812683   2.660752   0.000000
     6  H    2.253426   2.692928   3.265887   3.516141   0.969985
     7  H    2.253257   3.345904   3.485444   0.963635   2.700583
     8  H    2.258451   3.495869   0.963405   2.782704   3.294577
     9  Si   4.500005   3.548872   5.641026   5.597993   3.902808
    10  O    5.523216   4.188628   6.473069   6.645016   5.281938
    11  O    4.070884   3.231105   5.522604   4.719105   3.633155
    12  O    5.714909   5.049995   6.868214   6.760562   4.723432
    13  O    3.531629   2.848061   4.355620   4.950535   2.931345
    14  H    2.985077   2.062780   3.679845   4.465279   2.857121
    15  H    5.688007   5.292067   6.899870   6.632189   4.487170
    16  H    6.409931   5.120555   7.319368   7.565472   6.051691
    17  H    3.506376   2.520923   4.953627   4.059299   3.454806
    18  H    2.277722   0.964800   2.794610   3.154911   3.510322
                    6          7          8          9         10
     6  H    0.000000
     7  H    3.584418   0.000000
     8  H    3.892154   3.565450   0.000000
     9  Si   3.178068   5.608341   6.502015   0.000000
    10  O    4.582033   6.789127   7.405634   1.654882   0.000000
    11  O    3.275238   4.564973   6.296586   1.655766   2.726156
    12  O    3.924993   6.611144   7.661162   1.647113   2.664861
    13  O    2.071593   5.140563   5.216173   1.663748   2.723116
    14  H    2.203129   4.813806   4.599262   2.217588   2.925550
    15  H    3.748372   6.374618   7.613311   2.266754   3.554722
    16  H    5.282752   7.681310   8.252423   2.264189   0.962504
    17  H    3.276502   4.014436   5.727724   2.245700   3.043614
    18  H    3.620611   3.841333   3.631015   4.222631   4.552987
                   11         12         13         14         15
    11  O    0.000000
    12  O    2.693015   0.000000
    13  O    2.705586   2.705879   0.000000
    14  H    2.927506   3.558697   0.970710   0.000000
    15  H    2.920993   0.963133   3.041302   3.937523   0.000000
    16  H    3.467614   2.699262   3.346794   3.689218   3.658381
    17  H    0.965527   3.562634   2.898927   2.795326   3.817426
    18  H    3.917507   5.803187   3.586291   2.695429   6.133051
                   16         17         18
    16  H    0.000000
    17  H    3.917595   0.000000
    18  H    5.485937   3.110700   0.000000
 Stoichiometry    H8O8Si2
 Framework group  C1[X(H8O8Si2)]
 Deg. of freedom    48
 Full point group                 C1      NOp   1
 Largest Abelian subgroup         C1      NOp   1
 Largest concise Abelian subgroup C1      NOp   1
                         Standard orientation:                         
 ---------------------------------------------------------------------
 Center     Atomic      Atomic             Coordinates (Angstroms)
 Number     Number       Type             X           Y           Z
 ---------------------------------------------------------------------
      1         14           0       -2.253043   -0.015219   -0.024941
      2          8           0       -1.099465    0.951176    0.709487
      3          8           0       -3.232907    1.044549   -0.825218
      4          8           0       -3.187874   -0.888085    1.018965
      5          8           0       -1.386039   -1.074246   -0.929967
      6          1           0       -0.548750   -0.754157   -1.300591
      7          1           0       -2.937833   -1.808774    1.154632
      8          1           0       -4.128062    0.749634   -1.024895
      9         14           0        2.246801   -0.002029    0.010635
     10          8           0        3.073512    1.299473    0.611697
     11          8           0        1.526356   -0.857924    1.231275
     12          8           0        3.333248   -0.968917   -0.762503
     13          8           0        1.082048    0.501502   -1.065407
     14          1           0        0.442400    1.103565   -0.652310
     15          1           0        3.034670   -1.830176   -1.073484
     16          1           0        3.985839    1.413017    0.326776
     17          1           0        0.790553   -0.412669    1.670119
     18          1           0       -1.422463    1.720814    1.193396
 ---------------------------------------------------------------------
 Rotational constants (GHZ):           2.0040787           0.4145063           0.4084611
 Standard basis: 6-31+G(d,p) (6D, 7F)
 There are   238 symmetry adapted cartesian basis functions of A   symmetry.
 There are   238 symmetry adapted basis functions of A   symmetry.
   238 basis functions,   424 primitive gaussians,   238 cartesian basis functions
    50 alpha electrons       50 beta electrons
       nuclear repulsion energy       827.3724651140 Hartrees.
 NAtoms=   18 NActive=   18 NUniq=   18 SFac= 1.00D+00 NAtFMM=   60 NAOKFM=F Big=F
 Integral buffers will be    131072 words long.
 Raffenetti 2 integral format.
 Two-electron integral symmetry is turned on.
 Nuclear repulsion after empirical dispersion term =      827.3574474409 Hartrees.
 One-electron integrals computed using PRISM.
 NBasis=   238 RedAO= T EigKep=  2.55D-04  NBF=   238
 NBsUse=   238 1.00D-06 EigRej= -1.00D+00 NBFU=   238
 Initial guess from the checkpoint file:  "/localscratch/sarashs.36560092.0/Gau-21926.chk"
 B after Tr=     0.000000    0.000000   -0.000000
         Rot=    0.999723   -0.023518    0.000603    0.000526 Ang=  -2.70 deg.
 ExpMin= 3.31D-02 ExpMax= 1.61D+04 ExpMxC= 2.43D+03 IAcc=3 IRadAn=         5 AccDes= 0.00D+00
 Harris functional with IExCor=  402 and IRadAn=       5 diagonalized for initial guess.
 HarFok:  IExCor=  402 AccDes= 0.00D+00 IRadAn=         5 IDoV= 1 UseB2=F ITyADJ=14
 ICtDFT=  3500011 ScaDFX=  1.000000  1.000000  1.000000  1.000000
 FoFCou: FMM=F IPFlag=           0 FMFlag=      100000 FMFlg1=           0
         NFxFlg=           0 DoJE=T BraDBF=F KetDBF=T FulRan=T
         wScrn=  0.000000 ICntrl=       500 IOpCl=  0 I1Cent=   200000004 NGrid=           0
         NMat0=    1 NMatS0=      1 NMatT0=    0 NMatD0=    1 NMtDS0=    0 NMtDT0=    0
 Petite list used in FoFCou.
 Requested convergence on RMS density matrix=1.00D-08 within 128 cycles.
 Requested convergence on MAX density matrix=1.00D-06.
 Requested convergence on             energy=1.00D-06.
 No special actions if energy rises.
 SCF Done:  E(RB3LYP) =  -1186.06154528     A.U. after   10 cycles
            NFock= 10  Conv=0.66D-08     -V/T= 2.0067
 Calling FoFJK, ICntrl=      2127 FMM=F ISym2X=0 I1Cent= 0 IOpClX= 0 NMat=1 NMatS=1 NMatT=0.
 ***** Axes restored to original set *****
 -------------------------------------------------------------------
 Center     Atomic                   Forces (Hartrees/Bohr)
 Number     Number              X              Y              Z
 -------------------------------------------------------------------
      1       14           0.001133675   -0.003902730   -0.002565899
      2        8          -0.000046405   -0.000467538    0.002393834
      3        8           0.000475013   -0.002318440    0.002044820
      4        8           0.001032176    0.002517385   -0.002289605
      5        8          -0.003949441    0.004237750    0.001968044
      6        1           0.002885716   -0.001570205   -0.000378030
      7        1           0.000680075   -0.001153371    0.000058055
      8        1          -0.000658816    0.000175051   -0.000098309
      9       14           0.001571772   -0.003254812    0.002082436
     10        8          -0.004591010   -0.000160540    0.000057867
     11        8           0.003818282    0.000806513   -0.002407863
     12        8          -0.000483347    0.002670374    0.001233138
     13        8          -0.000280466   -0.000612058   -0.000855379
     14        1           0.000648707    0.001287589    0.000237370
     15        1          -0.000041829   -0.000398174    0.000017432
     16        1           0.000373065   -0.000332125   -0.000784866
     17        1          -0.002297665    0.001201202   -0.000290157
     18        1          -0.000269503    0.001274129   -0.000422888
 -------------------------------------------------------------------
 Cartesian Forces:  Max     0.004591010 RMS     0.001843718

 GradGradGradGradGradGradGradGradGradGradGradGradGradGradGradGradGradGrad
 Berny optimization.
 Using GEDIIS/GDIIS optimizer.
 FormGI is forming the generalized inverse of G from B-inverse, IUseBI=4.
 Internal  Forces:  Max     0.004281967 RMS     0.001250392
 Search for a local minimum.
 Step number   3 out of a maximum of   81
 All quantities printed in internal units (Hartrees-Bohrs-Radians)
 Mixed Optimization -- RFO/linear search
 Update second derivatives using D2CorX and points    1    2    3
 DE= -1.65D-03 DEPred=-1.50D-03 R= 1.10D+00
 TightC=F SS=  1.41D+00  RLast= 2.17D-01 DXNew= 8.4853D-01 6.5088D-01
 Trust test= 1.10D+00 RLast= 2.17D-01 DXMaxT set to 6.51D-01
 ITU=  1  1  0
 Use linear search instead of GDIIS.
     Eigenvalues ---    0.00486   0.02621   0.03719   0.03751   0.03840
     Eigenvalues ---    0.03844   0.03851   0.03863   0.03876   0.03902
     Eigenvalues ---    0.04166   0.07427   0.10551   0.11330   0.11485
     Eigenvalues ---    0.12294   0.12469   0.12512   0.13593   0.14694
     Eigenvalues ---    0.15996   0.16000   0.16000   0.16000   0.16022
     Eigenvalues ---    0.16485   0.17438   0.20674   0.20897   0.21029
     Eigenvalues ---    0.21365   0.40229   0.43790   0.44554   0.44682
     Eigenvalues ---    0.44814   0.44931   0.44969   0.50581   0.52243
     Eigenvalues ---    0.52990   0.53235   0.53367   0.53447   0.53564
     Eigenvalues ---    0.53794   0.577441000.000001000.000001000.00000
     Eigenvalues --- 1000.000001000.000001000.000001000.000001000.00000
     Eigenvalues --- 1000.000001000.000001000.000001000.000001000.00000
     Eigenvalues --- 1000.000001000.000001000.000001000.000001000.00000
     Eigenvalues --- 1000.000001000.000001000.000001000.000001000.00000
     Eigenvalues --- 1000.00000
 RFO step:  Lambda=-5.96244794D-04 EMin= 4.85955311D-03
 Quartic linear search produced a step of  0.09891.
 Iteration  1 RMS(Cart)=  0.02640005 RMS(Int)=  0.00035896
 Iteration  2 RMS(Cart)=  0.00041300 RMS(Int)=  0.00005793
 Iteration  3 RMS(Cart)=  0.00000009 RMS(Int)=  0.00005793
 Iteration  1 RMS(Cart)=  0.00002316 RMS(Int)=  0.00000257
 Iteration  2 RMS(Cart)=  0.00000165 RMS(Int)=  0.00000266
 Iteration  3 RMS(Cart)=  0.00000012 RMS(Int)=  0.00000267
 Variable       Old X    -DE/DX   Delta X   Delta X   Delta X     New X
                                 (Linear)    (Quad)   (Total)
    R1        3.16440  -0.00002   0.00169   0.00449   0.00624   3.17064
    R2        3.11873  -0.00261   0.00059  -0.00374  -0.00316   3.11557
    R3        3.11979  -0.00298   0.00042  -0.00458  -0.00416   3.11563
    R4        3.10071  -0.00283  -0.00036  -0.00530  -0.00566   3.09505
    R5        8.50378  -0.00203   0.00000   0.00000   0.00000   8.50378
    R6        3.89809   0.00118   0.00233   0.04192   0.04431   3.94240
    R7        1.82321   0.00059  -0.00051   0.00036  -0.00015   1.82306
    R8        1.82057   0.00067  -0.00025   0.00048   0.00023   1.82080
    R9        1.82101   0.00078  -0.00040   0.00071   0.00031   1.82132
   R10        1.83301   0.00276   0.00017   0.00510   0.00527   1.83828
   R11        3.12727  -0.00428   0.00040  -0.00722  -0.00682   3.12046
   R12        3.12894  -0.00349   0.00075  -0.00555  -0.00481   3.12414
   R13        3.11259  -0.00255   0.00041  -0.00444  -0.00403   3.10856
   R14        3.14403   0.00022   0.00108   0.00444   0.00558   3.14961
   R15        1.81887   0.00085  -0.00052   0.00078   0.00026   1.81913
   R16        1.82458   0.00106  -0.00016   0.00136   0.00120   1.82578
   R17        1.82006   0.00020  -0.00035  -0.00019  -0.00054   1.81951
   R18        1.83438   0.00199  -0.00038   0.00429   0.00397   1.83835
    A1        1.82462  -0.00048  -0.00324  -0.00761  -0.01079   1.81383
    A2        2.00192  -0.00006   0.00435   0.00483   0.00914   2.01105
    A3        1.82387   0.00134  -0.00370   0.00575   0.00210   1.82597
    A4        1.88592  -0.00069  -0.00156  -0.00922  -0.01074   1.87518
    A5        2.04960   0.00019   0.00544   0.00916   0.01458   2.06418
    A6        1.88254  -0.00023  -0.00094  -0.00180  -0.00271   1.87983
    A7        1.84213  -0.00077  -0.00766  -0.01159  -0.01928   1.82285
    A8        2.03725  -0.00045   0.00362  -0.00529  -0.00191   2.03535
    A9        2.12049   0.00046   0.00112  -0.00094  -0.00003   2.12046
   A10        2.04384  -0.00005   0.00235   0.00277   0.00511   2.04895
   A11        2.03448  -0.00111   0.00162  -0.00387  -0.00225   2.03223
   A12        2.04190  -0.00069   0.00094  -0.00132  -0.00038   2.04152
   A13        1.93493   0.00050   0.00060   0.00338   0.00395   1.93889
   A14        1.87826   0.00028  -0.00097   0.00225   0.00126   1.87952
   A15        1.92476  -0.00062   0.00043  -0.00424  -0.00382   1.92094
   A16        1.90668   0.00069  -0.00005   0.00462   0.00456   1.91124
   A17        1.90564  -0.00145   0.00004  -0.00879  -0.00875   1.89690
   A18        1.91331   0.00066  -0.00006   0.00310   0.00305   1.91636
   A19        2.04741  -0.00052   0.00267   0.00164   0.00432   2.05173
   A20        2.01338   0.00025   0.00141   0.00343   0.00484   2.01822
   A21        2.06236   0.00042   0.00370   0.00732   0.01102   2.07338
   A22        1.95389  -0.00121  -0.00286  -0.00381  -0.00656   1.94733
   A23        2.38571  -0.00047  -0.00049   0.00224   0.00190   2.38762
    D1       -1.58037  -0.00046  -0.00051  -0.00157  -0.00217  -1.58254
    D2        0.83427  -0.00105  -0.00348  -0.02059  -0.02411   0.81016
    D3        2.64073   0.00074   0.00108   0.01215   0.01323   2.65396
    D4       -1.22781   0.00015  -0.00189  -0.00687  -0.00871  -1.23652
    D5        0.58326   0.00018   0.00222   0.00799   0.01022   0.59349
    D6        2.99791  -0.00041  -0.00075  -0.01103  -0.01172   2.98619
    D7       -2.74045   0.00062  -0.00240   0.00076  -0.00177  -2.74222
    D8       -0.60082  -0.00008   0.00007  -0.00255  -0.00240  -0.60322
    D9        1.53176  -0.00082   0.00140  -0.00597  -0.00453   1.52723
   D10       -1.72399  -0.00037   0.00128   0.00650   0.00776  -1.71623
   D11        2.53207   0.00073   0.00374   0.01936   0.02311   2.55518
   D12        0.29994   0.00110  -0.00137   0.01527   0.01390   0.31385
   D13       -0.55946   0.00101   0.00752   0.03262   0.04016  -0.51929
   D14        1.45193   0.00144   0.00398   0.03200   0.03595   1.48787
   D15       -2.69694   0.00046   0.00496   0.02475   0.02972  -2.66722
   D16       -1.12377  -0.00035  -0.00327   0.01530   0.01202  -1.11175
   D17        2.78784   0.00078  -0.00101   0.03806   0.03694   2.82478
   D18        2.26039   0.00121   0.00008   0.01094   0.01102   2.27141
   D19        0.17623  -0.00009   0.00039   0.00198   0.00236   0.17859
   D20       -1.91010  -0.00070   0.00080  -0.00070   0.00009  -1.91001
   D21        1.20810   0.00048   0.00470   0.03262   0.03731   1.24541
   D22       -3.00807   0.00155   0.00384   0.04030   0.04415  -2.96392
   D23       -0.91584   0.00189   0.00376   0.04156   0.04532  -0.87052
   D24        3.00623   0.00032  -0.00037  -0.00046  -0.00083   3.00540
   D25        0.90416  -0.00084  -0.00048  -0.00852  -0.00900   0.89516
   D26       -1.18334   0.00011  -0.00047  -0.00247  -0.00293  -1.18628
   D27       -1.03692   0.00037  -0.00221   0.00285   0.00062  -1.03630
   D28        1.09317  -0.00035  -0.00117  -0.00140  -0.00256   1.09061
   D29       -3.10188  -0.00000  -0.00124   0.00076  -0.00048  -3.10236
   D30       -1.25425   0.00058  -0.00639  -0.00129  -0.00782  -1.26208
         Item               Value     Threshold  Converged?
 Maximum Force            0.004282     0.000450     NO 
 RMS     Force            0.001234     0.000300     NO 
 Maximum Displacement     0.095348     0.001800     NO 
 RMS     Displacement     0.026391     0.001200     NO 
 Predicted change in Energy=-3.260159D-04
 GradGradGradGradGradGradGradGradGradGradGradGradGradGradGradGradGradGrad

                          Input orientation:                          
 ---------------------------------------------------------------------
 Center     Atomic      Atomic             Coordinates (Angstroms)
 Number     Number       Type             X           Y           Z
 ---------------------------------------------------------------------
      1         14           0       -6.602458   -0.125041   -0.183611
      2          8           0       -4.970971   -0.229767    0.193756
      3          8           0       -6.791161    1.429110   -0.700506
      4          8           0       -7.632712   -0.352980    1.083237
      5          8           0       -6.857101   -1.335768   -1.256824
      6          1           0       -6.107724   -1.587836   -1.823557
      7          1           0       -8.014392   -1.233432    1.172887
      8          1           0       -7.675066    1.809185   -0.649188
      9         14           0       -3.332743   -2.953077   -1.433100
     10          8           0       -1.751843   -2.582975   -1.132293
     11          8           0       -4.129637   -3.338213   -0.036757
     12          8           0       -3.358657   -4.242741   -2.453912
     13          8           0       -4.098577   -1.654721   -2.144205
     14          1           0       -4.067427   -0.865851   -1.575809
     15          1           0       -4.202270   -4.665090   -2.646289
     16          1           0       -1.082350   -3.020177   -1.668309
     17          1           0       -4.302168   -2.600733    0.563094
     18          1           0       -4.601342    0.491176    0.717496
 ---------------------------------------------------------------------
                    Distance matrix (angstroms):
[...]

                          Input orientation:                          
 ---------------------------------------------------------------------
 Center     Atomic      Atomic             Coordinates (Angstroms)
 Number     Number       Type             X           Y           Z
 ---------------------------------------------------------------------
      1         14           0       -6.708421   -0.350896   -0.117938
      2          8           0       -5.375351   -0.601675    0.856240
      3          8           0       -6.779861    1.282400   -0.325910
      4          8           0       -8.144543   -0.811299    0.545180
      5          8           0       -6.454025   -1.273302   -1.448096
      6          1           0       -5.573519   -1.251479   -1.876216
      7          1           0       -8.404102   -1.732498    0.430041
      8          1           0       -7.638169    1.653169   -0.561138
      9         14           0       -3.123005   -2.767350   -1.365172
     10          8           0       -1.578249   -3.129245   -1.779995
     11          8           0       -3.082530   -2.230639    0.178134
     12          8           0       -4.060627   -4.092367   -1.652503
     13          8           0       -3.803074   -1.562841   -2.332471
     14          1           0       -3.287111   -0.750438   -2.411630
     15          1           0       -5.014900   -3.964712   -1.709441
     16          1           0       -1.466211   -3.811943   -2.450912
     17          1           0       -3.842897   -1.698761    0.478496
     18          1           0       -5.242007    0.034945    1.569441
 ---------------------------------------------------------------------
                    Distance matrix (angstroms):
                    1          2          3          4          5
     1  Si   0.000000
     2  O    1.670026   0.000000
     3  O    1.648033   2.630564   0.000000
     4  O    1.647467   2.794481   2.646646   0.000000
     5  O    1.638557   2.631461   2.810175   2.654138   0.000000
     6  H    2.278287   2.815640   3.206127   3.559085   0.979313
     7  H    2.254871   3.260942   3.507026   0.963968   2.746099
     8  H    2.253250   3.494800   0.964103   2.748447   3.279196
     9  Si   4.500005   3.833782   5.554559   5.717642   3.651678
    10  O    6.066326   5.268428   6.973789   7.341358   5.227607
    11  O    4.094896   2.893161   5.125012   5.270031   3.863689
    12  O    4.833663   4.495244   6.167835   5.680985   3.703682
    13  O    3.848897   3.682904   4.580715   5.262514   2.809537
    14  H    4.138359   3.880960   4.547742   5.686922   3.351287
    15  H    4.296575   4.245311   5.706262   4.982168   3.063180
    16  H    6.700924   6.043547   7.661778   7.910788   5.685827
    17  H    3.222375   1.922162   4.261473   4.392744   3.272731
    18  H    2.268588   0.965257   2.741075   3.192171   3.505143
                    6          7          8          9         10
     6  H    0.000000
     7  H    3.682717   0.000000
     8  H    3.798577   3.609963   0.000000
     9  Si   2.926440   5.673068   6.369785   0.000000
    10  O    4.415591   7.309408   7.815352   1.639914   0.000000
    11  O    3.374038   5.350769   6.031943   1.634469   2.627665
    12  O    3.226381   5.363930   6.855732   1.648443   2.665719
    13  O    1.854614   5.369332   5.309265   1.687899   2.776454
    14  H    2.401119   5.934908   5.304088   2.278144   2.996314
    15  H    2.775158   4.587685   6.305611   2.265273   3.537450
    16  H    4.874037   7.794763   8.457646   2.239414   0.963722
    17  H    2.956312   4.561588   5.169175   2.249275   3.503669
    18  H    3.692876   3.797491   3.591603   4.577661   5.886760
                   11         12         13         14         15
    11  O    0.000000
    12  O    2.788178   0.000000
    13  O    2.695974   2.631956   0.000000
    14  H    2.989937   3.513273   0.965651   0.000000
    15  H    3.209984   0.964455   2.761462   3.716165   0.000000
    16  H    3.467693   2.728936   3.245523   3.562308   3.628541
    17  H    0.975330   3.212150   2.814534   3.092094   3.360832
    18  H    3.425193   5.367614   4.455151   4.504150   5.176862
                   16         17         18
    16  H    0.000000
    17  H    4.323842   0.000000
    18  H    6.724465   2.480606   0.000000
 Stoichiometry    H8O8Si2
 Framework group  C1[X(H8O8Si2)]
 Deg. of freedom    48
 Full point group                 C1      NOp   1
 Largest Abelian subgroup         C1      NOp   1
 Largest concise Abelian subgroup C1      NOp   1
                         Standard orientation:                         
 ---------------------------------------------------------------------
 Center     Atomic      Atomic             Coordinates (Angstroms)
 Number     Number       Type             X           Y           Z
 ---------------------------------------------------------------------
      1         14           0       -2.238664   -0.022334   -0.008125
      2          8           0       -1.330833    1.057025    0.886199
      3          8           0       -3.113952    0.915589   -1.042621
      4          8           0       -3.319659   -0.905959    0.866405
      5          8           0       -1.155543   -1.063525   -0.662067
      6          1           0       -0.346356   -0.702535   -1.079147
      7          1           0       -2.995973   -1.720728    1.267172
      8          1           0       -3.924675    0.532051   -1.396347
      9         14           0        2.260921    0.020678    0.035805
     10          8           0        3.798503    0.540044   -0.199608
     11          8           0        1.557004    1.082506    1.059774
     12          8           0        2.315144   -1.549041    0.536210
     13          8           0        1.354662   -0.030812   -1.387236
     14          1           0        1.348755    0.782505   -1.907777
     15          1           0        1.507653   -2.071805    0.466574
     16          1           0        4.448959   -0.137980   -0.413964
     17          1           0        0.581931    1.102048    1.070632
     18          1           0       -1.774526    1.873019    1.148899
 ---------------------------------------------------------------------
 Rotational constants (GHZ):           2.0047709           0.4158085           0.4078678

 **********************************************************************

            Population analysis using the SCF Density.

 **********************************************************************

 Orbital symmetries:
       Occupied  (A) (A) (A) (A) (A) (A) (A) (A) (A) (A) (A) (A)
                 (A) (A) (A) (A) (A) (A) (A) (A) (A) (A) (A) (A)
                 (A) (A) (A) (A) (A) (A) (A) (A) (A) (A) (A) (A)
                 (A) (A) (A) (A) (A) (A) (A) (A) (A) (A) (A) (A)
                 (A) (A)
       Virtual   (A) (A) (A) (A) (A) (A) (A) (A) (A) (A) (A) (A)
                 (A) (A) (A) (A) (A) (A) (A) (A) (A) (A) (A) (A)
                 (A) (A) (A) (A) (A) (A) (A) (A) (A) (A) (A) (A)
                 (A) (A) (A) (A) (A) (A) (A) (A) (A) (A) (A) (A)
                 (A) (A) (A) (A) (A) (A) (A) (A) (A) (A) (A) (A)
                 (A) (A) (A) (A) (A) (A) (A) (A) (A) (A) (A) (A)
                 (A) (A) (A) (A) (A) (A) (A) (A) (A) (A) (A) (A)
                 (A) (A) (A) (A) (A) (A) (A) (A) (A) (A) (A) (A)
                 (A) (A) (A) (A) (A) (A) (A) (A) (A) (A) (A) (A)
                 (A) (A) (A) (A) (A) (A) (A) (A) (A) (A) (A) (A)
                 (A) (A) (A) (A) (A) (A) (A) (A) (A) (A) (A) (A)
                 (A) (A) (A) (A) (A) (A) (A) (A) (A) (A) (A) (A)
                 (A) (A) (A) (A) (A) (A) (A) (A) (A) (A) (A) (A)
                 (A) (A) (A) (A) (A) (A) (A) (A) (A) (A) (A) (A)
                 (A) (A) (A) (A) (A) (A) (A) (A) (A) (A) (A) (A)
                 (A) (A) (A) (A) (A) (A) (A) (A)
 The electronic state is 1-A.
 Alpha  occ. eigenvalues --  -66.23179 -66.22302 -19.18881 -19.18404 -19.17917
 Alpha  occ. eigenvalues --  -19.17903 -19.17080 -19.16911 -19.16711 -19.15342
 Alpha  occ. eigenvalues --   -5.36506  -5.35627  -3.72505  -3.72484  -3.72460
 Alpha  occ. eigenvalues --   -3.71660  -3.71626  -3.71523  -1.05703  -1.04812
 Alpha  occ. eigenvalues --   -1.02447  -1.01875  -1.01715  -1.00883  -1.00650
 Alpha  occ. eigenvalues --   -0.99660  -0.60851  -0.59984  -0.55278  -0.54883
 Alpha  occ. eigenvalues --   -0.54417  -0.53655  -0.53097  -0.50424  -0.42661
 Alpha  occ. eigenvalues --   -0.42247  -0.40711  -0.39831  -0.39287  -0.38853
 Alpha  occ. eigenvalues --   -0.38433  -0.37490  -0.37079  -0.36132  -0.35454
 Alpha  occ. eigenvalues --   -0.34785  -0.34107  -0.33589  -0.33184  -0.31776
 Alpha virt. eigenvalues --   -0.03707  -0.01336   0.00299   0.01122   0.02015
 Alpha virt. eigenvalues --    0.02973   0.04990   0.06072   0.09456   0.10099
 Alpha virt. eigenvalues --    0.10868   0.11023   0.11747   0.12437   0.13013
 Alpha virt. eigenvalues --    0.13450   0.14423   0.14770   0.15223   0.15316
 Alpha virt. eigenvalues --    0.15779   0.16694   0.17079   0.17692   0.17941
 Alpha virt. eigenvalues --    0.18061   0.18635   0.19741   0.20489   0.21241
 Alpha virt. eigenvalues --    0.21370   0.22170   0.22285   0.22792   0.24108
 Alpha virt. eigenvalues --    0.24599   0.25577   0.25697   0.26623   0.27089
 Alpha virt. eigenvalues --    0.27673   0.28598   0.28856   0.29269   0.30669
 Alpha virt. eigenvalues --    0.31266   0.32891   0.33954   0.35295   0.37212
 Alpha virt. eigenvalues --    0.37974   0.39162   0.39807   0.41103   0.41960
 Alpha virt. eigenvalues --    0.43354   0.45987   0.46786   0.47138   0.47530
 Alpha virt. eigenvalues --    0.51284   0.54972   0.60577   0.62110   0.63393
 Alpha virt. eigenvalues --    0.63858   0.66580   0.70895   0.92201   0.93308
 Alpha virt. eigenvalues --    0.93850   0.94795   0.95915   0.97145   0.99261
 Alpha virt. eigenvalues --    0.99473   1.00589   1.02661   1.03212   1.05914
 Alpha virt. eigenvalues --    1.12589   1.13133   1.15417   1.15727   1.16280
 Alpha virt. eigenvalues --    1.16872   1.18105   1.18728   1.19145   1.19913
 Alpha virt. eigenvalues --    1.20160   1.20869   1.22233   1.22670   1.24414
 Alpha virt. eigenvalues --    1.24890   1.26011   1.26419   1.28295   1.28468
 Alpha virt. eigenvalues --    1.30637   1.31393   1.32469   1.34526   1.35734
 Alpha virt. eigenvalues --    1.36052   1.48156   1.49214   1.51255   1.52751
 Alpha virt. eigenvalues --    1.56609   1.56703   1.57513   1.58786   1.60326
 Alpha virt. eigenvalues --    1.61276   1.62657   1.63662   1.64538   1.66784
 Alpha virt. eigenvalues --    1.68047   1.69010   1.71787   1.72656   1.74153
 Alpha virt. eigenvalues --    1.74876   1.78752   1.81483   1.84450   1.87646
 Alpha virt. eigenvalues --    1.89602   1.92254   1.94389   1.95819   2.02523
 Alpha virt. eigenvalues --    2.03534   2.10706   2.13623   2.34317   2.35876
 Alpha virt. eigenvalues --    2.37319   2.38153   2.38733   2.39840   2.43674
 Alpha virt. eigenvalues --    2.43998   2.46248   2.49361   2.58030   2.58582
 Alpha virt. eigenvalues --    2.59507   2.59922   2.60322   2.61252   2.62160
 Alpha virt. eigenvalues --    2.63120   2.63378   2.64394   2.65140   2.66404
 Alpha virt. eigenvalues --    2.67919   2.69487   2.71068   2.73186   2.76947
 Alpha virt. eigenvalues --    2.78374   2.79628   2.81035   2.83273   2.84270
 Alpha virt. eigenvalues --    2.99679   3.01858   3.40322   3.41613   3.41888
 Alpha virt. eigenvalues --    3.43893   3.45802   3.47773   3.55881   3.61965
 Alpha virt. eigenvalues --    4.12367   4.14045   4.19522   4.20979   4.25214
 Alpha virt. eigenvalues --    4.29618   4.29947   4.36041
          Condensed to atoms (all electrons):
               1          2          3          4          5          6
     1  Si  11.675363  -0.091342   0.071321   0.051280   0.116136   0.022612
     2  O   -0.091342   8.699610   0.079809   0.030107   0.052017  -0.004919
     3  O    0.071321   0.079809   8.489291   0.021488  -0.010430  -0.006443
     4  O    0.051280   0.030107   0.021488   8.482235   0.046438   0.006325
     5  O    0.116136   0.052017  -0.010430   0.046438   8.496554   0.235318
     6  H    0.022612  -0.004919  -0.006443   0.006325   0.235318   0.295522
     7  H    0.029071  -0.006277   0.006667   0.241273  -0.003312   0.000034
     8  H    0.027714   0.004095   0.241414  -0.002245  -0.005583   0.000054
     9  Si   0.033037  -0.004891  -0.003420  -0.002774  -0.000745   0.008759
    10  O    0.000117  -0.000262   0.000021  -0.000040   0.000440   0.000486
    11  O   -0.037242   0.003065   0.001282   0.000423  -0.003104  -0.000970
    12  O   -0.007793  -0.001288   0.000018   0.000782   0.005926  -0.003929
    13  O   -0.033614   0.008858   0.001390   0.000482   0.002656   0.008329
    14  H    0.002495  -0.001466  -0.000090   0.000013  -0.001266  -0.001854
    15  H    0.001414  -0.000283  -0.000006  -0.000142   0.003266  -0.000131
    16  H   -0.000013   0.000003   0.000000  -0.000000   0.000004  -0.000005
    17  H    0.005426   0.006320  -0.000319   0.000329  -0.000485  -0.000205
    18  H    0.031768   0.230248  -0.002134  -0.005535   0.006372   0.000043
               7          8          9         10         11         12
     1  Si   0.029071   0.027714   0.033037   0.000117  -0.037242  -0.007793
     2  O   -0.006277   0.004095  -0.004891  -0.000262   0.003065  -0.001288
     3  O    0.006667   0.241414  -0.003420   0.000021   0.001282   0.000018
     4  O    0.241273  -0.002245  -0.002774  -0.000040   0.000423   0.000782
     5  O   -0.003312  -0.005583  -0.000745   0.000440  -0.003104   0.005926
     6  H    0.000034   0.000054   0.008759   0.000486  -0.000970  -0.003929
     7  H    0.359259   0.000059   0.000004   0.000000  -0.000000  -0.000036
     8  H    0.000059   0.357481   0.000012   0.000000  -0.000002  -0.000001
     9  Si   0.000004   0.000012  11.566190   0.039868   0.113381   0.068398
    10  O    0.000000   0.000000   0.039868   8.553487   0.051866  -0.013093
    11  O   -0.000000  -0.000002   0.113381   0.051866   8.489941  -0.016163
    12  O   -0.000036  -0.000001   0.068398  -0.013093  -0.016163   8.507299
    13  O    0.000023  -0.000011   0.056286  -0.015948   0.030285   0.099551
    14  H   -0.000000  -0.000000   0.024069  -0.003403  -0.010777   0.006482
    15  H    0.000006  -0.000000   0.032194   0.007143  -0.005833   0.237219
    16  H    0.000000  -0.000000   0.036699   0.231809   0.003672  -0.002342
    17  H    0.000004  -0.000002   0.028053   0.003382   0.223971  -0.004534
    18  H    0.000067   0.000076   0.000101   0.000011   0.000076  -0.000082
              13         14         15         16         17         18
     1  Si  -0.033614   0.002495   0.001414  -0.000013   0.005426   0.031768
     2  O    0.008858  -0.001466  -0.000283   0.000003   0.006320   0.230248
     3  O    0.001390  -0.000090  -0.000006   0.000000  -0.000319  -0.002134
     4  O    0.000482   0.000013  -0.000142  -0.000000   0.000329  -0.005535
     5  O    0.002656  -0.001266   0.003266   0.000004  -0.000485   0.006372
     6  H    0.008329  -0.001854  -0.000131  -0.000005  -0.000205   0.000043
     7  H    0.000023  -0.000000   0.000006   0.000000   0.000004   0.000067
     8  H   -0.000011  -0.000000  -0.000000  -0.000000  -0.000002   0.000076
     9  Si   0.056286   0.024069   0.032194   0.036699   0.028053   0.000101
    10  O   -0.015948  -0.003403   0.007143   0.231809   0.003382   0.000011
    11  O    0.030285  -0.010777  -0.005833   0.003672   0.223971   0.000076
    12  O    0.099551   0.006482   0.237219  -0.002342  -0.004534  -0.000082
    13  O    8.590390   0.254576  -0.004639  -0.005183  -0.005491  -0.000098
    14  H    0.254576   0.344389   0.000024   0.000002   0.000119   0.000004
    15  H   -0.004639   0.000024   0.354918   0.000072   0.000164   0.000000
    16  H   -0.005183   0.000002   0.000072   0.361062  -0.000053  -0.000000
    17  H   -0.005491   0.000119   0.000164  -0.000053   0.302429   0.000127
    18  H   -0.000098   0.000004   0.000000  -0.000000   0.000127   0.345477
 Mulliken charges:
               1
     1  Si   2.102249
     2  O   -1.003405
     3  O   -0.889858
     4  O   -0.870439
     5  O   -0.940201
     6  H    0.440973
     7  H    0.373157
     8  H    0.376939
     9  Si   2.004778
    10  O   -0.855883
    11  O   -0.843871
    12  O   -0.876415
    13  O   -0.987840
    14  H    0.386685
    15  H    0.374615
    16  H    0.374273
    17  H    0.440765
    18  H    0.393479
 Sum of Mulliken charges =  -0.00000
 Mulliken charges with hydrogens summed into heavy atoms:
               1
     1  Si   2.102249
     2  O   -0.609926
     3  O   -0.512919
     4  O   -0.497282
     5  O   -0.499227
     9  Si   2.004778
    10  O   -0.481610
    11  O   -0.403107
    12  O   -0.501800
    13  O   -0.601155
 Electronic spatial extent (au):  <R**2>=           2709.2872
 Charge=             -0.0000 electrons
 Dipole moment (field-independent basis, Debye):
    X=             -2.1354    Y=             -0.6590    Z=             -1.3921  Tot=              2.6329
 Quadrupole moment (field-independent basis, Debye-Ang):
   XX=            -69.5329   YY=            -69.9269   ZZ=            -71.0031
   XY=             -3.6097   XZ=             -5.6236   YZ=             -3.2572
 Traceless Quadrupole moment (field-independent basis, Debye-Ang):
   XX=              0.6214   YY=              0.2274   ZZ=             -0.8488
   XY=             -3.6097   XZ=             -5.6236   YZ=             -3.2572
 Octapole moment (field-independent basis, Debye-Ang**2):
  XXX=              3.0719  YYY=             -4.3268  ZZZ=             -8.4261  XYY=            -19.6339
  XXY=            -18.2028  XXZ=            -34.2691  XZZ=            -11.0039  YZZ=              3.0881
  YYZ=             11.2165  XYZ=             -4.1503
 Hexadecapole moment (field-independent basis, Debye-Ang**3):
 XXXX=          -2284.9676 YYYY=           -343.4086 ZZZZ=           -322.0770 XXXY=            -97.0031
 XXXZ=             43.3391 YYYX=              4.2452 YYYZ=             -6.5054 ZZZX=            -11.3147
 ZZZY=            -16.8944 XXYY=           -517.6161 XXZZ=           -455.7169 YYZZ=           -106.5842
 XXYZ=              7.7849 YYXZ=            -52.2070 ZZXY=             11.1005
 N-N= 8.265754532672D+02 E-N=-4.462731181363D+03  KE= 1.178171949009D+03
 1\1\GINC-GRA1308\FOpt\RB3LYP\6-31+G(d,p)\H8O8Si2\SARASHS\29-Jul-2020\0
 \\#n B3LYP/6-31+G(d,p) EmpiricalDispersion=GD3 Opt=modredundant\\Title
 \\0,1\Si,-6.7084205481,-0.3508961378,-0.1179382863\O,-5.3753509904,-0.
 6016748193,0.8562403673\O,-6.7798605474,1.2823998611,-0.3259102392\O,-
 8.1445432885,-0.8112993109,0.5451803823\O,-6.4540250159,-1.2733018149,
 -1.4480960735\H,-5.5735188625,-1.2514788886,-1.8762155921\H,-8.4041023
 128,-1.7324977167,0.4300411508\H,-7.6381687009,1.6531693975,-0.5611383
 421\Si,-3.1230049157,-2.7673496452,-1.3651718882\O,-1.5782488321,-3.12
 9244992,-1.7799949448\O,-3.0825302657,-2.2306388735,0.1781337135\O,-4.
 0606272383,-4.0923667527,-1.6525027476\O,-3.8030736049,-1.5628412359,-
 2.3324714985\H,-3.2871111875,-0.7504378211,-2.4116300851\H,-5.01489963
 47,-3.9647116938,-1.7094410579\H,-1.4662107815,-3.8119434883,-2.450911
 9181\H,-3.8428965378,-1.6987612926,0.4784962001\H,-5.2420067354,0.0349
 452246,1.5694408595\\Version=ES64L-G16RevB.01\State=1-A\HF=-1186.06806
 99\RMSD=3.844e-09\RMSF=8.628e-04\Dipole=-0.7965173,0.570611,-0.3361261
 \Quadrupole=-1.7764733,1.2357685,0.5407048,1.830674,-4.5675726,2.04100
 42\PG=C01 [X(H8O8Si2)]\\@


 TELEVISION IS CALLED A MEDIUM BECAUSE IT ISN'T
 RARE, AND IT ISN'T WELL DONE.
 Job cpu time:       0 days  3 hours 36 minutes 36.0 seconds.
 Elapsed time:       0 days  0 hours 14 minutes 34.7 seconds.
 File lengths (MBytes):  RWF=     40 Int=      0 D2E=      0 Chk=      5 Scr=      1
 Normal termination of Gaussian 16 at Wed Jul 29 17:42:05 2020.
