 Entering Gaussian System, Link 0=g16
 Initial command:
 /opt/software/gaussian/g16.b01/l1.exe "/localscratch/sarashs.36560087.0/Gau-133250.inp" -scrdir="/localscratch/sarashs.36560087.0/"
 Entering Link 1 = /opt/software/gaussian/g16.b01/l1.exe PID=    133251.
  
 Copyright (c) 1988-2017, Gaussian, Inc.  All Rights Reserved.
  
 This is part of the Gaussian(R) 16 program.  It is based on
 the Gaussian(R) 09 system (copyright 2009, Gaussian, Inc.),
 the Gaussian(R) 03 system (copyright 2003, Gaussian, Inc.),
 the Gaussian(R) 98 system (copyright 1998, Gaussian, Inc.),
 the Gaussian(R) 94 system (copyright 1995, Gaussian, Inc.),
 the Gaussian 92(TM) system (copyright 1992, Gaussian, Inc.),
 the Gaussian 90(TM) system (copyright 1990, Gaussian, Inc.),
 the Gaussian 88(TM) system (copyright 1988, Gaussian, Inc.),
 the Gaussian 86(TM) system (copyright 1986, Carnegie Mellon
 University), and the Gaussian 82(TM) system (copyright 1983,
 Carnegie Mellon University). Gaussian is a federally registered
 trademark of Gaussian, Inc.
  
 This software contains proprietary and confidential information,
 including trade secrets, belonging to Gaussian, Inc.
  
 This software is provided under written license and may be
 used, copied, transmitted, or stored only in accord with that
 written license.
  
 The following legend is applicable only to US Government
 contracts under FAR:
  
                    RESTRICTED RIGHTS LEGEND
  
 Use, reproduction and disclosure by the US Government is
 subject to restrictions as set forth in subparagraphs (a)
 and (c) of the Commercial Computer Software - Restricted
 Rights clause in FAR 52.227-19.
  
 Gaussian, Inc.
 340 Quinnipiac St., Bldg. 40, Wallingford CT 06492
  
  
 ---------------------------------------------------------------
 Warning -- This program may not be used in any manner that
 competes with the business of Gaussian, Inc. or will provide
 assistance to any competitor of Gaussian, Inc.  The licensee
 of this program is prohibited from giving any competitor of
 Gaussian, Inc. access to this program.  By using this program,
 the user acknowledges that Gaussian, Inc. is engaged in the
 business of creating and licensing software in the field of
 computational chemistry and represents and warrants to the
 licensee that it is not a competitor of Gaussian, Inc. and that
 it will not use this program in any manner prohibited above.
 ---------------------------------------------------------------
  

 Cite this work as:
 Gaussian 16, Revision B.01,
 M. J. Frisch, G. W. Trucks, H. B. Schlegel, G. E. Scuseria, 
 M. A. Robb, J. R. Cheeseman, G. Scalmani, V. Barone, 
 G. A. Petersson, H. Nakatsuji, X. Li, M. Caricato, A. V. Marenich, 
 J. Bloino, B. G. Janesko, R. Gomperts, B. Mennucci, H. P. Hratchian, 
 J. V. Ortiz, A. F. Izmaylov, J. L. Sonnenberg, D. Williams-Young, 
 F. Ding, F. Lipparini, F. Egidi, J. Goings, B. Peng, A. Petrone, 
 T. Henderson, D. Ranasinghe, V. G. Zakrzewski, J. Gao, N. Rega, 
 G. Zheng, W. Liang, M. Hada, M. Ehara, K. Toyota, R. Fukuda, 
 J. Hasegawa, M. Ishida, T. Nakajima, Y. Honda, O. Kitao, H. Nakai, 
 T. Vreven, K. Throssell, J. A. Montgomery, Jr., J. E. Peralta, 
 F. Ogliaro, M. J. Bearpark, J. J. Heyd, E. N. Brothers, K. N. Kudin, 
 V. N. Staroverov, T. A. Keith, R. Kobayashi, J. Normand, 
 K. Raghavachari, A. P. Rendell, J. C. Burant, S. S. Iyengar, 
 J. Tomasi, M. Cossi, J. M. Millam, M. Klene, C. Adamo, R. Cammi, 
 J. W. Ochterski, R. L. Martin, K. Morokuma, O. Farkas, 
 J. B. Foresman, and D. J. Fox, Gaussian, Inc., Wallingford CT, 2016.
 
 ******************************************
 Gaussian 16:  ES64L-G16RevB.01 20-Dec-2017
                29-Jul-2020 
 ******************************************
 %NProcShared=16
 Will use up to   16 processors via shared memory.
 -------------------------------------------------------------
 #n B3LYP/6-31+G(d,p) EmpiricalDispersion=GD3 Opt=modredundant
 -------------------------------------------------------------
 1/18=120,19=15,26=3,38=1/1,3;
 2/9=110,12=2,17=6,18=5,40=1/2;
 3/5=1,6=6,7=111,11=2,25=1,30=1,71=1,74=-5,124=31/1,2,3;
 4//1;
 5/5=2,38=5/2;
 6/7=2,8=2,9=2,10=2,28=1/1;
 7//1,2,3,16;
 1/18=20,19=15,26=3/3(2);
 2/9=110/2;
 99//99;
 2/9=110/2;
 3/5=1,6=6,7=111,11=2,25=1,30=1,71=1,74=-5,124=31/1,2,3;
 4/5=5,16=3,69=1/1;
 5/5=2,38=5/2;
 7//1,2,3,16;
 1/18=20,19=15,26=3/3(-5);
 2/9=110/2;
 6/7=2,8=2,9=2,10=2,19=2,28=1/1;
 99/9=1/99;
 -----
 Title
 -----
 Symbolic Z-matrix:
 Charge =  0 Multiplicity = 1
 Si                   -6.2858   -0.37301  -0.31529 
 O                    -4.66498  -0.55136  -0.09526 
 O                    -6.58955   1.162    -0.78928 
 O                    -7.06443  -0.67231   1.09188 
 O                    -6.79605  -1.43497  -1.44905 
 H                    -6.19169  -1.54705  -2.20096 
 H                    -7.44974  -1.56077   1.14476 
 H                    -7.47962   1.47625  -0.57 
 Si                   -3.31018  -2.97416  -1.406 
 O                    -1.79319  -2.57507  -0.93631 
 O                    -4.23059  -3.30155  -0.09125 
 O                    -3.24876  -4.28448  -2.38516 
 O                    -3.98384  -1.70788  -2.2029 
 H                    -4.00478  -0.89769  -1.66505 
 H                    -4.11864  -4.64444  -2.60985 
 H                    -1.10594  -3.06413  -1.41428 
 H                    -4.35706  -2.53859   0.49456 
 H                    -4.29097   0.14626   0.46777 
 
 Add virtual bond connecting atoms H14        and O2         Dist= 3.28D+00.
 The following ModRedundant input section has been read:
 B       1       9 F                                                           
 

 GradGradGradGradGradGradGradGradGradGradGradGradGradGradGradGradGradGrad
 Berny optimization.
 Initialization pass.
                           ----------------------------
                           !    Initial Parameters    !
                           ! (Angstroms and Degrees)  !
 --------------------------                            --------------------------
 ! Name  Definition              Value          Derivative Info.                !
 --------------------------------------------------------------------------------
 ! R1    R(1,2)                  1.6454         estimate D2E/DX2                !
 ! R2    R(1,3)                  1.635          estimate D2E/DX2                !
 ! R3    R(1,4)                  1.6358         estimate D2E/DX2                !
 ! R4    R(1,5)                  1.6351         estimate D2E/DX2                !
 ! R5    R(1,9)                  4.1            Frozen                          !
 ! R6    R(2,14)                 1.7378         estimate D2E/DX2                !
 ! R7    R(2,18)                 0.9714         estimate D2E/DX2                !
 ! R8    R(3,8)                  0.9691         estimate D2E/DX2                !
 ! R9    R(4,7)                  0.9699         estimate D2E/DX2                !
 ! R10   R(5,6)                  0.9712         estimate D2E/DX2                !
 ! R11   R(9,10)                 1.6374         estimate D2E/DX2                !
 ! R12   R(9,11)                 1.638          estimate D2E/DX2                !
 ! R13   R(9,12)                 1.6369         estimate D2E/DX2                !
 ! R14   R(9,13)                 1.6408         estimate D2E/DX2                !
 ! R15   R(10,16)                0.9695         estimate D2E/DX2                !
 ! R16   R(11,17)                0.9702         estimate D2E/DX2                !
 ! R17   R(12,15)                0.9679         estimate D2E/DX2                !
 ! R18   R(13,14)                0.9727         estimate D2E/DX2                !
 ! A1    A(2,1,3)              108.8772         estimate D2E/DX2                !
 ! A2    A(2,1,4)              109.5124         estimate D2E/DX2                !
 ! A3    A(2,1,5)              109.2523         estimate D2E/DX2                !
 ! A4    A(3,1,4)              109.4344         estimate D2E/DX2                !
 ! A5    A(3,1,5)              110.5346         estimate D2E/DX2                !
 ! A6    A(4,1,5)              109.214          estimate D2E/DX2                !
 ! A7    A(1,2,14)             105.9641         estimate D2E/DX2                !
 ! A8    A(1,2,18)             112.2687         estimate D2E/DX2                !
 ! A9    A(14,2,18)            121.3611         estimate D2E/DX2                !
 ! A10   A(1,3,8)              114.1731         estimate D2E/DX2                !
 ! A11   A(1,4,7)              113.8041         estimate D2E/DX2                !
 ! A12   A(1,5,6)              114.6833         estimate D2E/DX2                !
 ! A13   A(10,9,11)            109.82           estimate D2E/DX2                !
 ! A14   A(10,9,12)            109.3858         estimate D2E/DX2                !
 ! A15   A(10,9,13)            109.3648         estimate D2E/DX2                !
 ! A16   A(11,9,12)            109.9517         estimate D2E/DX2                !
 ! A17   A(11,9,13)            108.2631         estimate D2E/DX2                !
 ! A18   A(12,9,13)            110.0383         estimate D2E/DX2                !
 ! A19   A(9,10,16)            113.1017         estimate D2E/DX2                !
 ! A20   A(9,11,17)            113.6237         estimate D2E/DX2                !
 ! A21   A(9,12,15)            113.7569         estimate D2E/DX2                !
 ! A22   A(9,13,14)            112.5252         estimate D2E/DX2                !
 ! A23   A(2,14,13)            132.3499         estimate D2E/DX2                !
 ! D1    D(3,1,2,14)           -84.1213         estimate D2E/DX2                !
 ! D2    D(3,1,2,18)            50.4723         estimate D2E/DX2                !
 ! D3    D(4,1,2,14)           156.2595         estimate D2E/DX2                !
 ! D4    D(4,1,2,18)           -69.147          estimate D2E/DX2                !
 ! D5    D(5,1,2,14)            36.6822         estimate D2E/DX2                !
 ! D6    D(5,1,2,18)           171.2758         estimate D2E/DX2                !
 ! D7    D(2,1,3,8)           -154.199          estimate D2E/DX2                !
 ! D8    D(4,1,3,8)            -34.5313         estimate D2E/DX2                !
 ! D9    D(5,1,3,8)             85.7881         estimate D2E/DX2                !
 ! D10   D(2,1,4,7)           -100.0138         estimate D2E/DX2                !
 ! D11   D(3,1,4,7)            140.7097         estimate D2E/DX2                !
 ! D12   D(5,1,4,7)             19.587          estimate D2E/DX2                !
 ! D13   D(2,1,5,6)            -39.7339         estimate D2E/DX2                !
 ! D14   D(3,1,5,6)             80.0535         estimate D2E/DX2                !
 ! D15   D(4,1,5,6)           -159.4953         estimate D2E/DX2                !
 ! D16   D(1,2,14,13)          -78.0            estimate D2E/DX2                !
 ! D17   D(18,2,14,13)         152.5106         estimate D2E/DX2                !
 ! D18   D(11,9,10,16)         130.3438         estimate D2E/DX2                !
 ! D19   D(12,9,10,16)           9.5908         estimate D2E/DX2                !
 ! D20   D(13,9,10,16)        -110.9862         estimate D2E/DX2                !
 ! D21   D(10,9,11,17)          63.842          estimate D2E/DX2                !
 ! D22   D(12,9,11,17)        -175.7474         estimate D2E/DX2                !
 ! D23   D(13,9,11,17)         -55.5049         estimate D2E/DX2                !
 ! D24   D(10,9,12,15)         172.6026         estimate D2E/DX2                !
 ! D25   D(11,9,12,15)          51.9299         estimate D2E/DX2                !
 ! D26   D(13,9,12,15)         -67.2318         estimate D2E/DX2                !
 ! D27   D(10,9,13,14)         -57.463          estimate D2E/DX2                !
 ! D28   D(11,9,13,14)          62.1705         estimate D2E/DX2                !
 ! D29   D(12,9,13,14)        -177.6412         estimate D2E/DX2                !
 ! D30   D(9,13,14,2)          -55.465          estimate D2E/DX2                !
 --------------------------------------------------------------------------------
 Trust Radius=3.00D-01 FncErr=1.00D-07 GrdErr=1.00D-06 EigMax=2.50D+02 EigMin=1.00D-04
 Number of steps in this run=     81 maximum allowed number of steps=    108.
 GradGradGradGradGradGradGradGradGradGradGradGradGradGradGradGradGradGrad

                          Input orientation:                          
 ---------------------------------------------------------------------
 Center     Atomic      Atomic             Coordinates (Angstroms)
 Number     Number       Type             X           Y           Z
 ---------------------------------------------------------------------
      1         14           0       -6.285800   -0.373010   -0.315290
      2          8           0       -4.664980   -0.551360   -0.095260
      3          8           0       -6.589550    1.162000   -0.789280
      4          8           0       -7.064430   -0.672310    1.091880
      5          8           0       -6.796050   -1.434970   -1.449050
      6          1           0       -6.191690   -1.547050   -2.200960
      7          1           0       -7.449740   -1.560770    1.144760
      8          1           0       -7.479620    1.476250   -0.570000
      9         14           0       -3.310180   -2.974160   -1.406000
     10          8           0       -1.793190   -2.575070   -0.936310
     11          8           0       -4.230590   -3.301550   -0.091250
     12          8           0       -3.248760   -4.284480   -2.385160
     13          8           0       -3.983840   -1.707880   -2.202900
     14          1           0       -4.004780   -0.897690   -1.665050
     15          1           0       -4.118640   -4.644440   -2.609850
     16          1           0       -1.105940   -3.064130   -1.414280
     17          1           0       -4.357060   -2.538590    0.494560
     18          1           0       -4.290970    0.146260    0.467770
 ---------------------------------------------------------------------
                    Distance matrix (angstroms):
                    1          2          3          4          5
     1  Si   0.000000
     2  O    1.645381   0.000000
     3  O    1.634988   2.668564   0.000000
     4  O    1.635840   2.679793   2.670013   0.000000
     5  O    1.635092   2.674878   2.687414   2.666459   0.000000
     6  H    2.223281   2.784998   3.080598   3.517050   0.971175
     7  H    2.212979   3.211144   3.448755   0.969856   2.677870
     8  H    2.215817   3.501254   0.969052   2.747824   3.116921
     9  Si   4.099993   3.069769   5.314361   5.062836   3.810807
    10  O    5.041654   3.612471   6.082136   5.959868   5.156679
    11  O    3.584749   2.784287   5.096589   4.042691   3.450989
    12  O    5.367269   4.602772   6.585731   6.300549   4.645350
    13  O    3.262510   2.498727   4.126046   4.627960   2.924260
    14  H    2.701887   1.737829   3.419113   4.124672   2.850704
    15  H    5.310998   4.834765   6.567695   6.177241   4.337820
    16  H    5.939769   4.551988   6.951315   6.892405   5.918845
    17  H    3.010919   2.095659   4.508506   3.342102   3.308212
    18  H    2.205033   0.971370   2.809871   2.958319   3.528443
                    6          7          8          9         10
     6  H    0.000000
     7  H    3.574454   0.000000
     8  H    3.668670   3.487805   0.000000
     9  Si   3.312356   5.063596   6.155426   0.000000
    10  O    4.690732   6.111973   6.991628   1.637419   0.000000
    11  O    3.372693   3.862766   5.797652   1.637958   2.680078
    12  O    4.023467   6.125942   7.374347   1.636907   2.672065
    13  O    2.213701   4.820885   5.002552   1.640833   2.674924
    14  H    2.343383   4.494714   4.348475   2.204836   2.869808
    15  H    3.749474   5.890870   7.274615   2.211944   3.534225
    16  H    5.365189   7.003754   7.870937   2.206091   0.969509
    17  H    3.408056   3.308105   5.196403   2.213099   2.936350
    18  H    3.688110   3.653778   3.607399   3.769613   3.951706
                   11         12         13         14         15
    11  O    0.000000
    12  O    2.681821   0.000000
    13  O    2.657016   2.685597   0.000000
    14  H    2.882079   3.544076   0.972692   0.000000
    15  H    2.856437   0.967857   2.967687   3.865714   0.000000
    16  H    3.401502   2.650196   3.277750   3.627619   3.605985
    17  H    0.970194   3.545314   2.847045   2.735063   3.758831
    18  H    3.493357   5.371859   3.265676   2.391790   5.696688
                   16         17         18
    16  H    0.000000
    17  H    3.806526   0.000000
    18  H    4.898278   2.685797   0.000000
 Stoichiometry    H8O8Si2
 Framework group  C1[X(H8O8Si2)]
 Deg. of freedom    48
 Full point group                 C1      NOp   1
 Largest Abelian subgroup         C1      NOp   1
 Largest concise Abelian subgroup C1      NOp   1
                         Standard orientation:                         
 ---------------------------------------------------------------------
 Center     Atomic      Atomic             Coordinates (Angstroms)
 Number     Number       Type             X           Y           Z
 ---------------------------------------------------------------------
      1         14           0       -2.038246   -0.005205   -0.010995
      2          8           0       -0.808283    1.062761    0.221208
      3          8           0       -3.102407    0.636414   -1.073573
      4          8           0       -2.793298   -0.286943    1.412554
      5          8           0       -1.430867   -1.410473   -0.585311
      6          1           0       -0.718590   -1.307971   -1.237489
      7          1           0       -2.524928   -1.114660    1.840903
      8          1           0       -4.006420    0.299555   -0.982209
      9         14           0        2.061717   -0.004845    0.004873
     10          8           0        2.783569    1.448150    0.225948
     11          8           0        1.246451   -0.431848    1.359833
     12          8           0        3.199523   -1.129890   -0.340288
     13          8           0        0.986193    0.104163   -1.229509
     14          1           0        0.313254    0.789953   -1.077937
     15          1           0        2.856538   -2.034386   -0.371849
     16          1           0        3.720743    1.449022   -0.022348
     17          1           0        0.513879    0.165879    1.577406
     18          1           0       -1.130109    1.954622    0.432329
 ---------------------------------------------------------------------
 Rotational constants (GHZ):           2.0083251           0.4789914           0.4764141
 Standard basis: 6-31+G(d,p) (6D, 7F)
 There are   238 symmetry adapted cartesian basis functions of A   symmetry.
 There are   238 symmetry adapted basis functions of A   symmetry.
   238 basis functions,   424 primitive gaussians,   238 cartesian basis functions
    50 alpha electrons       50 beta electrons
       nuclear repulsion energy       858.4911124167 Hartrees.
 NAtoms=   18 NActive=   18 NUniq=   18 SFac= 1.00D+00 NAtFMM=   60 NAOKFM=F Big=F
 Integral buffers will be    131072 words long.
 Raffenetti 2 integral format.
 Two-electron integral symmetry is turned on.
 Nuclear repulsion after empirical dispersion term =      858.4748378032 Hartrees.
 One-electron integrals computed using PRISM.
 NBasis=   238 RedAO= T EigKep=  2.44D-04  NBF=   238
 NBsUse=   238 1.00D-06 EigRej= -1.00D+00 NBFU=   238
 ExpMin= 3.31D-02 ExpMax= 1.61D+04 ExpMxC= 2.43D+03 IAcc=3 IRadAn=         5 AccDes= 0.00D+00
 Harris functional with IExCor=  402 and IRadAn=       5 diagonalized for initial guess.
 HarFok:  IExCor=  402 AccDes= 0.00D+00 IRadAn=         5 IDoV= 1 UseB2=F ITyADJ=14
 ICtDFT=  3500011 ScaDFX=  1.000000  1.000000  1.000000  1.000000
 FoFCou: FMM=F IPFlag=           0 FMFlag=      100000 FMFlg1=           0
         NFxFlg=           0 DoJE=T BraDBF=F KetDBF=T FulRan=T
         wScrn=  0.000000 ICntrl=       500 IOpCl=  0 I1Cent=   200000004 NGrid=           0
         NMat0=    1 NMatS0=      1 NMatT0=    0 NMatD0=    1 NMtDS0=    0 NMtDT0=    0
 Petite list used in FoFCou.
 Requested convergence on RMS density matrix=1.00D-08 within 128 cycles.
 Requested convergence on MAX density matrix=1.00D-06.
 Requested convergence on             energy=1.00D-06.
 No special actions if energy rises.
 SCF Done:  E(RB3LYP) =  -1186.04834447     A.U. after   12 cycles
            NFock= 12  Conv=0.19D-08     -V/T= 2.0063

 **********************************************************************

            Population analysis using the SCF Density.

 **********************************************************************

 Orbital symmetries:
       Occupied  (A) (A) (A) (A) (A) (A) (A) (A) (A) (A) (A) (A)
                 (A) (A) (A) (A) (A) (A) (A) (A) (A) (A) (A) (A)
                 (A) (A) (A) (A) (A) (A) (A) (A) (A) (A) (A) (A)
                 (A) (A) (A) (A) (A) (A) (A) (A) (A) (A) (A) (A)
                 (A) (A)
       Virtual   (A) (A) (A) (A) (A) (A) (A) (A) (A) (A) (A) (A)
                 (A) (A) (A) (A) (A) (A) (A) (A) (A) (A) (A) (A)
                 (A) (A) (A) (A) (A) (A) (A) (A) (A) (A) (A) (A)
                 (A) (A) (A) (A) (A) (A) (A) (A) (A) (A) (A) (A)
                 (A) (A) (A) (A) (A) (A) (A) (A) (A) (A) (A) (A)
                 (A) (A) (A) (A) (A) (A) (A) (A) (A) (A) (A) (A)
                 (A) (A) (A) (A) (A) (A) (A) (A) (A) (A) (A) (A)
                 (A) (A) (A) (A) (A) (A) (A) (A) (A) (A) (A) (A)
                 (A) (A) (A) (A) (A) (A) (A) (A) (A) (A) (A) (A)
                 (A) (A) (A) (A) (A) (A) (A) (A) (A) (A) (A) (A)
                 (A) (A) (A) (A) (A) (A) (A) (A) (A) (A) (A) (A)
                 (A) (A) (A) (A) (A) (A) (A) (A) (A) (A) (A) (A)
                 (A) (A) (A) (A) (A) (A) (A) (A) (A) (A) (A) (A)
                 (A) (A) (A) (A) (A) (A) (A) (A) (A) (A) (A) (A)
                 (A) (A) (A) (A) (A) (A) (A) (A) (A) (A) (A) (A)
                 (A) (A) (A) (A) (A) (A) (A) (A)
 The electronic state is 1-A.
 Alpha  occ. eigenvalues --  -66.23304 -66.20442 -19.20984 -19.18535 -19.18250
 Alpha  occ. eigenvalues --  -19.17080 -19.16877 -19.16046 -19.14996 -19.14769
 Alpha  occ. eigenvalues --   -5.36908  -5.34023  -3.72934  -3.72853  -3.72816
 Alpha  occ. eigenvalues --   -3.70052  -3.69964  -3.69941  -1.07903  -1.04428
 Alpha  occ. eigenvalues --   -1.03797  -1.02475  -1.01572  -1.00610  -0.99908
 Alpha  occ. eigenvalues --   -0.99236  -0.61433  -0.58811  -0.56298  -0.54751
 Alpha  occ. eigenvalues --   -0.54190  -0.53052  -0.52128  -0.51758  -0.45274
 Alpha  occ. eigenvalues --   -0.41808  -0.40831  -0.39867  -0.39413  -0.38835
 Alpha  occ. eigenvalues --   -0.38274  -0.38071  -0.37572  -0.36897  -0.34981
 Alpha  occ. eigenvalues --   -0.34789  -0.34464  -0.32985  -0.32674  -0.30178
 Alpha virt. eigenvalues --   -0.03994  -0.00865   0.00047   0.00840   0.02093
 Alpha virt. eigenvalues --    0.03089   0.04826   0.06895   0.08496   0.09696
 Alpha virt. eigenvalues --    0.10310   0.11023   0.11963   0.12525   0.12926
 Alpha virt. eigenvalues --    0.13499   0.13697   0.14648   0.14713   0.15904
 Alpha virt. eigenvalues --    0.16541   0.17030   0.17465   0.17830   0.18519
 Alpha virt. eigenvalues --    0.18996   0.19313   0.20395   0.20875   0.21641
 Alpha virt. eigenvalues --    0.22181   0.22693   0.23037   0.24117   0.24160
 Alpha virt. eigenvalues --    0.25238   0.26007   0.26521   0.27879   0.28130
 Alpha virt. eigenvalues --    0.28457   0.28923   0.29771   0.30349   0.31011
 Alpha virt. eigenvalues --    0.31610   0.32922   0.34282   0.36126   0.36738
 Alpha virt. eigenvalues --    0.37439   0.39019   0.39917   0.40184   0.43023
 Alpha virt. eigenvalues --    0.43947   0.47996   0.48985   0.51026   0.51376
 Alpha virt. eigenvalues --    0.53536   0.55718   0.60592   0.61437   0.62886
 Alpha virt. eigenvalues --    0.64631   0.65931   0.74639   0.91785   0.93442
 Alpha virt. eigenvalues --    0.94852   0.95924   0.96829   0.97257   0.97942
 Alpha virt. eigenvalues --    0.99334   1.00058   1.01460   1.04335   1.06677
 Alpha virt. eigenvalues --    1.10352   1.10739   1.14230   1.16409   1.16815
 Alpha virt. eigenvalues --    1.17954   1.18710   1.18884   1.20399   1.20835
 Alpha virt. eigenvalues --    1.21279   1.22379   1.23146   1.23391   1.24607
 Alpha virt. eigenvalues --    1.25952   1.26948   1.27324   1.28701   1.30358
 Alpha virt. eigenvalues --    1.30631   1.31935   1.32822   1.35300   1.35970
 Alpha virt. eigenvalues --    1.40991   1.46883   1.48774   1.53174   1.54689
 Alpha virt. eigenvalues --    1.56902   1.57466   1.58171   1.59547   1.60431
 Alpha virt. eigenvalues --    1.62004   1.63113   1.64283   1.67270   1.68008
 Alpha virt. eigenvalues --    1.69274   1.69544   1.70225   1.72802   1.73850
 Alpha virt. eigenvalues --    1.77793   1.81082   1.84413   1.89038   1.90442
 Alpha virt. eigenvalues --    1.91945   1.93011   1.94894   2.01360   2.03100
 Alpha virt. eigenvalues --    2.10292   2.12963   2.15714   2.36632   2.36838
 Alpha virt. eigenvalues --    2.36903   2.38102   2.38449   2.39647   2.41801
 Alpha virt. eigenvalues --    2.45226   2.47192   2.50454   2.56640   2.58562
 Alpha virt. eigenvalues --    2.59149   2.60090   2.61091   2.62325   2.62792
 Alpha virt. eigenvalues --    2.63211   2.67063   2.68026   2.68645   2.70805
 Alpha virt. eigenvalues --    2.72457   2.74035   2.75604   2.77147   2.77515
 Alpha virt. eigenvalues --    2.79279   2.81467   2.82564   2.84017   2.89826
 Alpha virt. eigenvalues --    2.99357   3.02462   3.40018   3.41233   3.42273
 Alpha virt. eigenvalues --    3.44553   3.45747   3.50852   3.53553   3.57997
 Alpha virt. eigenvalues --    4.14725   4.18328   4.19259   4.22213   4.22556
 Alpha virt. eigenvalues --    4.26993   4.38088   4.56793
          Condensed to atoms (all electrons):
               1          2          3          4          5          6
     1  Si  11.902976  -0.112939  -0.008235   0.029197   0.083624   0.041902
     2  O   -0.112939   8.789199   0.074825   0.039503   0.029656  -0.009305
     3  O   -0.008235   0.074825   8.577139  -0.027194  -0.014215  -0.006731
     4  O    0.029197   0.039503  -0.027194   8.530197   0.070156   0.005790
     5  O    0.083624   0.029656  -0.014215   0.070156   8.439495   0.242772
     6  H    0.041902  -0.009305  -0.006731   0.005790   0.242772   0.312596
     7  H    0.040921  -0.007700   0.005274   0.240746  -0.003435   0.000055
     8  H    0.040986   0.002255   0.234909  -0.000874  -0.007090   0.000013
     9  Si   0.052128  -0.076025   0.002904   0.003588  -0.071441   0.004664
    10  O    0.000725   0.020615   0.000099  -0.000397  -0.000069   0.000200
    11  O   -0.039225   0.043519  -0.001383  -0.009992   0.046048  -0.004631
    12  O    0.002098  -0.012806  -0.000140   0.000604  -0.003459   0.000337
    13  O   -0.033306  -0.003674  -0.013967  -0.005737   0.051251   0.012333
    14  H    0.014606  -0.000263   0.000447   0.001517  -0.009311  -0.001149
    15  H   -0.000202   0.000154   0.000001  -0.000008  -0.000280   0.000041
    16  H   -0.000302   0.000105   0.000000  -0.000000   0.000029  -0.000001
    17  H    0.004167  -0.001513   0.000254   0.004239  -0.005952   0.000379
    18  H    0.042329   0.211868  -0.001444  -0.008325   0.005622   0.000005
               7          8          9         10         11         12
     1  Si   0.040921   0.040986   0.052128   0.000725  -0.039225   0.002098
     2  O   -0.007700   0.002255  -0.076025   0.020615   0.043519  -0.012806
     3  O    0.005274   0.234909   0.002904   0.000099  -0.001383  -0.000140
     4  O    0.240746  -0.000874   0.003588  -0.000397  -0.009992   0.000604
     5  O   -0.003435  -0.007090  -0.071441  -0.000069   0.046048  -0.003459
     6  H    0.000055   0.000013   0.004664   0.000200  -0.004631   0.000337
     7  H    0.345179   0.000070   0.000661  -0.000005  -0.000906  -0.000009
     8  H    0.000070   0.354957  -0.000073  -0.000000   0.000053  -0.000000
     9  Si   0.000661  -0.000073  11.937991  -0.052919  -0.057239   0.044038
    10  O   -0.000005  -0.000000  -0.052919   8.607255   0.075508  -0.006960
    11  O   -0.000906   0.000053  -0.057239   0.075508   8.545531   0.025514
    12  O   -0.000009  -0.000000   0.044038  -0.006960   0.025514   8.499583
    13  O   -0.000050   0.000216  -0.082740   0.068752   0.064331   0.033066
    14  H   -0.000001  -0.000017   0.053606  -0.006198  -0.019520   0.008170
    15  H    0.000000   0.000000   0.045185   0.009059  -0.007524   0.239871
    16  H    0.000000  -0.000000   0.035531   0.232741   0.000940  -0.000858
    17  H    0.000172  -0.000002   0.054040  -0.006869   0.233973   0.006818
    18  H    0.000089   0.000085  -0.002034   0.000016   0.002087  -0.000028
              13         14         15         16         17         18
     1  Si  -0.033306   0.014606  -0.000202  -0.000302   0.004167   0.042329
     2  O   -0.003674  -0.000263   0.000154   0.000105  -0.001513   0.211868
     3  O   -0.013967   0.000447   0.000001   0.000000   0.000254  -0.001444
     4  O   -0.005737   0.001517  -0.000008  -0.000000   0.004239  -0.008325
     5  O    0.051251  -0.009311  -0.000280   0.000029  -0.005952   0.005622
     6  H    0.012333  -0.001149   0.000041  -0.000001   0.000379   0.000005
     7  H   -0.000050  -0.000001   0.000000   0.000000   0.000172   0.000089
     8  H    0.000216  -0.000017   0.000000  -0.000000  -0.000002   0.000085
     9  Si  -0.082740   0.053606   0.045185   0.035531   0.054040  -0.002034
    10  O    0.068752  -0.006198   0.009059   0.232741  -0.006869   0.000016
    11  O    0.064331  -0.019520  -0.007524   0.000940   0.233973   0.002087
    12  O    0.033066   0.008170   0.239871  -0.000858   0.006818  -0.000028
    13  O    8.642444   0.219845  -0.008556  -0.004298  -0.021302   0.009592
    14  H    0.219845   0.338795  -0.000019  -0.000062   0.000749  -0.002840
    15  H   -0.008556  -0.000019   0.361336   0.000031  -0.000007   0.000000
    16  H   -0.004298  -0.000062   0.000031   0.358999  -0.000039   0.000002
    17  H   -0.021302   0.000749  -0.000007  -0.000039   0.344685  -0.000390
    18  H    0.009592  -0.002840   0.000000   0.000002  -0.000390   0.331465
 Mulliken charges:
               1
     1  Si   1.938551
     2  O   -0.987475
     3  O   -0.822543
     4  O   -0.873008
     5  O   -0.853402
     6  H    0.400729
     7  H    0.378938
     8  H    0.374510
     9  Si   2.108134
    10  O   -0.941553
    11  O   -0.897083
    12  O   -0.835839
    13  O   -0.928201
    14  H    0.401646
    15  H    0.360918
    16  H    0.377180
    17  H    0.386597
    18  H    0.411900
 Sum of Mulliken charges =  -0.00000
 Mulliken charges with hydrogens summed into heavy atoms:
               1
     1  Si   1.938551
     2  O   -0.575575
     3  O   -0.448032
     4  O   -0.494070
     5  O   -0.452673
     9  Si   2.108134
    10  O   -0.564374
    11  O   -0.510486
    12  O   -0.474921
    13  O   -0.526554
 Electronic spatial extent (au):  <R**2>=           2394.6179
 Charge=              0.0000 electrons
 Dipole moment (field-independent basis, Debye):
    X=             -2.2661    Y=              0.2933    Z=              0.3788  Tot=              2.3162
 Quadrupole moment (field-independent basis, Debye-Ang):
   XX=            -66.7251   YY=            -66.6028   ZZ=            -76.1599
   XY=              0.0704   XZ=             -2.3871   YZ=              0.7452
 Traceless Quadrupole moment (field-independent basis, Debye-Ang):
   XX=              3.1041   YY=              3.2265   ZZ=             -6.3306
   XY=              0.0704   XZ=             -2.3871   YZ=              0.7452
 Octapole moment (field-independent basis, Debye-Ang**2):
  XXX=            -21.1299  YYY=             -3.8786  ZZZ=              6.4114  XYY=              4.7290
  XXY=              3.0130  XXZ=            -12.0393  XZZ=             -8.0451  YZZ=             -6.0062
  YYZ=              3.1106  XYZ=              2.4174
 Hexadecapole moment (field-independent basis, Debye-Ang**3):
 XXXX=          -1890.5705 YYYY=           -321.6341 ZZZZ=           -359.4560 XXXY=            110.6950
 XXXZ=             59.3334 YYYX=            -60.6800 YYYZ=              5.9015 ZZZX=            -13.4379
 ZZZY=             -2.8169 XXYY=           -392.2423 XXZZ=           -456.0802 YYZZ=           -110.2670
 XXYZ=            -14.4347 YYXZ=            -35.6352 ZZXY=             23.5388
 N-N= 8.584748378032D+02 E-N=-4.526945734079D+03  KE= 1.178568864114D+03
 Calling FoFJK, ICntrl=      2127 FMM=F ISym2X=0 I1Cent= 0 IOpClX= 0 NMat=1 NMatS=1 NMatT=0.
 ***** Axes restored to original set *****
 -------------------------------------------------------------------
 Center     Atomic                   Forces (Hartrees/Bohr)
 Number     Number              X              Y              Z
 -------------------------------------------------------------------
      1       14          -0.023234081   -0.004776028   -0.009373906
      2        8           0.013423115    0.021041213    0.016607704
      3        8          -0.000806284    0.011810350    0.005982487
      4        8          -0.008772978   -0.007649194    0.004593392
      5        8           0.002685808   -0.003336777   -0.000897849
      6        1           0.000349402   -0.003926920    0.001827803
      7        1           0.000981377    0.004060986    0.002414272
      8        1           0.004542778    0.000703446   -0.002176270
      9       14          -0.003665269    0.003233123    0.003145870
     10        8           0.014935428   -0.005825008   -0.003787866
     11        8          -0.003849487   -0.005334946    0.012098964
     12        8          -0.005281589   -0.004639938   -0.002963046
     13        8          -0.001220113    0.004784242   -0.021942925
     14        1           0.003913406   -0.005460225   -0.003079028
     15        1           0.004296694   -0.001611225   -0.001077721
     16        1          -0.000181274    0.004443787    0.004208305
     17        1           0.000073254   -0.004609102   -0.003906779
     18        1           0.001809812   -0.002907782   -0.001673408
 -------------------------------------------------------------------
 Cartesian Forces:  Max     0.023234081 RMS     0.007689758

 GradGradGradGradGradGradGradGradGradGradGradGradGradGradGradGradGradGrad
 Berny optimization.
 FormGI is forming the generalized inverse of G from B-inverse, IUseBI=4.
 Internal  Forces:  Max     0.014583028 RMS     0.006605743
 Search for a local minimum.
 Step number   1 out of a maximum of   81
 All quantities printed in internal units (Hartrees-Bohrs-Radians)
 Mixed Optimization -- RFO/linear search
 Second derivative matrix not updated -- first step.
 ITU=  0
     Eigenvalues ---    0.00514   0.03739   0.03799   0.03837   0.03844
     Eigenvalues ---    0.03851   0.03865   0.03875   0.03876   0.04354
     Eigenvalues ---    0.05653   0.08675   0.10703   0.10772   0.12173
     Eigenvalues ---    0.12197   0.12246   0.12480   0.13111   0.16000
     Eigenvalues ---    0.16000   0.16000   0.16000   0.16000   0.16000
     Eigenvalues ---    0.16000   0.20131   0.20260   0.20696   0.20836
     Eigenvalues ---    0.21124   0.41269   0.43801   0.44527   0.44613
     Eigenvalues ---    0.44696   0.44868   0.44990   0.45007   0.51744
     Eigenvalues ---    0.53098   0.53138   0.53337   0.53406   0.53477
     Eigenvalues ---    0.53571   0.538171000.000001000.000001000.00000
     Eigenvalues --- 1000.000001000.000001000.000001000.000001000.00000
     Eigenvalues --- 1000.000001000.000001000.000001000.000001000.00000
     Eigenvalues --- 1000.000001000.000001000.000001000.000001000.00000
     Eigenvalues --- 1000.000001000.000001000.000001000.000001000.00000
     Eigenvalues --- 1000.00000
 RFO step:  Lambda=-1.78841996D-02 EMin= 5.13916793D-03
 Linear search not attempted -- first point.
 Iteration  1 RMS(Cart)=  0.21402266 RMS(Int)=  0.01431948
 Iteration  2 RMS(Cart)=  0.05468228 RMS(Int)=  0.00087850
 Iteration  3 RMS(Cart)=  0.00140877 RMS(Int)=  0.00058096
 Iteration  4 RMS(Cart)=  0.00000289 RMS(Int)=  0.00058096
 Iteration  5 RMS(Cart)=  0.00000000 RMS(Int)=  0.00058096
 Iteration  1 RMS(Cart)=  0.00030512 RMS(Int)=  0.00003072
 Iteration  2 RMS(Cart)=  0.00001889 RMS(Int)=  0.00003160
 Iteration  3 RMS(Cart)=  0.00000117 RMS(Int)=  0.00003171
 Iteration  4 RMS(Cart)=  0.00000007 RMS(Int)=  0.00003171
 Variable       Old X    -DE/DX   Delta X   Delta X   Delta X     New X
                                 (Linear)    (Quad)   (Total)
    R1        3.10932   0.01454   0.00000   0.04093   0.04162   3.15094
    R2        3.08968   0.00995   0.00000   0.02126   0.02126   3.11094
    R3        3.09129   0.01039   0.00000   0.02228   0.02228   3.11357
    R4        3.08988   0.00313   0.00000   0.00668   0.00668   3.09656
    R5        7.74786   0.01163   0.00000   0.00000  -0.00000   7.74786
    R6        3.28402   0.01458   0.00000   0.20724   0.20804   3.49206
    R7        1.83562  -0.00236   0.00000  -0.00430  -0.00430   1.83132
    R8        1.83124  -0.00444   0.00000  -0.00801  -0.00801   1.82323
    R9        1.83276  -0.00398   0.00000  -0.00721  -0.00721   1.82555
   R10        1.83526  -0.00075   0.00000  -0.00136  -0.00136   1.83390
   R11        3.09427   0.01345   0.00000   0.02899   0.02899   3.12327
   R12        3.09529   0.01068   0.00000   0.02307   0.02307   3.11836
   R13        3.09331   0.00738   0.00000   0.01589   0.01589   3.10919
   R14        3.10072   0.00976   0.00000   0.02884   0.02954   3.13026
   R15        1.83211  -0.00444   0.00000  -0.00804  -0.00804   1.82406
   R16        1.83340  -0.00599   0.00000  -0.01087  -0.01087   1.82253
   R17        1.82899  -0.00301   0.00000  -0.00542  -0.00542   1.82357
   R18        1.83812   0.00790   0.00000   0.02113   0.02190   1.86003
    A1        1.90027  -0.01044   0.00000  -0.05333  -0.05288   1.84739
    A2        1.91135   0.00918   0.00000   0.03470   0.03464   1.94599
    A3        1.90681  -0.00490   0.00000  -0.02555  -0.02497   1.88184
    A4        1.90999  -0.00161   0.00000  -0.00491  -0.00481   1.90518
    A5        1.92919   0.01230   0.00000   0.06359   0.06323   1.99242
    A6        1.90614  -0.00446   0.00000  -0.01440  -0.01448   1.89166
    A7        1.84942  -0.01213   0.00000  -0.03356  -0.03212   1.81730
    A8        1.95946   0.01166   0.00000   0.05516   0.05423   2.01369
    A9        2.11815   0.00159   0.00000   0.00309   0.00272   2.12087
   A10        1.99270   0.00454   0.00000   0.02555   0.02555   2.01824
   A11        1.98626   0.00495   0.00000   0.02785   0.02785   2.01410
   A12        2.00160   0.00300   0.00000   0.01687   0.01687   2.01847
   A13        1.91672   0.00091   0.00000   0.00929   0.00830   1.92502
   A14        1.90914  -0.00193   0.00000  -0.02381  -0.02402   1.88512
   A15        1.90878  -0.00012   0.00000   0.00575   0.00482   1.91360
   A16        1.91902  -0.00499   0.00000  -0.02827  -0.02812   1.89090
   A17        1.88955   0.00953   0.00000   0.05765   0.05730   1.94685
   A18        1.92053  -0.00329   0.00000  -0.01972  -0.01950   1.90103
   A19        1.97400   0.00770   0.00000   0.04329   0.04329   2.01729
   A20        1.98311   0.00029   0.00000   0.00164   0.00164   1.98474
   A21        1.98543   0.00661   0.00000   0.03717   0.03717   2.02261
   A22        1.96394   0.00330   0.00000   0.06216   0.06379   2.02773
   A23        2.30994   0.01292   0.00000   0.08450   0.08682   2.39676
    D1       -1.46819  -0.00317   0.00000  -0.02170  -0.02216  -1.49036
    D2        0.88091  -0.00203   0.00000  -0.00187  -0.00248   0.87842
    D3        2.72724  -0.00039   0.00000  -0.00426  -0.00411   2.72313
    D4       -1.20684   0.00075   0.00000   0.01556   0.01557  -1.19128
    D5        0.64023   0.00249   0.00000   0.00787   0.00841   0.64863
    D6        2.98933   0.00363   0.00000   0.02770   0.02809   3.01741
    D7       -2.69128  -0.00309   0.00000  -0.01260  -0.01338  -2.70466
    D8       -0.60268   0.00084   0.00000  -0.00538  -0.00539  -0.60807
    D9        1.49729   0.00200   0.00000   0.01356   0.01435   1.51163
   D10       -1.74557  -0.00146   0.00000  -0.00550  -0.00551  -1.75108
   D11        2.45585   0.00672   0.00000   0.04162   0.04145   2.49730
   D12        0.34186  -0.00461   0.00000  -0.02449  -0.02431   0.31755
   D13       -0.69349   0.00684   0.00000   0.05915   0.05955  -0.63393
   D14        1.39720  -0.00154   0.00000   0.01647   0.01604   1.41324
   D15       -2.78372   0.00130   0.00000   0.04090   0.04093  -2.74279
   D16       -1.36136   0.01154   0.00000   0.25944   0.25842  -1.10293
   D17        2.66181   0.00556   0.00000   0.21059   0.20983   2.87164
   D18        2.27493  -0.00615   0.00000  -0.03856  -0.03855   2.23638
   D19        0.16739   0.00064   0.00000   0.00546   0.00549   0.17289
   D20       -1.93707   0.00594   0.00000   0.04077   0.04072  -1.89635
   D21        1.11425   0.00410   0.00000   0.03695   0.03737   1.15162
   D22       -3.06737  -0.00085   0.00000  -0.00447  -0.00425  -3.07162
   D23       -0.96874  -0.00198   0.00000  -0.00996  -0.01059  -0.97933
   D24        3.01248  -0.00009   0.00000  -0.00307  -0.00297   3.00951
   D25        0.90635   0.00312   0.00000   0.01814   0.01796   0.92430
   D26       -1.17342  -0.00348   0.00000  -0.02311  -0.02302  -1.19644
   D27       -1.00292  -0.00204   0.00000   0.00117   0.00082  -1.00210
   D28        1.08508   0.00463   0.00000   0.04987   0.05035   1.13542
   D29       -3.10042   0.00245   0.00000   0.03909   0.03896  -3.06146
   D30       -0.96805   0.00922   0.00000   0.01339   0.01147  -0.95657
         Item               Value     Threshold  Converged?
 Maximum Force            0.014003     0.000450     NO 
 RMS     Force            0.006494     0.000300     NO 
 Maximum Displacement     0.739644     0.001800     NO 
 RMS     Displacement     0.259027     0.001200     NO 
 Predicted change in Energy=-1.079495D-02
 GradGradGradGradGradGradGradGradGradGradGradGradGradGradGradGradGradGrad

                          Input orientation:                          
 ---------------------------------------------------------------------
 Center     Atomic      Atomic             Coordinates (Angstroms)
 Number     Number       Type             X           Y           Z
 ---------------------------------------------------------------------
      1         14           0       -6.274318   -0.351058   -0.261374
      2          8           0       -4.627892   -0.258363   -0.014543
      3          8           0       -6.708912    1.085080   -0.938680
      4          8           0       -7.087526   -0.547566    1.158048
      5          8           0       -6.566668   -1.655292   -1.209322
      6          1           0       -5.904352   -1.832302   -1.896194
      7          1           0       -7.367198   -1.451305    1.353687
      8          1           0       -7.627159    1.349022   -0.804450
      9         14           0       -3.363166   -2.980508   -1.453487
     10          8           0       -1.838874   -2.752177   -0.856816
     11          8           0       -4.386030   -3.449406   -0.246452
     12          8           0       -3.296303   -4.184862   -2.572467
     13          8           0       -3.886770   -1.591970   -2.189473
     14          1           0       -3.899542   -0.782215   -1.630057
     15          1           0       -4.145623   -4.490652   -2.913576
     16          1           0       -1.133854   -3.215118   -1.326228
     17          1           0       -4.530595   -2.771922    0.424564
     18          1           0       -4.321028    0.537663    0.445152
 ---------------------------------------------------------------------
                    Distance matrix (angstroms):
                    1          2          3          4          5
     1  Si   0.000000
     2  O    1.667403   0.000000
     3  O    1.646241   2.643768   0.000000
     4  O    1.647629   2.740147   2.684240   0.000000
     5  O    1.638628   2.671658   2.757376   2.665106   0.000000
     6  H    2.236871   2.765364   3.174156   3.518357   0.970458
     7  H    2.239052   3.286177   3.481600   0.966042   2.692856
     8  H    2.239505   3.493313   0.964811   2.782021   3.211614
     9  Si   4.099993   3.328688   5.290373   5.158505   3.475376
    10  O    5.078690   3.834991   6.200687   6.038902   4.866154
    11  O    3.628445   3.208588   5.141646   4.206112   2.983478
    12  O    5.376595   4.871704   6.487485   6.443604   4.353410
    13  O    3.310259   2.656707   4.086021   4.747790   2.854218
    14  H    2.774662   1.847918   3.443451   4.241678   2.837753
    15  H    5.357402   5.152596   6.446662   6.385988   4.099415
    16  H    5.980060   4.761430   7.051466   6.980950   5.653511
    17  H    3.061317   2.553480   4.634648   3.467514   2.839372
    18  H    2.259279   0.969093   2.813654   3.056051   3.548131
                    6          7          8          9         10
     6  H    0.000000
     7  H    3.584243   0.000000
     8  H    3.778993   3.544991   0.000000
     9  Si   2.823471   5.123568   6.111277   0.000000
    10  O    4.295880   6.094338   7.094140   1.652761   0.000000
    11  O    2.764412   3.929404   5.817318   1.650166   2.710475
    12  O    3.576843   6.281656   7.246107   1.645313   2.668359
    13  O    2.052902   4.968616   4.955626   1.656465   2.704799
    14  H    2.278766   4.623316   4.372519   2.269663   2.953812
    15  H    3.345896   6.150261   7.118377   2.241569   3.545934
    16  H    4.999469   7.010531   7.954032   2.245232   0.965253
    17  H    2.855872   3.263987   5.299185   2.221142   2.981223
    18  H    3.688569   3.749744   3.626336   4.110943   4.321951
                   11         12         13         14         15
    11  O    0.000000
    12  O    2.671843   0.000000
    13  O    2.733983   2.686713   0.000000
    14  H    3.043837   3.581905   0.984283   0.000000
    15  H    2.873245   0.964991   2.998947   3.931982   0.000000
    16  H    3.434742   2.677629   3.310340   3.695992   3.635576
    17  H    0.964441   3.535826   2.939385   2.928930   3.774310
    18  H    4.047130   5.697221   3.415431   2.495240   6.049443
                   16         17         18
    16  H    0.000000
    17  H    3.847017   0.000000
    18  H    5.232516   3.316277   0.000000
 Stoichiometry    H8O8Si2
 Framework group  C1[X(H8O8Si2)]
 Deg. of freedom    48
 Full point group                 C1      NOp   1
 Largest Abelian subgroup         C1      NOp   1
 Largest concise Abelian subgroup C1      NOp   1
                         Standard orientation:                         
 ---------------------------------------------------------------------
 Center     Atomic      Atomic             Coordinates (Angstroms)
 Number     Number       Type             X           Y           Z
 ---------------------------------------------------------------------
      1         14           0       -2.051683   -0.014586   -0.017642
      2          8           0       -1.021151    1.109707    0.656304
      3          8           0       -3.081396    0.838263   -0.978082
      4          8           0       -2.920098   -0.806310    1.137221
      5          8           0       -1.139199   -1.112770   -0.821674
      6          1           0       -0.354147   -0.759369   -1.269547
      7          1           0       -2.594655   -1.685492    1.370381
      8          1           0       -3.939539    0.427451   -1.138348
      9         14           0        2.048223   -0.002214    0.006120
     10          8           0        2.801711    1.116755    0.960992
     11          8           0        1.269662   -1.119089    0.938579
     12          8           0        3.200916   -0.777147   -0.875829
     13          8           0        1.003595    0.761367   -1.028081
     14          1           0        0.308430    1.318767   -0.609914
     15          1           0        2.898428   -1.534519   -1.391674
     16          1           0        3.736359    1.265184    0.770951
     17          1           0        0.533375   -0.756252    1.444915
     18          1           0       -1.452147    1.873229    1.069121
 ---------------------------------------------------------------------
 Rotational constants (GHZ):           1.9720958           0.4757357           0.4707920
 Standard basis: 6-31+G(d,p) (6D, 7F)
 There are   238 symmetry adapted cartesian basis functions of A   symmetry.
 There are   238 symmetry adapted basis functions of A   symmetry.
   238 basis functions,   424 primitive gaussians,   238 cartesian basis functions
    50 alpha electrons       50 beta electrons
       nuclear repulsion energy       852.1470790368 Hartrees.
 NAtoms=   18 NActive=   18 NUniq=   18 SFac= 1.00D+00 NAtFMM=   60 NAOKFM=F Big=F
 Integral buffers will be    131072 words long.
 Raffenetti 2 integral format.
 Two-electron integral symmetry is turned on.
 Nuclear repulsion after empirical dispersion term =      852.1306330322 Hartrees.
 One-electron integrals computed using PRISM.
 NBasis=   238 RedAO= T EigKep=  2.43D-04  NBF=   238
 NBsUse=   238 1.00D-06 EigRej= -1.00D+00 NBFU=   238
 Initial guess from the checkpoint file:  "/localscratch/sarashs.36560087.0/Gau-133251.chk"
 B after Tr=     0.000000    0.000000    0.000000
         Rot=    0.977605   -0.210095    0.008335   -0.008847 Ang= -24.30 deg.
 ExpMin= 3.31D-02 ExpMax= 1.61D+04 ExpMxC= 2.43D+03 IAcc=3 IRadAn=         5 AccDes= 0.00D+00
 Harris functional with IExCor=  402 and IRadAn=       5 diagonalized for initial guess.
 HarFok:  IExCor=  402 AccDes= 0.00D+00 IRadAn=         5 IDoV= 1 UseB2=F ITyADJ=14
 ICtDFT=  3500011 ScaDFX=  1.000000  1.000000  1.000000  1.000000
 FoFCou: FMM=F IPFlag=           0 FMFlag=      100000 FMFlg1=           0
         NFxFlg=           0 DoJE=T BraDBF=F KetDBF=T FulRan=T
         wScrn=  0.000000 ICntrl=       500 IOpCl=  0 I1Cent=   200000004 NGrid=           0
         NMat0=    1 NMatS0=      1 NMatT0=    0 NMatD0=    1 NMtDS0=    0 NMtDT0=    0
 Petite list used in FoFCou.
 Requested convergence on RMS density matrix=1.00D-08 within 128 cycles.
 Requested convergence on MAX density matrix=1.00D-06.
 Requested convergence on             energy=1.00D-06.
 No special actions if energy rises.
 SCF Done:  E(RB3LYP) =  -1186.05496024     A.U. after   11 cycles
            NFock= 11  Conv=0.41D-08     -V/T= 2.0066
 Calling FoFJK, ICntrl=      2127 FMM=F ISym2X=0 I1Cent= 0 IOpClX= 0 NMat=1 NMatS=1 NMatT=0.
 ***** Axes restored to original set *****
 -------------------------------------------------------------------
 Center     Atomic                   Forces (Hartrees/Bohr)
 Number     Number              X              Y              Z
 -------------------------------------------------------------------
      1       14          -0.008398893   -0.000848848   -0.004125120
      2        8           0.001667409    0.005868137    0.004002039
      3        8          -0.000035513    0.002314072    0.004365017
      4        8          -0.002074337   -0.002151616   -0.000782179
      5        8          -0.002470925    0.003706839    0.003626720
      6        1           0.001180211    0.000547411   -0.000047206
      7        1          -0.000189750    0.001329610    0.000581210
      8        1           0.000453790    0.000846706   -0.001107758
      9       14           0.010570495   -0.000246149    0.001062151
     10        8           0.000479532   -0.002258633   -0.002055375
     11        8           0.002099072    0.001474863    0.000074659
     12        8          -0.003653877    0.000760263   -0.000441690
     13        8          -0.003454605    0.004494806   -0.001471312
     14        1           0.003577774   -0.011902570   -0.004387859
     15        1           0.001940775   -0.001615693   -0.000834178
     16        1          -0.000291206    0.001189511    0.001244357
     17        1          -0.001152210   -0.000604127    0.001482652
     18        1          -0.000247741   -0.002904582   -0.001186128
 -------------------------------------------------------------------
 Cartesian Forces:  Max     0.011902570 RMS     0.003304275

 GradGradGradGradGradGradGradGradGradGradGradGradGradGradGradGradGradGrad
 Berny optimization.
 Using GEDIIS/GDIIS optimizer.
 FormGI is forming the generalized inverse of G from B-inverse, IUseBI=4.
 Internal  Forces:  Max     0.015377564 RMS     0.003733214
 Search for a local minimum.
 Step number   2 out of a maximum of   81
 All quantities printed in internal units (Hartrees-Bohrs-Radians)
 Mixed Optimization -- RFO/linear search
 Update second derivatives using D2CorX and points    1    2
 DE= -6.62D-03 DEPred=-1.08D-02 R= 6.13D-01
 TightC=F SS=  1.41D+00  RLast= 4.63D-01 DXNew= 5.0454D-01 1.3887D+00
 Trust test= 6.13D-01 RLast= 4.63D-01 DXMaxT set to 5.05D-01
 ITU=  1  0
 Use linear search instead of GDIIS.
     Eigenvalues ---    0.00654   0.03692   0.03810   0.03838   0.03844
     Eigenvalues ---    0.03850   0.03865   0.03875   0.03895   0.04292
     Eigenvalues ---    0.06484   0.08123   0.10676   0.10996   0.11759
     Eigenvalues ---    0.11966   0.12295   0.12742   0.13574   0.15088
     Eigenvalues ---    0.16000   0.16000   0.16000   0.16000   0.16000
     Eigenvalues ---    0.17936   0.19282   0.20346   0.20710   0.20839
     Eigenvalues ---    0.22055   0.40625   0.43673   0.44163   0.44560
     Eigenvalues ---    0.44685   0.44805   0.44965   0.45453   0.52626
     Eigenvalues ---    0.53019   0.53146   0.53358   0.53448   0.53503
     Eigenvalues ---    0.53622   0.538011000.000001000.000001000.00000
     Eigenvalues --- 1000.000001000.000001000.000001000.000001000.00000
     Eigenvalues --- 1000.000001000.000001000.000001000.000001000.00000
     Eigenvalues --- 1000.000001000.000001000.000001000.000001000.00000
     Eigenvalues --- 1000.000001000.000001000.000001000.000001000.00000
     Eigenvalues --- 1000.00000
 RFO step:  Lambda=-5.85042216D-03 EMin= 6.53919000D-03
 Quartic linear search produced a step of -0.18685.
 Iteration  1 RMS(Cart)=  0.19247247 RMS(Int)=  0.00931619
 Iteration  2 RMS(Cart)=  0.02470648 RMS(Int)=  0.00015636
 Iteration  3 RMS(Cart)=  0.00030860 RMS(Int)=  0.00010020
 Iteration  4 RMS(Cart)=  0.00000006 RMS(Int)=  0.00010020
 Iteration  1 RMS(Cart)=  0.00001522 RMS(Int)=  0.00000161
 Iteration  2 RMS(Cart)=  0.00000101 RMS(Int)=  0.00000165
 Iteration  3 RMS(Cart)=  0.00000007 RMS(Int)=  0.00000166
 Variable       Old X    -DE/DX   Delta X   Delta X   Delta X     New X
                                 (Linear)    (Quad)   (Total)
    R1        3.15094   0.00482  -0.00778   0.02467   0.01686   3.16779
    R2        3.11094   0.00131  -0.00397   0.01510   0.01113   3.12207
    R3        3.11357   0.00104  -0.00416   0.01524   0.01108   3.12464
    R4        3.09656  -0.00523  -0.00125  -0.00537  -0.00661   3.08994
    R5        7.74786   0.00944   0.00000   0.00000   0.00000   7.74786
    R6        3.49206   0.00435  -0.03887   0.10666   0.06775   3.55981
    R7        1.83132  -0.00303   0.00080  -0.00719  -0.00639   1.82493
    R8        1.82323  -0.00036   0.00150  -0.00535  -0.00385   1.81937
    R9        1.82555  -0.00107   0.00135  -0.00595  -0.00461   1.82095
   R10        1.83390   0.00074   0.00025   0.00031   0.00056   1.83446
   R11        3.12327  -0.00027  -0.00542   0.01691   0.01149   3.13476
   R12        3.11836   0.00031  -0.00431   0.01439   0.01008   3.12845
   R13        3.10919   0.00142  -0.00297   0.01210   0.00913   3.11832
   R14        3.13026  -0.00149  -0.00552   0.00595   0.00039   3.13066
   R15        1.82406  -0.00139   0.00150  -0.00693  -0.00543   1.81863
   R16        1.82253   0.00078   0.00203  -0.00535  -0.00332   1.81921
   R17        1.82357  -0.00090   0.00101  -0.00461  -0.00360   1.81997
   R18        1.86003  -0.00864  -0.00409  -0.00840  -0.01253   1.84750
    A1        1.84739  -0.00478   0.00988  -0.05254  -0.04261   1.80478
    A2        1.94599   0.00300  -0.00647   0.03255   0.02590   1.97189
    A3        1.88184   0.00274   0.00467   0.00097   0.00571   1.88755
    A4        1.90518  -0.00114   0.00090  -0.01394  -0.01288   1.89230
    A5        1.99242   0.00270  -0.01181   0.04885   0.03719   2.02960
    A6        1.89166  -0.00231   0.00271  -0.01423  -0.01159   1.88007
    A7        1.81730   0.00082   0.00600  -0.05999  -0.05387   1.76343
    A8        2.01369  -0.00351  -0.01013   0.04634   0.03641   2.05010
    A9        2.12087   0.00177  -0.00051   0.02759   0.02737   2.14823
   A10        2.01824   0.00249  -0.00477   0.02730   0.02252   2.04077
   A11        2.01410   0.00181  -0.00520   0.02531   0.02011   2.03421
   A12        2.01847  -0.00191  -0.00315   0.00052  -0.00264   2.01583
   A13        1.92502  -0.00096  -0.00155   0.00097  -0.00061   1.92441
   A14        1.88512  -0.00008   0.00449  -0.01605  -0.01159   1.87353
   A15        1.91360   0.00029  -0.00090   0.00355   0.00262   1.91622
   A16        1.89090   0.00040   0.00525  -0.01515  -0.00990   1.88100
   A17        1.94685   0.00122  -0.01071   0.03962   0.02892   1.97577
   A18        1.90103  -0.00091   0.00364  -0.01520  -0.01156   1.88947
   A19        2.01729   0.00191  -0.00809   0.03492   0.02683   2.04412
   A20        1.98474   0.00330  -0.00031   0.01723   0.01692   2.00166
   A21        2.02261   0.00450  -0.00695   0.04410   0.03716   2.05976
   A22        2.02773  -0.01538  -0.01192  -0.09412  -0.10613   1.92160
   A23        2.39676  -0.00303  -0.01622  -0.00863  -0.02496   2.37180
    D1       -1.49036  -0.00344   0.00414  -0.06182  -0.05764  -1.54800
    D2        0.87842  -0.00317   0.00046  -0.04037  -0.03999   0.83844
    D3        2.72313  -0.00080   0.00077  -0.03090  -0.02991   2.69322
    D4       -1.19128  -0.00053  -0.00291  -0.00944  -0.01225  -1.20353
    D5        0.64863  -0.00145  -0.00157  -0.03311  -0.03477   0.61386
    D6        3.01741  -0.00118  -0.00525  -0.01166  -0.01711   3.00030
    D7       -2.70466   0.00027   0.00250  -0.00741  -0.00528  -2.70994
    D8       -0.60807   0.00051   0.00101  -0.00601  -0.00467  -0.61274
    D9        1.51163  -0.00147  -0.00268  -0.00136  -0.00400   1.50763
   D10       -1.75108  -0.00289   0.00103  -0.02079  -0.01982  -1.77090
   D11        2.49730   0.00190  -0.00775   0.03301   0.02537   2.52267
   D12        0.31755   0.00080   0.00454  -0.00927  -0.00477   0.31278
   D13       -0.63393   0.00226  -0.01113   0.04605   0.03473  -0.59921
   D14        1.41324  -0.00025  -0.00300   0.01021   0.00733   1.42057
   D15       -2.74279  -0.00160  -0.00765   0.01459   0.00702  -2.73577
   D16       -1.10293  -0.00919  -0.04829  -0.10555  -0.15379  -1.25672
   D17        2.87164  -0.00648  -0.03921  -0.13532  -0.17449   2.69715
   D18        2.23638  -0.00031   0.00720  -0.02379  -0.01655   2.21982
   D19        0.17289  -0.00021  -0.00103   0.00349   0.00245   0.17533
   D20       -1.89635   0.00077  -0.00761   0.02913   0.02151  -1.87485
   D21        1.15162   0.00026  -0.00698   0.02321   0.01621   1.16783
   D22       -3.07162  -0.00015   0.00079  -0.00468  -0.00388  -3.07550
   D23       -0.97933  -0.00027   0.00198  -0.00910  -0.00711  -0.98644
   D24        3.00951  -0.00047   0.00056  -0.00643  -0.00590   3.00361
   D25        0.92430   0.00050  -0.00336   0.00997   0.00662   0.93092
   D26       -1.19644  -0.00068   0.00430  -0.01990  -0.01558  -1.21202
   D27       -1.00210  -0.00201  -0.00015  -0.03853  -0.03871  -1.04081
   D28        1.13542  -0.00221  -0.00941  -0.00811  -0.01747   1.11795
   D29       -3.06146  -0.00155  -0.00728  -0.01227  -0.01957  -3.08103
   D30       -0.95657  -0.01339  -0.00214  -0.00480  -0.00684  -0.96342
         Item               Value     Threshold  Converged?
 Maximum Force            0.016297     0.000450     NO 
 RMS     Force            0.003575     0.000300     NO 
 Maximum Displacement     0.460891     0.001800     NO 
 RMS     Displacement     0.209074     0.001200     NO 
 Predicted change in Energy=-3.427463D-03
 GradGradGradGradGradGradGradGradGradGradGradGradGradGradGradGradGradGrad

                          Input orientation:                          
 ---------------------------------------------------------------------
 Center     Atomic      Atomic             Coordinates (Angstroms)
 Number     Number       Type             X           Y           Z
 ---------------------------------------------------------------------
      1         14           0       -6.310933   -0.365274   -0.291494
      2          8           0       -4.660225   -0.416482   -0.004089
      3          8           0       -6.566857    1.192663   -0.778189
      4          8           0       -7.211665   -0.642919    1.067044
      5          8           0       -6.675298   -1.532279   -1.377303
      6          1           0       -5.997291   -1.702883   -2.050778
      7          1           0       -7.586601   -1.525456    1.162348
      8          1           0       -7.451222    1.550347   -0.648229
      9         14           0       -3.346023   -2.959224   -1.427573
     10          8           0       -1.785883   -2.590493   -1.001238
     11          8           0       -4.219418   -3.390568   -0.088987
     12          8           0       -3.285498   -4.266765   -2.432388
     13          8           0       -4.013457   -1.693491   -2.262448
     14          1           0       -4.011808   -0.887704   -1.708817
     15          1           0       -4.116697   -4.684224   -2.682132
     16          1           0       -1.082426   -3.043466   -1.476779
     17          1           0       -4.366048   -2.678502    0.542062
     18          1           0       -4.278458    0.293769    0.527321
 ---------------------------------------------------------------------
                    Distance matrix (angstroms):
                    1          2          3          4          5
     1  Si   0.000000
     2  O    1.676324   0.000000
     3  O    1.652130   2.612245   0.000000
     4  O    1.653490   2.776408   2.681421   0.000000
     5  O    1.635128   2.681648   2.792133   2.655839   0.000000
     6  H    2.232185   2.762519   3.213732   3.509849   0.970756
     7  H    2.255439   3.339772   3.491952   0.963604   2.698211
     8  H    2.257680   3.474621   0.962771   2.794631   3.261317
     9  Si   4.099993   3.196712   5.294680   5.150880   3.622536
    10  O    5.092291   3.739315   6.100798   6.124537   5.016734
    11  O    3.683456   3.007774   5.195332   4.223686   3.338314
    12  O    5.381294   4.755123   6.580961   6.386946   4.481224
    13  O    3.305635   2.673808   4.129499   4.734739   2.809781
    14  H    2.750948   1.883770   3.423780   4.243159   2.760354
    15  H    5.402143   5.067638   6.645756   6.321969   4.264243
    16  H    5.992904   4.676592   6.965041   7.056999   5.794290
    17  H    3.135031   2.345540   4.644625   3.537901   3.214097
    18  H    2.288176   0.965712   2.783727   3.126082   3.564672
                    6          7          8          9         10
     6  H    0.000000
     7  H    3.589089   0.000000
     8  H    3.829433   3.571706   0.000000
     9  Si   2.999333   5.171642   6.147866   0.000000
    10  O    4.430051   6.282017   7.026183   1.658843   0.000000
    11  O    3.139703   4.047518   5.930425   1.655502   2.719267
    12  O    3.751392   6.239903   7.373959   1.650146   2.665881
    13  O    1.995117   4.952255   4.994639   1.656673   2.712444
    14  H    2.173384   4.629196   4.347241   2.193984   2.890485
    15  H    3.581011   6.066141   7.357016   2.267925   3.555532
    16  H    5.126650   7.181479   7.896276   2.265698   0.962380
    17  H    3.214904   3.476526   5.368264   2.235780   3.007785
    18  H    3.686136   3.828400   3.609340   3.908069   4.107115
                   11         12         13         14         15
    11  O    0.000000
    12  O    2.670479   0.000000
    13  O    2.765217   2.679654   0.000000
    14  H    2.988524   3.531167   0.977652   0.000000
    15  H    2.899740   0.963087   3.021800   3.920703   0.000000
    16  H    3.447776   2.695027   3.321242   3.644507   3.654006
    17  H    0.962684   3.540836   2.993300   2.898085   3.805327
    18  H    3.735995   5.526692   3.435439   2.543087   5.925130
                   16         17         18
    16  H    0.000000
    17  H    3.871832   0.000000
    18  H    5.036683   2.973598   0.000000
 Stoichiometry    H8O8Si2
 Framework group  C1[X(H8O8Si2)]
 Deg. of freedom    48
 Full point group                 C1      NOp   1
 Largest Abelian subgroup         C1      NOp   1
 Largest concise Abelian subgroup C1      NOp   1
                         Standard orientation:                         
 ---------------------------------------------------------------------
 Center     Atomic      Atomic             Coordinates (Angstroms)
 Number     Number       Type             X           Y           Z
 ---------------------------------------------------------------------
      1         14           0       -2.056726   -0.021414   -0.027039
      2          8           0       -0.921739    0.997952    0.667769
      3          8           0       -3.090925    1.018562   -0.787575
      4          8           0       -2.914797   -0.888465    1.089190
      5          8           0       -1.266785   -1.086172   -0.984081
      6          1           0       -0.479507   -0.739498   -1.433946
      7          1           0       -2.650506   -1.806181    1.217566
      8          1           0       -3.989865    0.707934   -0.937063
      9         14           0        2.043042   -0.000672    0.010658
     10          8           0        2.806617    1.270871    0.753554
     11          8           0        1.307914   -0.965413    1.137401
     12          8           0        3.204016   -0.899949   -0.741952
     13          8           0        0.998598    0.568462   -1.142506
     14          1           0        0.329821    1.151401   -0.731746
     15          1           0        2.944042   -1.743738   -1.126620
     16          1           0        3.734974    1.409709    0.541299
     17          1           0        0.570148   -0.553964    1.599106
     18          1           0       -1.250711    1.756767    1.166343
 ---------------------------------------------------------------------
 Rotational constants (GHZ):           1.9544636           0.4740152           0.4671164
 Standard basis: 6-31+G(d,p) (6D, 7F)
 There are   238 symmetry adapted cartesian basis functions of A   symmetry.
 There are   238 symmetry adapted basis functions of A   symmetry.
   238 basis functions,   424 primitive gaussians,   238 cartesian basis functions
    50 alpha electrons       50 beta electrons
       nuclear repulsion energy       849.8610564917 Hartrees.
 NAtoms=   18 NActive=   18 NUniq=   18 SFac= 1.00D+00 NAtFMM=   60 NAOKFM=F Big=F
 Integral buffers will be    131072 words long.
 Raffenetti 2 integral format.
 Two-electron integral symmetry is turned on.
 Nuclear repulsion after empirical dispersion term =      849.8449989155 Hartrees.
 One-electron integrals computed using PRISM.
 NBasis=   238 RedAO= T EigKep=  2.69D-04  NBF=   238
 NBsUse=   238 1.00D-06 EigRej= -1.00D+00 NBFU=   238
 Initial guess from the checkpoint file:  "/localscratch/sarashs.36560087.0/Gau-133251.chk"
 B after Tr=    -0.000000   -0.000000   -0.000000
         Rot=    0.999862    0.015712   -0.004096    0.003497 Ang=   1.90 deg.
 ExpMin= 3.31D-02 ExpMax= 1.61D+04 ExpMxC= 2.43D+03 IAcc=3 IRadAn=         5 AccDes= 0.00D+00
 Harris functional with IExCor=  402 and IRadAn=       5 diagonalized for initial guess.
 HarFok:  IExCor=  402 AccDes= 0.00D+00 IRadAn=         5 IDoV= 1 UseB2=F ITyADJ=14
 ICtDFT=  3500011 ScaDFX=  1.000000  1.000000  1.000000  1.000000
 FoFCou: FMM=F IPFlag=           0 FMFlag=      100000 FMFlg1=           0
         NFxFlg=           0 DoJE=T BraDBF=F KetDBF=T FulRan=T
         wScrn=  0.000000 ICntrl=       500 IOpCl=  0 I1Cent=   200000004 NGrid=           0
         NMat0=    1 NMatS0=      1 NMatT0=    0 NMatD0=    1 NMtDS0=    0 NMtDT0=    0
 Petite list used in FoFCou.
 Requested convergence on RMS density matrix=1.00D-08 within 128 cycles.
 Requested convergence on MAX density matrix=1.00D-06.
 Requested convergence on             energy=1.00D-06.
 No special actions if energy rises.
 SCF Done:  E(RB3LYP) =  -1186.05823631     A.U. after   11 cycles
            NFock= 11  Conv=0.43D-08     -V/T= 2.0066
 Calling FoFJK, ICntrl=      2127 FMM=F ISym2X=0 I1Cent= 0 IOpClX= 0 NMat=1 NMatS=1 NMatT=0.
 ***** Axes restored to original set *****
 -------------------------------------------------------------------
 Center     Atomic                   Forces (Hartrees/Bohr)
 Number     Number              X              Y              Z
 -------------------------------------------------------------------
      1       14          -0.007261350    0.005307981    0.004064252
      2        8          -0.001847797   -0.000860845    0.003201047
      3        8           0.001226474   -0.002740933    0.002669743
      4        8           0.002129280    0.002035897   -0.003174493
      5        8          -0.001308361    0.003526743    0.002317612
      6        1           0.002504554   -0.002185606   -0.001297385
      7        1           0.000076924   -0.001113841   -0.000137301
      8        1          -0.001390407    0.000490837   -0.000453373
      9       14           0.011426234   -0.012847802   -0.000342848
     10        8          -0.005778866    0.000648470    0.000372935
     11        8           0.001902823    0.002267236   -0.005072258
     12        8          -0.000764629    0.002329460    0.000869237
     13        8          -0.002196192    0.003766020    0.000566464
     14        1           0.003280500   -0.002935731   -0.004057639
     15        1           0.000255227   -0.000594986    0.000082651
     16        1           0.000165197   -0.000453733   -0.000933752
     17        1          -0.000840724    0.002389542    0.002163546
     18        1          -0.001578886    0.000971292   -0.000838437
 -------------------------------------------------------------------
 Cartesian Forces:  Max     0.012847802 RMS     0.003403468

 GradGradGradGradGradGradGradGradGradGradGradGradGradGradGradGradGradGrad
 Berny optimization.
 Using GEDIIS/GDIIS optimizer.
 FormGI is forming the generalized inverse of G from B-inverse, IUseBI=4.
 Internal  Forces:  Max     0.006118085 RMS     0.001925744
 Search for a local minimum.
 Step number   3 out of a maximum of   81
 All quantities printed in internal units (Hartrees-Bohrs-Radians)
 Mixed Optimization -- RFO/linear search
 Update second derivatives using D2CorX and points    1    2    3
 DE= -3.28D-03 DEPred=-3.43D-03 R= 9.56D-01
 TightC=F SS=  1.41D+00  RLast= 3.15D-01 DXNew= 8.4853D-01 9.4381D-01
 Trust test= 9.56D-01 RLast= 3.15D-01 DXMaxT set to 8.49D-01
 ITU=  1  1  0
 Use linear search instead of GDIIS.
     Eigenvalues ---    0.00680   0.03284   0.03786   0.03838   0.03844
     Eigenvalues ---    0.03850   0.03866   0.03875   0.03903   0.04330
     Eigenvalues ---    0.05463   0.09367   0.10716   0.11243   0.11780
     Eigenvalues ---    0.11889   0.12982   0.13311   0.13349   0.15095
     Eigenvalues ---    0.16000   0.16000   0.16000   0.16000   0.16248
     Eigenvalues ---    0.17407   0.19266   0.20699   0.20886   0.21583
     Eigenvalues ---    0.21985   0.40601   0.44015   0.44555   0.44667
     Eigenvalues ---    0.44785   0.44956   0.45144   0.47243   0.52424
     Eigenvalues ---    0.52971   0.53237   0.53367   0.53446   0.53544
     Eigenvalues ---    0.53796   0.544211000.000001000.000001000.00000
     Eigenvalues --- 1000.000001000.000001000.000001000.000001000.00000
     Eigenvalues --- 1000.000001000.000001000.000001000.000001000.00000
     Eigenvalues --- 1000.000001000.000001000.000001000.000001000.00000
     Eigenvalues --- 1000.000001000.000001000.000001000.000001000.00000
     Eigenvalues --- 1000.00000
 RFO step:  Lambda=-1.41009447D-03 EMin= 6.79918583D-03
 Quartic linear search produced a step of -0.01193.
 Iteration  1 RMS(Cart)=  0.05250692 RMS(Int)=  0.00075987
 Iteration  2 RMS(Cart)=  0.00118024 RMS(Int)=  0.00007233
 Iteration  3 RMS(Cart)=  0.00000068 RMS(Int)=  0.00007233
 Iteration  1 RMS(Cart)=  0.00004040 RMS(Int)=  0.00000423
 Iteration  2 RMS(Cart)=  0.00000265 RMS(Int)=  0.00000436
 Iteration  3 RMS(Cart)=  0.00000017 RMS(Int)=  0.00000438
 Variable       Old X    -DE/DX   Delta X   Delta X   Delta X     New X
                                 (Linear)    (Quad)   (Total)
    R1        3.16779  -0.00074  -0.00020   0.00317   0.00287   3.17066
    R2        3.12207  -0.00275  -0.00013  -0.00286  -0.00299   3.11908
    R3        3.12464  -0.00408  -0.00013  -0.00575  -0.00589   3.11876
    R4        3.08994  -0.00190   0.00008  -0.00563  -0.00555   3.08439
    R5        7.74786   0.00612  -0.00000   0.00000   0.00000   7.74786
    R6        3.55981   0.00564  -0.00081   0.09906   0.09815   3.65796
    R7        1.82493  -0.00037   0.00008  -0.00232  -0.00225   1.82268
    R8        1.81937   0.00140   0.00005   0.00146   0.00151   1.82088
    R9        1.82095   0.00098   0.00005   0.00053   0.00059   1.82153
   R10        1.83446   0.00303  -0.00001   0.00567   0.00566   1.84012
   R11        3.13476  -0.00538  -0.00014  -0.00843  -0.00857   3.12619
   R12        3.12845  -0.00413  -0.00012  -0.00616  -0.00628   3.12217
   R13        3.11832  -0.00197  -0.00011  -0.00179  -0.00190   3.11642
   R14        3.13066   0.00202  -0.00000   0.00505   0.00495   3.13561
   R15        1.81863   0.00079   0.00006  -0.00002   0.00005   1.81868
   R16        1.81921   0.00331   0.00004   0.00505   0.00509   1.82430
   R17        1.81997   0.00001   0.00004  -0.00094  -0.00090   1.81907
   R18        1.84750  -0.00080   0.00015  -0.00419  -0.00414   1.84336
    A1        1.80478   0.00035   0.00051  -0.00963  -0.00909   1.79568
    A2        1.97189   0.00081  -0.00031   0.01019   0.00987   1.98176
    A3        1.88755  -0.00142  -0.00007  -0.00620  -0.00624   1.88131
    A4        1.89230  -0.00098   0.00015  -0.00763  -0.00746   1.88484
    A5        2.02960   0.00109  -0.00044   0.01662   0.01617   2.04577
    A6        1.88007   0.00021   0.00014  -0.00250  -0.00235   1.87772
    A7        1.76343   0.00284   0.00064   0.00274   0.00321   1.76663
    A8        2.05010  -0.00260  -0.00043  -0.00858  -0.00889   2.04120
    A9        2.14823  -0.00025  -0.00033   0.00570   0.00544   2.15367
   A10        2.04077   0.00036  -0.00027   0.00815   0.00788   2.04865
   A11        2.03421  -0.00082  -0.00024   0.00042   0.00018   2.03440
   A12        2.01583   0.00113   0.00003   0.00647   0.00650   2.02233
   A13        1.92441   0.00024   0.00001  -0.00207  -0.00221   1.92219
   A14        1.87353   0.00049   0.00014   0.00666   0.00678   1.88032
   A15        1.91622  -0.00018  -0.00003  -0.00460  -0.00475   1.91147
   A16        1.88100   0.00220   0.00012   0.01210   0.01224   1.89324
   A17        1.97577  -0.00411  -0.00035  -0.01821  -0.01863   1.95715
   A18        1.88947   0.00166   0.00014   0.00798   0.00817   1.89764
   A19        2.04412  -0.00112  -0.00032   0.00056   0.00024   2.04436
   A20        2.00166   0.00037  -0.00020   0.00644   0.00624   2.00790
   A21        2.05976   0.00087  -0.00044   0.01501   0.01457   2.07433
   A22        1.92160  -0.00165   0.00127  -0.03471  -0.03367   1.88793
   A23        2.37180  -0.00079   0.00030  -0.00754  -0.00751   2.36429
    D1       -1.54800  -0.00094   0.00069  -0.02624  -0.02559  -1.57358
    D2        0.83844  -0.00073   0.00048  -0.02278  -0.02232   0.81612
    D3        2.69322  -0.00037   0.00036  -0.01634  -0.01599   2.67724
    D4       -1.20353  -0.00017   0.00015  -0.01287  -0.01272  -1.21625
    D5        0.61386  -0.00019   0.00041  -0.01531  -0.01488   0.59898
    D6        3.00030   0.00002   0.00020  -0.01184  -0.01162   2.98868
    D7       -2.70994  -0.00087   0.00006  -0.01213  -0.01212  -2.72205
    D8       -0.61274  -0.00020   0.00006  -0.00901  -0.00892  -0.62166
    D9        1.50763   0.00006   0.00005  -0.00675  -0.00669   1.50094
   D10       -1.77090   0.00065   0.00024   0.00193   0.00216  -1.76874
   D11        2.52267   0.00037  -0.00030   0.01271   0.01241   2.53508
   D12        0.31278  -0.00048   0.00006  -0.00128  -0.00121   0.31157
   D13       -0.59921   0.00104  -0.00041   0.03311   0.03272  -0.56649
   D14        1.42057   0.00114  -0.00009   0.02653   0.02642   1.44699
   D15       -2.73577   0.00076  -0.00008   0.02596   0.02588  -2.70989
   D16       -1.25672  -0.00023   0.00183   0.04988   0.05186  -1.20487
   D17        2.69715   0.00079   0.00208   0.05462   0.05679   2.75394
   D18        2.21982   0.00292   0.00020   0.01971   0.01990   2.23973
   D19        0.17533  -0.00013  -0.00003   0.00254   0.00251   0.17784
   D20       -1.87485  -0.00230  -0.00026  -0.00828  -0.00853  -1.88337
   D21        1.16783  -0.00153  -0.00019  -0.00727  -0.00742   1.16041
   D22       -3.07550   0.00047   0.00005   0.00655   0.00664  -3.06886
   D23       -0.98644   0.00151   0.00008   0.01353   0.01353  -0.97291
   D24        3.00361   0.00002   0.00007  -0.00533  -0.00525   2.99837
   D25        0.93092  -0.00170  -0.00008  -0.01291  -0.01299   0.91793
   D26       -1.21202   0.00097   0.00019  -0.00288  -0.00270  -1.21472
   D27       -1.04081   0.00071   0.00046  -0.01287  -0.01248  -1.05329
   D28        1.11795  -0.00207   0.00021  -0.03213  -0.03184   1.08612
   D29       -3.08103  -0.00073   0.00023  -0.02287  -0.02265  -3.10368
   D30       -0.96342  -0.00055   0.00008  -0.04056  -0.04020  -1.00362
         Item               Value     Threshold  Converged?
 Maximum Force            0.005379     0.000450     NO 
 RMS     Force            0.001786     0.000300     NO 
 Maximum Displacement     0.218579     0.001800     NO 
 RMS     Displacement     0.052463     0.001200     NO 
 Predicted change in Energy=-7.244928D-04
 GradGradGradGradGradGradGradGradGradGradGradGradGradGradGradGradGradGrad

                          Input orientation:                          
 ---------------------------------------------------------------------
 Center     Atomic      Atomic             Coordinates (Angstroms)
 Number     Number       Type             X           Y           Z
 ---------------------------------------------------------------------
      1         14           0       -6.316176   -0.376859   -0.288467
      2          8           0       -4.667220   -0.423705    0.017960
      3          8           0       -6.564055    1.194171   -0.729740
      4          8           0       -7.243004   -0.685051    1.041851
      5          8           0       -6.649908   -1.525621   -1.398879
      6          1           0       -5.949374   -1.701578   -2.051936
      7          1           0       -7.614644   -1.571649    1.112269
      8          1           0       -7.451058    1.552314   -0.613862
      9         14           0       -3.342631   -2.955189   -1.437462
     10          8           0       -1.777381   -2.599284   -1.037379
     11          8           0       -4.212224   -3.303941   -0.076624
     12          8           0       -3.322877   -4.292652   -2.402070
     13          8           0       -3.997513   -1.692151   -2.291348
     14          1           0       -3.973371   -0.897696   -1.725851
     15          1           0       -4.158361   -4.711694   -2.632262
     16          1           0       -1.085240   -3.076136   -1.506182
     17          1           0       -4.337976   -2.562835    0.529102
     18          1           0       -4.302795    0.286610    0.559210
[...]
 ---------------------------------------------------------------------
 Center     Atomic      Atomic             Coordinates (Angstroms)
 Number     Number       Type             X           Y           Z
 ---------------------------------------------------------------------
      1         14           0       -6.466410   -0.586049   -0.385111
      2          8           0       -5.054191   -0.263755    0.438713
      3          8           0       -7.208546    0.871546   -0.557023
      4          8           0       -7.517881   -1.563996    0.418827
      5          8           0       -6.026722   -1.355732   -1.768017
      6          1           0       -5.165725   -1.127189   -2.174251
      7          1           0       -7.331973   -2.509623    0.445760
      8          1           0       -8.163795    0.868399   -0.686565
      9         14           0       -3.119578   -2.810535   -1.197713
     10          8           0       -1.771669   -3.709166   -1.462797
     11          8           0       -2.892479   -2.101583    0.259235
     12          8           0       -4.452961   -3.768674   -1.343541
     13          8           0       -3.356204   -1.614478   -2.364434
     14          1           0       -2.663021   -0.945713   -2.424054
     15          1           0       -5.255810   -3.306098   -1.628941
     16          1           0       -1.867674   -4.446948   -2.075014
     17          1           0       -3.553227   -1.422508    0.485320
     18          1           0       -5.097944    0.449150    1.087936
 ---------------------------------------------------------------------
                    Distance matrix (angstroms):
                    1          2          3          4          5
     1  Si   0.000000
     2  O    1.666411   0.000000
     3  O    1.644659   2.630902   0.000000
     4  O    1.645688   2.785820   2.641938   0.000000
     5  O    1.642609   2.647242   2.797138   2.655035   0.000000
     6  H    2.277199   2.754186   3.283822   3.528100   0.979068
     7  H    2.267087   3.198792   3.528897   0.964104   2.817082
     8  H    2.255528   3.495377   0.963997   2.748753   3.268543
     9  Si   4.099993   3.592590   5.539662   4.848930   3.300483
    10  O    5.740719   5.124602   7.166797   6.415700   4.872093
    11  O    3.935100   2.843030   5.304169   4.659271   3.806511
    12  O    3.886086   3.977733   5.453760   4.166566   2.911905
    13  O    3.827371   3.544749   4.928244   5.006860   2.748515
    14  H    4.330406   3.791859   5.239278   5.659851   3.451519
    15  H    3.226660   3.683978   4.734437   3.513579   2.101803
    16  H    6.237843   5.828535   7.688666   6.815826   5.191103
    17  H    3.153403   1.896780   4.439653   3.967735   3.346665
    18  H    2.261461   0.965214   2.709050   3.218161   3.503812
                    6          7          8          9         10
     6  H    0.000000
     7  H    3.669906   0.000000
     8  H    3.896665   3.658568   0.000000
     9  Si   2.823827   4.531647   6.264180   0.000000
    10  O    4.323469   5.999873   7.900374   1.641544   0.000000
    11  O    3.469718   4.462107   6.123896   1.636118   2.608818
    12  O    2.859293   3.616008   5.975311   1.648395   2.684602
    13  O    1.883610   4.950275   5.665055   1.687537   2.776944
    14  H    2.521678   5.699190   6.047179   2.278139   3.058627
    15  H    2.247915   3.041252   5.174058   2.234955   3.511311
    16  H    4.680576   6.321874   8.355946   2.239368   0.963509
    17  H    3.124209   3.932214   5.280048   2.224246   3.492551
    18  H    3.623714   3.762661   3.567081   4.445635   5.904400
                   11         12         13         14         15
    11  O    0.000000
    12  O    2.789836   0.000000
    13  O    2.708496   2.624054   0.000000
    14  H    2.930653   3.512905   0.965040   0.000000
    15  H    3.255978   0.969534   2.647835   3.595299   0.000000
    16  H    3.464056   2.771068   3.212845   3.607361   3.602774
    17  H    0.974087   3.107853   2.863000   3.079653   3.304058
    18  H    3.472328   4.911020   4.383045   4.495394   4.637697
                   16         17         18
    16  H    0.000000
    17  H    4.306233   0.000000
    18  H    6.664134   2.500480   0.000000
 Stoichiometry    H8O8Si2
 Framework group  C1[X(H8O8Si2)]
 Deg. of freedom    48
 Full point group                 C1      NOp   1
 Largest Abelian subgroup         C1      NOp   1
 Largest concise Abelian subgroup C1      NOp   1
                         Standard orientation:                         
 ---------------------------------------------------------------------
 Center     Atomic      Atomic             Coordinates (Angstroms)
 Number     Number       Type             X           Y           Z
 ---------------------------------------------------------------------
      1         14           0       -2.040191   -0.023960   -0.010724
      2          8           0       -1.243465    1.321539    0.565282
      3          8           0       -3.397744    0.555416   -0.736171
      4          8           0       -2.534684   -1.075614    1.154518
      5          8           0       -0.970563   -0.814176   -0.974891
      6          1           0       -0.308677   -0.286011   -1.466342
      7          1           0       -1.876032   -1.652993    1.557393
      8          1           0       -4.144422   -0.048161   -0.822533
      9         14           0        2.059319    0.007642    0.043745
     10          8           0        3.698601    0.039967    0.123579
     11          8           0        1.548542    1.167228    1.078807
     12          8           0        1.527393   -1.523661    0.342698
     13          8           0        1.466321    0.343460   -1.500068
     14          1           0        1.679053    1.217899   -1.848501
     15          1           0        0.684883   -1.750371   -0.080118
     16          1           0        4.151568   -0.770923   -0.132601
     17          1           0        0.594967    1.360125    1.030526
     18          1           0       -1.804340    2.045623    0.869847
 ---------------------------------------------------------------------
 Rotational constants (GHZ):           1.9850686           0.4794482           0.4708024

 **********************************************************************

            Population analysis using the SCF Density.

 **********************************************************************

 Orbital symmetries:
       Occupied  (A) (A) (A) (A) (A) (A) (A) (A) (A) (A) (A) (A)
                 (A) (A) (A) (A) (A) (A) (A) (A) (A) (A) (A) (A)
                 (A) (A) (A) (A) (A) (A) (A) (A) (A) (A) (A) (A)
                 (A) (A) (A) (A) (A) (A) (A) (A) (A) (A) (A) (A)
                 (A) (A)
       Virtual   (A) (A) (A) (A) (A) (A) (A) (A) (A) (A) (A) (A)
                 (A) (A) (A) (A) (A) (A) (A) (A) (A) (A) (A) (A)
                 (A) (A) (A) (A) (A) (A) (A) (A) (A) (A) (A) (A)
                 (A) (A) (A) (A) (A) (A) (A) (A) (A) (A) (A) (A)
                 (A) (A) (A) (A) (A) (A) (A) (A) (A) (A) (A) (A)
                 (A) (A) (A) (A) (A) (A) (A) (A) (A) (A) (A) (A)
                 (A) (A) (A) (A) (A) (A) (A) (A) (A) (A) (A) (A)
                 (A) (A) (A) (A) (A) (A) (A) (A) (A) (A) (A) (A)
                 (A) (A) (A) (A) (A) (A) (A) (A) (A) (A) (A) (A)
                 (A) (A) (A) (A) (A) (A) (A) (A) (A) (A) (A) (A)
                 (A) (A) (A) (A) (A) (A) (A) (A) (A) (A) (A) (A)
                 (A) (A) (A) (A) (A) (A) (A) (A) (A) (A) (A) (A)
                 (A) (A) (A) (A) (A) (A) (A) (A) (A) (A) (A) (A)
                 (A) (A) (A) (A) (A) (A) (A) (A) (A) (A) (A) (A)
                 (A) (A) (A) (A) (A) (A) (A) (A) (A) (A) (A) (A)
                 (A) (A) (A) (A) (A) (A) (A) (A)
 The electronic state is 1-A.
 Alpha  occ. eigenvalues --  -66.23872 -66.21842 -19.19534 -19.18332 -19.18268
 Alpha  occ. eigenvalues --  -19.18090 -19.17904 -19.16627 -19.16136 -19.15208
 Alpha  occ. eigenvalues --   -5.37198  -5.35193  -3.73208  -3.73167  -3.73150
 Alpha  occ. eigenvalues --   -3.71224  -3.71185  -3.71095  -1.06422  -1.04542
 Alpha  occ. eigenvalues --   -1.03063  -1.02289  -1.01934  -1.01165  -1.00247
 Alpha  occ. eigenvalues --   -0.99588  -0.61570  -0.59445  -0.55935  -0.55355
 Alpha  occ. eigenvalues --   -0.54890  -0.53737  -0.52652  -0.49800  -0.43052
 Alpha  occ. eigenvalues --   -0.42321  -0.41626  -0.40248  -0.39680  -0.39221
 Alpha  occ. eigenvalues --   -0.38425  -0.37674  -0.37007  -0.36629  -0.35584
 Alpha  occ. eigenvalues --   -0.34679  -0.34503  -0.33963  -0.32943  -0.31432
 Alpha virt. eigenvalues --   -0.03786  -0.01066   0.00261   0.00986   0.01961
 Alpha virt. eigenvalues --    0.03856   0.05079   0.06518   0.08391   0.10072
 Alpha virt. eigenvalues --    0.10849   0.11059   0.11600   0.12671   0.12784
 Alpha virt. eigenvalues --    0.13394   0.14476   0.14853   0.15041   0.15803
 Alpha virt. eigenvalues --    0.16208   0.16756   0.17033   0.17171   0.18240
 Alpha virt. eigenvalues --    0.18747   0.19474   0.19845   0.20225   0.21098
 Alpha virt. eigenvalues --    0.21572   0.22551   0.23131   0.23673   0.24451
 Alpha virt. eigenvalues --    0.24927   0.25470   0.25648   0.26694   0.27433
 Alpha virt. eigenvalues --    0.27717   0.28284   0.29153   0.30093   0.30250
 Alpha virt. eigenvalues --    0.31969   0.33078   0.33384   0.36583   0.37687
 Alpha virt. eigenvalues --    0.38219   0.39351   0.40540   0.41118   0.42787
 Alpha virt. eigenvalues --    0.44202   0.45789   0.46279   0.48069   0.49559
 Alpha virt. eigenvalues --    0.51134   0.57301   0.60714   0.61320   0.62852
 Alpha virt. eigenvalues --    0.64672   0.67809   0.71755   0.92147   0.93068
 Alpha virt. eigenvalues --    0.94124   0.95128   0.95698   0.97259   0.98349
 Alpha virt. eigenvalues --    1.00035   1.00924   1.02493   1.05163   1.09957
 Alpha virt. eigenvalues --    1.12101   1.13496   1.15138   1.16443   1.16977
 Alpha virt. eigenvalues --    1.17120   1.17970   1.18547   1.19638   1.20626
 Alpha virt. eigenvalues --    1.20800   1.21768   1.22558   1.22997   1.23651
 Alpha virt. eigenvalues --    1.24853   1.25850   1.26925   1.28135   1.28597
 Alpha virt. eigenvalues --    1.29523   1.31470   1.32545   1.35684   1.36003
 Alpha virt. eigenvalues --    1.37231   1.48773   1.49412   1.51673   1.53104
 Alpha virt. eigenvalues --    1.55410   1.56802   1.58890   1.59118   1.60544
 Alpha virt. eigenvalues --    1.61450   1.61866   1.64137   1.65232   1.68653
 Alpha virt. eigenvalues --    1.69772   1.70154   1.73479   1.74513   1.74994
 Alpha virt. eigenvalues --    1.75873   1.78791   1.81760   1.85105   1.87703
 Alpha virt. eigenvalues --    1.90846   1.93041   1.94311   1.97199   2.02470
 Alpha virt. eigenvalues --    2.03624   2.10851   2.14918   2.34455   2.35232
 Alpha virt. eigenvalues --    2.36857   2.38532   2.39205   2.40094   2.41197
 Alpha virt. eigenvalues --    2.44144   2.45775   2.50345   2.56959   2.58245
 Alpha virt. eigenvalues --    2.59560   2.59739   2.60758   2.61664   2.62430
 Alpha virt. eigenvalues --    2.63512   2.63902   2.64369   2.65214   2.67060
 Alpha virt. eigenvalues --    2.68119   2.70703   2.72916   2.75104   2.77965
 Alpha virt. eigenvalues --    2.78849   2.80113   2.81611   2.82592   2.87003
 Alpha virt. eigenvalues --    2.99251   3.03070   3.40860   3.42263   3.43594
 Alpha virt. eigenvalues --    3.45022   3.46837   3.52629   3.55779   3.61853
 Alpha virt. eigenvalues --    4.13388   4.17419   4.19772   4.25508   4.28897
 Alpha virt. eigenvalues --    4.30563   4.33335   4.39314
          Condensed to atoms (all electrons):
               1          2          3          4          5          6
     1  Si  11.759725  -0.094839   0.002279   0.100493   0.056070   0.018219
     2  O   -0.094839   8.733770   0.077870   0.021338   0.059365   0.003041
     3  O    0.002279   0.077870   8.532912   0.010654   0.016328  -0.007120
     4  O    0.100493   0.021338   0.010654   8.450161   0.045589   0.004215
     5  O    0.056070   0.059365   0.016328   0.045589   8.503433   0.265134
     6  H    0.018219   0.003041  -0.007120   0.004215   0.265134   0.283166
     7  H    0.030244  -0.005684   0.008010   0.238829  -0.001211  -0.000034
     8  H    0.031750   0.004059   0.238267  -0.001999  -0.006200   0.000030
     9  Si   0.040270   0.008026  -0.002722  -0.004937   0.001833  -0.000344
    10  O    0.002027  -0.001848  -0.000045   0.000053   0.000286  -0.000141
    11  O   -0.027988  -0.008837   0.000275   0.000780  -0.017549   0.001798
    12  O   -0.024043  -0.000131   0.000686   0.002182   0.025801  -0.007055
    13  O   -0.013491  -0.003577  -0.000342   0.000884  -0.018992   0.013669
    14  H   -0.000248  -0.001243   0.000005   0.000008   0.002324  -0.002077
    15  H    0.008098  -0.002157   0.000070  -0.000551   0.014974  -0.003970
    16  H    0.000045   0.000007   0.000000  -0.000000   0.000003  -0.000002
    17  H    0.011286   0.003427   0.000159   0.000600  -0.003236  -0.000182
    18  H    0.023438   0.230905   0.000056  -0.006508   0.007225  -0.000009
               7          8          9         10         11         12
     1  Si   0.030244   0.031750   0.040270   0.002027  -0.027988  -0.024043
     2  O   -0.005684   0.004059   0.008026  -0.001848  -0.008837  -0.000131
     3  O    0.008010   0.238267  -0.002722  -0.000045   0.000275   0.000686
     4  O    0.238829  -0.001999  -0.004937   0.000053   0.000780   0.002182
     5  O   -0.001211  -0.006200   0.001833   0.000286  -0.017549   0.025801
     6  H   -0.000034   0.000030  -0.000344  -0.000141   0.001798  -0.007055
     7  H    0.356508   0.000036  -0.000790  -0.000013   0.000011   0.000274
     8  H    0.000036   0.353644   0.000068   0.000000   0.000001  -0.000007
     9  Si  -0.000790   0.000068  11.559039   0.057316   0.109483   0.061286
    10  O   -0.000013   0.000000   0.057316   8.550835   0.055115  -0.033356
    11  O    0.000011   0.000001   0.109483   0.055115   8.490845   0.002941
    12  O    0.000274  -0.000007   0.061286  -0.033356   0.002941   8.550904
    13  O    0.000073  -0.000017   0.045703  -0.040480   0.021994   0.123042
    14  H   -0.000000  -0.000000   0.021864  -0.005819  -0.006804   0.005660
    15  H   -0.000033  -0.000001   0.027334   0.005226  -0.003039   0.222953
    16  H    0.000000  -0.000000   0.036554   0.231535   0.003980  -0.002910
    17  H    0.000046  -0.000001   0.032966   0.003799   0.218120  -0.003982
    18  H    0.000075   0.000051  -0.001280  -0.000023   0.001132  -0.000077
              13         14         15         16         17         18
     1  Si  -0.013491  -0.000248   0.008098   0.000045   0.011286   0.023438
     2  O   -0.003577  -0.001243  -0.002157   0.000007   0.003427   0.230905
     3  O   -0.000342   0.000005   0.000070   0.000000   0.000159   0.000056
     4  O    0.000884   0.000008  -0.000551  -0.000000   0.000600  -0.006508
     5  O   -0.018992   0.002324   0.014974   0.000003  -0.003236   0.007225
     6  H    0.013669  -0.002077  -0.003970  -0.000002  -0.000182  -0.000009
     7  H    0.000073  -0.000000  -0.000033   0.000000   0.000046   0.000075
     8  H   -0.000017  -0.000000  -0.000001  -0.000000  -0.000001   0.000051
     9  Si   0.045703   0.021864   0.027334   0.036554   0.032966  -0.001280
    10  O   -0.040480  -0.005819   0.005226   0.231535   0.003799  -0.000023
    11  O    0.021994  -0.006804  -0.003039   0.003980   0.218120   0.001132
    12  O    0.123042   0.005660   0.222953  -0.002910  -0.003982  -0.000077
    13  O    8.602828   0.258284  -0.005510  -0.005275  -0.006727   0.000420
    14  H    0.258284   0.344196   0.000038   0.000062   0.000151  -0.000007
    15  H   -0.005510   0.000038   0.326554   0.000077   0.000229  -0.000013
    16  H   -0.005275   0.000062   0.000077   0.365561  -0.000069   0.000000
    17  H   -0.006727   0.000151   0.000229  -0.000069   0.312749   0.000312
    18  H    0.000420  -0.000007  -0.000013   0.000000   0.000312   0.331869
 Mulliken charges:
               1
     1  Si   2.076667
     2  O   -1.023492
     3  O   -0.877341
     4  O   -0.861791
     5  O   -0.951178
     6  H    0.431662
     7  H    0.373660
     8  H    0.380319
     9  Si   2.008330
    10  O   -0.824467
    11  O   -0.842257
    12  O   -0.924167
    13  O   -0.972487
    14  H    0.383604
    15  H    0.409723
    16  H    0.370430
    17  H    0.430353
    18  H    0.412433
 Sum of Mulliken charges =  -0.00000
 Mulliken charges with hydrogens summed into heavy atoms:
               1
     1  Si   2.076667
     2  O   -0.611059
     3  O   -0.497022
     4  O   -0.488132
     5  O   -0.519516
     9  Si   2.008330
    10  O   -0.454037
    11  O   -0.411904
    12  O   -0.514445
    13  O   -0.588883
 Electronic spatial extent (au):  <R**2>=           2407.7576
 Charge=             -0.0000 electrons
 Dipole moment (field-independent basis, Debye):
    X=             -2.3377    Y=              0.1511    Z=             -1.4479  Tot=              2.7539
 Quadrupole moment (field-independent basis, Debye-Ang):
   XX=            -69.8616   YY=            -68.4215   ZZ=            -73.1848
   XY=             -3.7568   XZ=             -6.6848   YZ=             -2.3490
 Traceless Quadrupole moment (field-independent basis, Debye-Ang):
   XX=              0.6277   YY=              2.0678   ZZ=             -2.6955
   XY=             -3.7568   XZ=             -6.6848   YZ=             -2.3490
 Octapole moment (field-independent basis, Debye-Ang**2):
  XXX=            -22.7723  YYY=             10.8251  ZZZ=             -3.2768  XYY=             -7.1838
  XXY=            -26.9349  XXZ=            -27.4461  XZZ=             -2.4335  YZZ=              3.7701
  YYZ=              2.0429  XYZ=            -14.0272
 Hexadecapole moment (field-independent basis, Debye-Ang**3):
 XXXX=          -1936.9526 YYYY=           -349.3780 ZZZZ=           -335.9235 XXXY=            -86.9896
 XXXZ=              9.9323 YYYX=             -9.4061 YYYZ=             -3.0684 ZZZX=            -16.1750
 ZZZY=            -23.0733 XXYY=           -421.0259 XXZZ=           -437.2428 YYZZ=           -102.9201
 XXYZ=             24.2497 YYXZ=            -42.9792 ZZXY=              6.6284
 N-N= 8.504159716472D+02 E-N=-4.510308597689D+03  KE= 1.178229824053D+03
 1\1\GINC-GRA1301\FOpt\RB3LYP\6-31+G(d,p)\H8O8Si2\SARASHS\29-Jul-2020\0
 \\#n B3LYP/6-31+G(d,p) EmpiricalDispersion=GD3 Opt=modredundant\\Title
 \\0,1\Si,-6.4664102105,-0.5860488486,-0.385111455\O,-5.0541907916,-0.2
 637547275,0.4387132616\O,-7.208545899,0.8715460666,-0.5570230576\O,-7.
 5178806482,-1.5639962383,0.4188268014\O,-6.0267223085,-1.3557317667,-1
 .768016662\H,-5.1657250397,-1.1271889737,-2.1742511408\H,-7.3319733276
 ,-2.5096232901,0.4457597812\H,-8.1637945519,0.868399074,-0.6865654445\
 Si,-3.1195780029,-2.8105345963,-1.1977130494\O,-1.7716691248,-3.709165
 8596,-1.4627969586\O,-2.8924791376,-2.1015827706,0.2592347637\O,-4.452
 9610563,-3.7686737647,-1.3435405954\O,-3.3562035402,-1.6144776956,-2.3
 644337702\H,-2.6630212651,-0.9457127992,-2.4240544834\H,-5.2558095544,
 -3.3060981218,-1.6289408384\H,-1.8676743085,-4.4469481744,-2.075013873
 2\H,-3.5532271845,-1.4225077897,0.4853204721\H,-5.0979440485,0.4491502
 763,1.0879362486\\Version=ES64L-G16RevB.01\State=1-A\HF=-1186.0697831\
 RMSD=2.843e-09\RMSF=3.019e-04\Dipole=-0.6942131,0.7744664,-0.3035853\Q
 uadrupole=-1.4908274,1.7163246,-0.2254972,1.6497876,-4.7827817,3.26260
 29\PG=C01 [X(H8O8Si2)]\\@


 TERRY FORSTER, PORTLY ATLANTA BRAVES RELIEVER,
 ANNOUNCING THAT HE WAS GOING TO A FAT FARM:
 "A WAIST IS A TERRIBLE THING TO MIND."
 Job cpu time:       0 days  3 hours 40 minutes 20.0 seconds.
 Elapsed time:       0 days  0 hours 14 minutes 41.0 seconds.
 File lengths (MBytes):  RWF=     40 Int=      0 D2E=      0 Chk=      5 Scr=      1
 Normal termination of Gaussian 16 at Wed Jul 29 17:27:09 2020.
