 Entering Gaussian System, Link 0=g16
 Initial command:
 /opt/software/gaussian/g16.b01/l1.exe "/localscratch/sarashs.36560088.0/Gau-146851.inp" -scrdir="/localscratch/sarashs.36560088.0/"
 Entering Link 1 = /opt/software/gaussian/g16.b01/l1.exe PID=    146852.
  
 Copyright (c) 1988-2017, Gaussian, Inc.  All Rights Reserved.
  
 This is part of the Gaussian(R) 16 program.  It is based on
 the Gaussian(R) 09 system (copyright 2009, Gaussian, Inc.),
 the Gaussian(R) 03 system (copyright 2003, Gaussian, Inc.),
 the Gaussian(R) 98 system (copyright 1998, Gaussian, Inc.),
 the Gaussian(R) 94 system (copyright 1995, Gaussian, Inc.),
 the Gaussian 92(TM) system (copyright 1992, Gaussian, Inc.),
 the Gaussian 90(TM) system (copyright 1990, Gaussian, Inc.),
 the Gaussian 88(TM) system (copyright 1988, Gaussian, Inc.),
 the Gaussian 86(TM) system (copyright 1986, Carnegie Mellon
 University), and the Gaussian 82(TM) system (copyright 1983,
 Carnegie Mellon University). Gaussian is a federally registered
 trademark of Gaussian, Inc.
  
 This software contains proprietary and confidential information,
 including trade secrets, belonging to Gaussian, Inc.
  
 This software is provided under written license and may be
 used, copied, transmitted, or stored only in accord with that
 written license.
  
 The following legend is applicable only to US Government
 contracts under FAR:
  
                    RESTRICTED RIGHTS LEGEND
  
 Use, reproduction and disclosure by the US Government is
 subject to restrictions as set forth in subparagraphs (a)
 and (c) of the Commercial Computer Software - Restricted
 Rights clause in FAR 52.227-19.
  
 Gaussian, Inc.
 340 Quinnipiac St., Bldg. 40, Wallingford CT 06492
  
  
 ---------------------------------------------------------------
 Warning -- This program may not be used in any manner that
 competes with the business of Gaussian, Inc. or will provide
 assistance to any competitor of Gaussian, Inc.  The licensee
 of this program is prohibited from giving any competitor of
 Gaussian, Inc. access to this program.  By using this program,
 the user acknowledges that Gaussian, Inc. is engaged in the
 business of creating and licensing software in the field of
 computational chemistry and represents and warrants to the
 licensee that it is not a competitor of Gaussian, Inc. and that
 it will not use this program in any manner prohibited above.
 ---------------------------------------------------------------
  

 Cite this work as:
 Gaussian 16, Revision B.01,
 M. J. Frisch, G. W. Trucks, H. B. Schlegel, G. E. Scuseria, 
 M. A. Robb, J. R. Cheeseman, G. Scalmani, V. Barone, 
 G. A. Petersson, H. Nakatsuji, X. Li, M. Caricato, A. V. Marenich, 
 J. Bloino, B. G. Janesko, R. Gomperts, B. Mennucci, H. P. Hratchian, 
 J. V. Ortiz, A. F. Izmaylov, J. L. Sonnenberg, D. Williams-Young, 
 F. Ding, F. Lipparini, F. Egidi, J. Goings, B. Peng, A. Petrone, 
 T. Henderson, D. Ranasinghe, V. G. Zakrzewski, J. Gao, N. Rega, 
 G. Zheng, W. Liang, M. Hada, M. Ehara, K. Toyota, R. Fukuda, 
 J. Hasegawa, M. Ishida, T. Nakajima, Y. Honda, O. Kitao, H. Nakai, 
 T. Vreven, K. Throssell, J. A. Montgomery, Jr., J. E. Peralta, 
 F. Ogliaro, M. J. Bearpark, J. J. Heyd, E. N. Brothers, K. N. Kudin, 
 V. N. Staroverov, T. A. Keith, R. Kobayashi, J. Normand, 
 K. Raghavachari, A. P. Rendell, J. C. Burant, S. S. Iyengar, 
 J. Tomasi, M. Cossi, J. M. Millam, M. Klene, C. Adamo, R. Cammi, 
 J. W. Ochterski, R. L. Martin, K. Morokuma, O. Farkas, 
 J. B. Foresman, and D. J. Fox, Gaussian, Inc., Wallingford CT, 2016.
 
 ******************************************
 Gaussian 16:  ES64L-G16RevB.01 20-Dec-2017
                29-Jul-2020 
 ******************************************
 %NProcShared=16
 Will use up to   16 processors via shared memory.
 -------------------------------------------------------------
 #n B3LYP/6-31+G(d,p) EmpiricalDispersion=GD3 Opt=modredundant
 -------------------------------------------------------------
 1/18=120,19=15,26=3,38=1/1,3;
 2/9=110,12=2,17=6,18=5,40=1/2;
 3/5=1,6=6,7=111,11=2,25=1,30=1,71=1,74=-5,124=31/1,2,3;
 4//1;
 5/5=2,38=5/2;
 6/7=2,8=2,9=2,10=2,28=1/1;
 7//1,2,3,16;
 1/18=20,19=15,26=3/3(2);
 2/9=110/2;
 99//99;
 2/9=110/2;
 3/5=1,6=6,7=111,11=2,25=1,30=1,71=1,74=-5,124=31/1,2,3;
 4/5=5,16=3,69=1/1;
 5/5=2,38=5/2;
 7//1,2,3,16;
 1/18=20,19=15,26=3/3(-5);
 2/9=110/2;
 6/7=2,8=2,9=2,10=2,19=2,28=1/1;
 99/9=1/99;
 -----
 Title
 -----
 Symbolic Z-matrix:
 Charge =  0 Multiplicity = 1
 Si                   -6.79384   0.07109  -0.12907 
 O                    -5.17302  -0.10726   0.09096 
 O                    -7.09759   1.6061   -0.60306 
 O                    -7.57247  -0.22821   1.2781 
 O                    -7.30409  -0.99087  -1.26283 
 H                    -6.69973  -1.10295  -2.01474 
 H                    -7.95778  -1.11667   1.33098 
 H                    -7.98766   1.92035  -0.38378 
 Si                   -3.31018  -2.97416  -1.406 
 O                    -1.79319  -2.57507  -0.93631 
 O                    -4.23059  -3.30155  -0.09125 
 O                    -3.24876  -4.28448  -2.38516 
 O                    -3.98384  -1.70788  -2.2029 
 H                    -4.00478  -0.89769  -1.66505 
 H                    -4.11864  -4.64444  -2.60985 
 H                    -1.10594  -3.06413  -1.41428 
 H                    -4.35706  -2.53859   0.49456 
 H                    -4.79901   0.59036   0.65399 
 
 Add virtual bond connecting atoms H14        and O2         Dist= 4.26D+00.
 The following ModRedundant input section has been read:
 B       1       9 F                                                           
 

 GradGradGradGradGradGradGradGradGradGradGradGradGradGradGradGradGradGrad
 Berny optimization.
 Initialization pass.
                           ----------------------------
                           !    Initial Parameters    !
                           ! (Angstroms and Degrees)  !
 --------------------------                            --------------------------
 ! Name  Definition              Value          Derivative Info.                !
 --------------------------------------------------------------------------------
 ! R1    R(1,2)                  1.6454         estimate D2E/DX2                !
 ! R2    R(1,3)                  1.635          estimate D2E/DX2                !
 ! R3    R(1,4)                  1.6358         estimate D2E/DX2                !
 ! R4    R(1,5)                  1.6351         estimate D2E/DX2                !
 ! R5    R(1,9)                  4.8            Frozen                          !
 ! R6    R(2,14)                 2.2524         estimate D2E/DX2                !
 ! R7    R(2,18)                 0.9714         estimate D2E/DX2                !
 ! R8    R(3,8)                  0.9691         estimate D2E/DX2                !
 ! R9    R(4,7)                  0.9699         estimate D2E/DX2                !
 ! R10   R(5,6)                  0.9712         estimate D2E/DX2                !
 ! R11   R(9,10)                 1.6374         estimate D2E/DX2                !
 ! R12   R(9,11)                 1.638          estimate D2E/DX2                !
 ! R13   R(9,12)                 1.6369         estimate D2E/DX2                !
 ! R14   R(9,13)                 1.6408         estimate D2E/DX2                !
 ! R15   R(10,16)                0.9695         estimate D2E/DX2                !
 ! R16   R(11,17)                0.9702         estimate D2E/DX2                !
 ! R17   R(12,15)                0.9679         estimate D2E/DX2                !
 ! R18   R(13,14)                0.9727         estimate D2E/DX2                !
 ! A1    A(2,1,3)              108.8772         estimate D2E/DX2                !
 ! A2    A(2,1,4)              109.5124         estimate D2E/DX2                !
 ! A3    A(2,1,5)              109.2523         estimate D2E/DX2                !
 ! A4    A(3,1,4)              109.4344         estimate D2E/DX2                !
 ! A5    A(3,1,5)              110.5346         estimate D2E/DX2                !
 ! A6    A(4,1,5)              109.214          estimate D2E/DX2                !
 ! A7    A(1,2,14)             116.405          estimate D2E/DX2                !
 ! A8    A(1,2,18)             112.2687         estimate D2E/DX2                !
 ! A9    A(14,2,18)            120.2796         estimate D2E/DX2                !
 ! A10   A(1,3,8)              114.1731         estimate D2E/DX2                !
 ! A11   A(1,4,7)              113.8041         estimate D2E/DX2                !
 ! A12   A(1,5,6)              114.6833         estimate D2E/DX2                !
 ! A13   A(10,9,11)            109.82           estimate D2E/DX2                !
 ! A14   A(10,9,12)            109.3858         estimate D2E/DX2                !
 ! A15   A(10,9,13)            109.3648         estimate D2E/DX2                !
 ! A16   A(11,9,12)            109.9517         estimate D2E/DX2                !
 ! A17   A(11,9,13)            108.2631         estimate D2E/DX2                !
 ! A18   A(12,9,13)            110.0383         estimate D2E/DX2                !
 ! A19   A(9,10,16)            113.1017         estimate D2E/DX2                !
 ! A20   A(9,11,17)            113.6237         estimate D2E/DX2                !
 ! A21   A(9,12,15)            113.7569         estimate D2E/DX2                !
 ! A22   A(9,13,14)            112.5252         estimate D2E/DX2                !
 ! A23   A(2,14,13)            137.2707         estimate D2E/DX2                !
 ! D1    D(3,1,2,14)           -93.7841         estimate D2E/DX2                !
 ! D2    D(3,1,2,18)            50.4723         estimate D2E/DX2                !
 ! D3    D(4,1,2,14)           146.5966         estimate D2E/DX2                !
 ! D4    D(4,1,2,18)           -69.147          estimate D2E/DX2                !
 ! D5    D(5,1,2,14)            27.0194         estimate D2E/DX2                !
 ! D6    D(5,1,2,18)           171.2758         estimate D2E/DX2                !
 ! D7    D(2,1,3,8)           -154.199          estimate D2E/DX2                !
 ! D8    D(4,1,3,8)            -34.5313         estimate D2E/DX2                !
 ! D9    D(5,1,3,8)             85.7881         estimate D2E/DX2                !
 ! D10   D(2,1,4,7)           -100.0138         estimate D2E/DX2                !
 ! D11   D(3,1,4,7)            140.7097         estimate D2E/DX2                !
 ! D12   D(5,1,4,7)             19.587          estimate D2E/DX2                !
 ! D13   D(2,1,5,6)            -39.7339         estimate D2E/DX2                !
 ! D14   D(3,1,5,6)             80.0535         estimate D2E/DX2                !
 ! D15   D(4,1,5,6)           -159.4953         estimate D2E/DX2                !
 ! D16   D(1,2,14,13)          -61.593          estimate D2E/DX2                !
 ! D17   D(18,2,14,13)         157.162          estimate D2E/DX2                !
 ! D18   D(11,9,10,16)         130.3438         estimate D2E/DX2                !
 ! D19   D(12,9,10,16)           9.5908         estimate D2E/DX2                !
 ! D20   D(13,9,10,16)        -110.9862         estimate D2E/DX2                !
 ! D21   D(10,9,11,17)          63.842          estimate D2E/DX2                !
 ! D22   D(12,9,11,17)        -175.7474         estimate D2E/DX2                !
 ! D23   D(13,9,11,17)         -55.5049         estimate D2E/DX2                !
 ! D24   D(10,9,12,15)         172.6026         estimate D2E/DX2                !
 ! D25   D(11,9,12,15)          51.9299         estimate D2E/DX2                !
 ! D26   D(13,9,12,15)         -67.2318         estimate D2E/DX2                !
 ! D27   D(10,9,13,14)         -57.463          estimate D2E/DX2                !
 ! D28   D(11,9,13,14)          62.1705         estimate D2E/DX2                !
 ! D29   D(12,9,13,14)        -177.6412         estimate D2E/DX2                !
 ! D30   D(9,13,14,2)          -73.6656         estimate D2E/DX2                !
 --------------------------------------------------------------------------------
 Trust Radius=3.00D-01 FncErr=1.00D-07 GrdErr=1.00D-06 EigMax=2.50D+02 EigMin=1.00D-04
 Number of steps in this run=     81 maximum allowed number of steps=    108.
 GradGradGradGradGradGradGradGradGradGradGradGradGradGradGradGradGradGrad

                          Input orientation:                          
 ---------------------------------------------------------------------
 Center     Atomic      Atomic             Coordinates (Angstroms)
 Number     Number       Type             X           Y           Z
 ---------------------------------------------------------------------
      1         14           0       -6.793840    0.071090   -0.129070
      2          8           0       -5.173020   -0.107260    0.090960
      3          8           0       -7.097590    1.606100   -0.603060
      4          8           0       -7.572470   -0.228210    1.278100
      5          8           0       -7.304090   -0.990870   -1.262830
      6          1           0       -6.699730   -1.102950   -2.014740
      7          1           0       -7.957780   -1.116670    1.330980
      8          1           0       -7.987660    1.920350   -0.383780
      9         14           0       -3.310180   -2.974160   -1.406000
     10          8           0       -1.793190   -2.575070   -0.936310
     11          8           0       -4.230590   -3.301550   -0.091250
     12          8           0       -3.248760   -4.284480   -2.385160
     13          8           0       -3.983840   -1.707880   -2.202900
     14          1           0       -4.004780   -0.897690   -1.665050
     15          1           0       -4.118640   -4.644440   -2.609850
     16          1           0       -1.105940   -3.064130   -1.414280
     17          1           0       -4.357060   -2.538590    0.494560
     18          1           0       -4.799010    0.590360    0.653990
 ---------------------------------------------------------------------
                    Distance matrix (angstroms):
                    1          2          3          4          5
     1  Si   0.000000
     2  O    1.645381   0.000000
     3  O    1.634988   2.668564   0.000000
     4  O    1.635840   2.679793   2.670013   0.000000
     5  O    1.635092   2.674878   2.687414   2.666459   0.000000
     6  H    2.223281   2.784998   3.080598   3.517050   0.971175
     7  H    2.212979   3.211144   3.448755   0.969856   2.677870
     8  H    2.215817   3.501254   0.969052   2.747824   3.116921
     9  Si   4.799998   3.732315   5.997330   5.736876   4.461530
    10  O    5.714919   4.309132   6.762388   6.619021   5.743372
    11  O    4.236317   3.335396   5.706721   4.742225   4.019732
    12  O    6.052150   5.223324   7.258671   6.969022   5.343519
    13  O    3.919388   3.039396   4.820518   5.213928   3.524471
    14  H    3.328156   2.252362   4.118527   4.673195   3.325043
    15  H    5.962146   5.384431   7.209064   6.822623   5.030917
    16  H    6.620693   5.248806   7.639960   7.556941   6.537462
    17  H    3.624533   2.596160   5.088588   4.036168   3.764152
    18  H    2.205033   0.971370   2.809871   2.958319   3.528443
                    6          7          8          9         10
     6  H    0.000000
     7  H    3.574454   0.000000
     8  H    3.668670   3.487805   0.000000
     9  Si   3.919316   5.704517   6.846896   0.000000
    10  O    5.234910   6.728276   7.673692   1.637419   0.000000
    11  O    3.824959   4.548449   6.439673   1.637958   2.680078
    12  O    4.708348   6.783774   8.059939   1.636907   2.672065
    13  O    2.788800   5.350704   5.701213   1.640833   2.674924
    14  H    2.725284   4.964913   5.044436   2.204836   2.869808
    15  H    4.422480   6.535618   7.938587   2.211944   3.534225
    16  H    5.957958   7.633922   8.559500   2.206091   0.969509
    17  H    3.720988   3.960636   5.816776   2.213099   2.936350
    18  H    3.688110   3.653778   3.607399   4.377896   4.645854
                   11         12         13         14         15
    11  O    0.000000
    12  O    2.681821   0.000000
    13  O    2.657016   2.685597   0.000000
    14  H    2.882079   3.544076   0.972692   0.000000
    15  H    2.856437   0.967857   2.967687   3.865714   0.000000
    16  H    3.401502   2.650196   3.277750   3.627619   3.605985
    17  H    0.970194   3.545314   2.847045   2.735063   3.758831
    18  H    4.003180   5.950107   3.756092   2.867584   6.206342
                   16         17         18
    16  H    0.000000
    17  H    3.806526   0.000000
    18  H    5.592120   3.164027   0.000000
 Stoichiometry    H8O8Si2
 Framework group  C1[X(H8O8Si2)]
 Deg. of freedom    48
 Full point group                 C1      NOp   1
 Largest Abelian subgroup         C1      NOp   1
 Largest concise Abelian subgroup C1      NOp   1
                         Standard orientation:                         
 ---------------------------------------------------------------------
 Center     Atomic      Atomic             Coordinates (Angstroms)
 Number     Number       Type             X           Y           Z
 ---------------------------------------------------------------------
      1         14           0       -2.388258   -0.004543   -0.010140
      2          8           0       -1.157770    1.063088    0.220817
      3          8           0       -3.453214    0.637278   -1.071799
      4          8           0       -3.142075   -0.285917    1.414136
      5          8           0       -1.781820   -1.410047   -0.584874
      6          1           0       -1.070116   -1.307818   -1.237721
      7          1           0       -2.873550   -1.113669    1.842320
      8          1           0       -4.357241    0.300691   -0.979564
      9         14           0        2.411720   -0.005514    0.003997
     10          8           0        3.134199    1.447294    0.224257
     11          8           0        1.597584   -0.432142    1.359754
     12          8           0        3.548879   -1.130925   -0.342102
     13          8           0        1.335087    0.103682   -1.229401
     14          1           0        0.662488    0.789683   -1.077277
     15          1           0        3.205602   -2.035325   -0.373253
     16          1           0        4.071143    1.447867   -0.024906
     17          1           0        0.865387    0.165820    1.577944
     18          1           0       -1.479141    1.955064    0.432145
 ---------------------------------------------------------------------
 Rotational constants (GHZ):           2.0083161           0.3734951           0.3719265
 Standard basis: 6-31+G(d,p) (6D, 7F)
 There are   238 symmetry adapted cartesian basis functions of A   symmetry.
 There are   238 symmetry adapted basis functions of A   symmetry.
   238 basis functions,   424 primitive gaussians,   238 cartesian basis functions
    50 alpha electrons       50 beta electrons
       nuclear repulsion energy       813.3742245978 Hartrees.
 NAtoms=   18 NActive=   18 NUniq=   18 SFac= 1.00D+00 NAtFMM=   60 NAOKFM=F Big=F
 Integral buffers will be    131072 words long.
 Raffenetti 2 integral format.
 Two-electron integral symmetry is turned on.
 Nuclear repulsion after empirical dispersion term =      813.3603242457 Hartrees.
 One-electron integrals computed using PRISM.
 NBasis=   238 RedAO= T EigKep=  2.56D-04  NBF=   238
 NBsUse=   238 1.00D-06 EigRej= -1.00D+00 NBFU=   238
 ExpMin= 3.31D-02 ExpMax= 1.61D+04 ExpMxC= 2.43D+03 IAcc=3 IRadAn=         5 AccDes= 0.00D+00
 Harris functional with IExCor=  402 and IRadAn=       5 diagonalized for initial guess.
 HarFok:  IExCor=  402 AccDes= 0.00D+00 IRadAn=         5 IDoV= 1 UseB2=F ITyADJ=14
 ICtDFT=  3500011 ScaDFX=  1.000000  1.000000  1.000000  1.000000
 FoFCou: FMM=F IPFlag=           0 FMFlag=      100000 FMFlg1=           0
         NFxFlg=           0 DoJE=T BraDBF=F KetDBF=T FulRan=T
         wScrn=  0.000000 ICntrl=       500 IOpCl=  0 I1Cent=   200000004 NGrid=           0
         NMat0=    1 NMatS0=      1 NMatT0=    0 NMatD0=    1 NMtDS0=    0 NMtDT0=    0
 Petite list used in FoFCou.
 Requested convergence on RMS density matrix=1.00D-08 within 128 cycles.
 Requested convergence on MAX density matrix=1.00D-06.
 Requested convergence on             energy=1.00D-06.
 No special actions if energy rises.
 SCF Done:  E(RB3LYP) =  -1186.05185702     A.U. after   11 cycles
            NFock= 11  Conv=0.83D-08     -V/T= 2.0065

 **********************************************************************

            Population analysis using the SCF Density.

 **********************************************************************

 Orbital symmetries:
       Occupied  (A) (A) (A) (A) (A) (A) (A) (A) (A) (A) (A) (A)
                 (A) (A) (A) (A) (A) (A) (A) (A) (A) (A) (A) (A)
                 (A) (A) (A) (A) (A) (A) (A) (A) (A) (A) (A) (A)
                 (A) (A) (A) (A) (A) (A) (A) (A) (A) (A) (A) (A)
                 (A) (A)
       Virtual   (A) (A) (A) (A) (A) (A) (A) (A) (A) (A) (A) (A)
                 (A) (A) (A) (A) (A) (A) (A) (A) (A) (A) (A) (A)
                 (A) (A) (A) (A) (A) (A) (A) (A) (A) (A) (A) (A)
                 (A) (A) (A) (A) (A) (A) (A) (A) (A) (A) (A) (A)
                 (A) (A) (A) (A) (A) (A) (A) (A) (A) (A) (A) (A)
                 (A) (A) (A) (A) (A) (A) (A) (A) (A) (A) (A) (A)
                 (A) (A) (A) (A) (A) (A) (A) (A) (A) (A) (A) (A)
                 (A) (A) (A) (A) (A) (A) (A) (A) (A) (A) (A) (A)
                 (A) (A) (A) (A) (A) (A) (A) (A) (A) (A) (A) (A)
                 (A) (A) (A) (A) (A) (A) (A) (A) (A) (A) (A) (A)
                 (A) (A) (A) (A) (A) (A) (A) (A) (A) (A) (A) (A)
                 (A) (A) (A) (A) (A) (A) (A) (A) (A) (A) (A) (A)
                 (A) (A) (A) (A) (A) (A) (A) (A) (A) (A) (A) (A)
                 (A) (A) (A) (A) (A) (A) (A) (A) (A) (A) (A) (A)
                 (A) (A) (A) (A) (A) (A) (A) (A) (A) (A) (A) (A)
                 (A) (A) (A) (A) (A) (A) (A) (A)
 The electronic state is 1-A.
 Alpha  occ. eigenvalues --  -66.22812 -66.20797 -19.19601 -19.18153 -19.17895
 Alpha  occ. eigenvalues --  -19.17653 -19.17144 -19.16285 -19.15759 -19.15737
 Alpha  occ. eigenvalues --   -5.36413  -5.34395  -3.72421  -3.72381  -3.72319
 Alpha  occ. eigenvalues --   -3.70421  -3.70332  -3.70315  -1.06555  -1.04460
 Alpha  occ. eigenvalues --   -1.03123  -1.02114  -1.01816  -1.00940  -1.00356
 Alpha  occ. eigenvalues --   -0.99749  -0.60716  -0.58799  -0.55113  -0.54361
 Alpha  occ. eigenvalues --   -0.54161  -0.53255  -0.52065  -0.51923  -0.43286
 Alpha  occ. eigenvalues --   -0.41303  -0.40290  -0.39954  -0.39644  -0.38880
 Alpha  occ. eigenvalues --   -0.38431  -0.38235  -0.37875  -0.36881  -0.35101
 Alpha  occ. eigenvalues --   -0.34861  -0.34286  -0.33312  -0.33174  -0.30578
 Alpha virt. eigenvalues --   -0.04062  -0.01225   0.00163   0.00914   0.01793
 Alpha virt. eigenvalues --    0.02465   0.04231   0.06035   0.08677   0.09623
 Alpha virt. eigenvalues --    0.10069   0.11209   0.11243   0.12104   0.12773
 Alpha virt. eigenvalues --    0.13559   0.13790   0.14473   0.15215   0.15727
 Alpha virt. eigenvalues --    0.16328   0.16556   0.17006   0.17614   0.18316
 Alpha virt. eigenvalues --    0.18528   0.18931   0.19770   0.20335   0.20715
 Alpha virt. eigenvalues --    0.20792   0.21523   0.22178   0.23185   0.24060
 Alpha virt. eigenvalues --    0.24575   0.25361   0.25871   0.26600   0.26945
 Alpha virt. eigenvalues --    0.27210   0.28118   0.28318   0.30098   0.30188
 Alpha virt. eigenvalues --    0.30795   0.32302   0.33051   0.34745   0.35747
 Alpha virt. eigenvalues --    0.35946   0.37398   0.38617   0.40411   0.42290
 Alpha virt. eigenvalues --    0.44903   0.45989   0.47242   0.48430   0.48906
 Alpha virt. eigenvalues --    0.50072   0.52419   0.61022   0.62184   0.63298
 Alpha virt. eigenvalues --    0.64316   0.65677   0.67756   0.93715   0.94451
 Alpha virt. eigenvalues --    0.95376   0.96050   0.96737   0.97474   0.98126
 Alpha virt. eigenvalues --    0.98488   0.99372   1.01258   1.03418   1.04483
 Alpha virt. eigenvalues --    1.06144   1.07853   1.14933   1.16138   1.16376
 Alpha virt. eigenvalues --    1.17419   1.17526   1.18253   1.19198   1.20152
 Alpha virt. eigenvalues --    1.20768   1.21530   1.23017   1.23500   1.23859
 Alpha virt. eigenvalues --    1.24848   1.25501   1.26192   1.27157   1.28505
 Alpha virt. eigenvalues --    1.29634   1.30727   1.31694   1.33084   1.34793
 Alpha virt. eigenvalues --    1.36419   1.45714   1.49103   1.52217   1.54825
 Alpha virt. eigenvalues --    1.55181   1.56297   1.56930   1.57614   1.58782
 Alpha virt. eigenvalues --    1.59652   1.61867   1.63059   1.63331   1.65981
 Alpha virt. eigenvalues --    1.67286   1.68144   1.68886   1.71160   1.72984
 Alpha virt. eigenvalues --    1.75816   1.78381   1.79956   1.86310   1.87918
 Alpha virt. eigenvalues --    1.89716   1.91772   1.92397   2.00648   2.01886
 Alpha virt. eigenvalues --    2.09126   2.10910   2.15413   2.35274   2.36119
 Alpha virt. eigenvalues --    2.36790   2.37251   2.37877   2.38115   2.39164
 Alpha virt. eigenvalues --    2.41325   2.47017   2.49351   2.58363   2.58745
 Alpha virt. eigenvalues --    2.59107   2.60399   2.60885   2.61574   2.62081
 Alpha virt. eigenvalues --    2.62492   2.64873   2.65360   2.68754   2.69138
 Alpha virt. eigenvalues --    2.71403   2.72175   2.73435   2.73988   2.77135
 Alpha virt. eigenvalues --    2.78553   2.78833   2.80033   2.81684   2.82281
 Alpha virt. eigenvalues --    2.98494   3.01069   3.39221   3.40286   3.41795
 Alpha virt. eigenvalues --    3.44116   3.44870   3.45363   3.49609   3.51739
 Alpha virt. eigenvalues --    4.10623   4.15371   4.16586   4.19968   4.20731
 Alpha virt. eigenvalues --    4.21899   4.28512   4.39537
          Condensed to atoms (all electrons):
               1          2          3          4          5          6
     1  Si  11.746820  -0.046171   0.059716   0.047224   0.090872   0.033423
     2  O   -0.046171   8.644448   0.048965   0.028897   0.031328  -0.006386
     3  O    0.059716   0.048965   8.495276   0.001958  -0.014488  -0.007410
     4  O    0.047224   0.028897   0.001958   8.492233   0.070652   0.006339
     5  O    0.090872   0.031328  -0.014488   0.070652   8.437007   0.249518
     6  H    0.033423  -0.006386  -0.007410   0.006339   0.249518   0.333798
     7  H    0.037091  -0.006514   0.004749   0.241684  -0.003358   0.000066
     8  H    0.037518   0.003566   0.239020  -0.001996  -0.007070   0.000067
     9  Si   0.005848  -0.005421   0.001391   0.000142  -0.019201   0.001384
    10  O    0.000655   0.000649   0.000001  -0.000058   0.000064   0.000062
    11  O   -0.014777   0.011262  -0.000529  -0.001601   0.011988  -0.001160
    12  O    0.001599  -0.001864  -0.000019   0.000031  -0.000369  -0.000071
    13  O   -0.023670   0.011132  -0.002349  -0.001196   0.023295   0.005708
    14  H    0.007354  -0.000676  -0.000441   0.000314  -0.003880  -0.000128
    15  H   -0.000175   0.000064   0.000000  -0.000000  -0.000022   0.000005
    16  H   -0.000148   0.000025   0.000000   0.000000   0.000003  -0.000000
    17  H    0.002744   0.004572   0.000090   0.000274  -0.001579   0.000074
    18  H    0.044135   0.220307  -0.002878  -0.008077   0.007013   0.000086
               7          8          9         10         11         12
     1  Si   0.037091   0.037518   0.005848   0.000655  -0.014777   0.001599
     2  O   -0.006514   0.003566  -0.005421   0.000649   0.011262  -0.001864
     3  O    0.004749   0.239020   0.001391   0.000001  -0.000529  -0.000019
     4  O    0.241684  -0.001996   0.000142  -0.000058  -0.001601   0.000031
     5  O   -0.003358  -0.007070  -0.019201   0.000064   0.011988  -0.000369
     6  H    0.000066   0.000067   0.001384   0.000062  -0.001160  -0.000071
     7  H    0.350265   0.000087   0.000074  -0.000001  -0.000109  -0.000001
     8  H    0.000087   0.357375  -0.000052   0.000000   0.000009   0.000000
     9  Si   0.000074  -0.000052  11.785882   0.006517   0.009478   0.040993
    10  O   -0.000001   0.000000   0.006517   8.530611   0.054311   0.023942
    11  O   -0.000109   0.000009   0.009478   0.054311   8.504602   0.033498
    12  O   -0.000001   0.000000   0.040993   0.023942   0.033498   8.476238
    13  O    0.000018   0.000035   0.017175   0.038650   0.033223   0.040260
    14  H   -0.000001  -0.000002   0.048841  -0.006367  -0.018396   0.007327
    15  H    0.000000   0.000000   0.037580   0.007977  -0.007486   0.247359
    16  H   -0.000000   0.000000   0.031920   0.239995   0.001580  -0.000658
    17  H    0.000025  -0.000000   0.051182  -0.007811   0.231509   0.007108
    18  H    0.000083   0.000131   0.000084   0.000012   0.000576  -0.000004
              13         14         15         16         17         18
     1  Si  -0.023670   0.007354  -0.000175  -0.000148   0.002744   0.044135
     2  O    0.011132  -0.000676   0.000064   0.000025   0.004572   0.220307
     3  O   -0.002349  -0.000441   0.000000   0.000000   0.000090  -0.002878
     4  O   -0.001196   0.000314  -0.000000   0.000000   0.000274  -0.008077
     5  O    0.023295  -0.003880  -0.000022   0.000003  -0.001579   0.007013
     6  H    0.005708  -0.000128   0.000005  -0.000000   0.000074   0.000086
     7  H    0.000018  -0.000001   0.000000  -0.000000   0.000025   0.000083
     8  H    0.000035  -0.000002   0.000000   0.000000  -0.000000   0.000131
     9  Si   0.017175   0.048841   0.037580   0.031920   0.051182   0.000084
    10  O    0.038650  -0.006367   0.007977   0.239995  -0.007811   0.000012
    11  O    0.033223  -0.018396  -0.007486   0.001580   0.231509   0.000576
    12  O    0.040260   0.007327   0.247359  -0.000658   0.007108  -0.000004
    13  O    8.512363   0.226673  -0.008083  -0.003182  -0.017551   0.002363
    14  H    0.226673   0.350805   0.000003  -0.000012   0.000423  -0.000602
    15  H   -0.008083   0.000003   0.359461   0.000060   0.000018   0.000000
    16  H   -0.003182  -0.000012   0.000060   0.355031  -0.000030   0.000000
    17  H   -0.017551   0.000423   0.000018  -0.000030   0.353108  -0.000082
    18  H    0.002363  -0.000602   0.000000   0.000000  -0.000082   0.350848
 Mulliken charges:
               1
     1  Si   1.969943
     2  O   -0.938182
     3  O   -0.823054
     4  O   -0.876821
     5  O   -0.871772
     6  H    0.384623
     7  H    0.375842
     8  H    0.371311
     9  Si   1.986182
    10  O   -0.889212
    11  O   -0.847978
    12  O   -0.875370
    13  O   -0.854865
    14  H    0.388765
    15  H    0.363239
    16  H    0.375417
    17  H    0.375927
    18  H    0.386005
 Sum of Mulliken charges =  -0.00000
 Mulliken charges with hydrogens summed into heavy atoms:
               1
     1  Si   1.969943
     2  O   -0.552177
     3  O   -0.451743
     4  O   -0.500979
     5  O   -0.487149
     9  Si   1.986182
    10  O   -0.513795
    11  O   -0.472051
    12  O   -0.512131
    13  O   -0.466099
 Electronic spatial extent (au):  <R**2>=           2948.3350
 Charge=             -0.0000 electrons
 Dipole moment (field-independent basis, Debye):
    X=             -2.0812    Y=              0.1171    Z=              0.2893  Tot=              2.1045
 Quadrupole moment (field-independent basis, Debye-Ang):
   XX=            -66.9404   YY=            -66.7172   ZZ=            -75.8910
   XY=              0.2877   XZ=             -2.4534   YZ=              0.7698
 Traceless Quadrupole moment (field-independent basis, Debye-Ang):
   XX=              2.9091   YY=              3.1323   ZZ=             -6.0414
   XY=              0.2877   XZ=             -2.4534   YZ=              0.7698
 Octapole moment (field-independent basis, Debye-Ang**2):
  XXX=            -23.2852  YYY=             -4.2985  ZZZ=              6.0651  XYY=              5.1049
  XXY=              1.5787  XXZ=            -12.8657  XZZ=             -9.0241  YZZ=             -6.2583
  YYZ=              3.1340  XYZ=              2.4056
 Hexadecapole moment (field-independent basis, Debye-Ang**3):
 XXXX=          -2491.3432 YYYY=           -322.1500 ZZZZ=           -357.8844 XXXY=            128.4385
 XXXZ=             61.6103 YYYX=            -71.5887 YYYZ=              5.9185 ZZZX=            -13.3889
 ZZZY=             -2.7406 XXYY=           -495.6128 XXZZ=           -579.3109 YYZZ=           -110.3551
 XXYZ=            -16.2395 YYXZ=            -40.6542 ZZXY=             28.5710
 N-N= 8.133603242457D+02 E-N=-4.436665966346D+03  KE= 1.178415699416D+03
 Calling FoFJK, ICntrl=      2127 FMM=F ISym2X=0 I1Cent= 0 IOpClX= 0 NMat=1 NMatS=1 NMatT=0.
 ***** Axes restored to original set *****
 -------------------------------------------------------------------
 Center     Atomic                   Forces (Hartrees/Bohr)
 Number     Number              X              Y              Z
 -------------------------------------------------------------------
      1       14          -0.007338196   -0.003334135   -0.005248222
      2        8           0.015945949    0.005713299    0.000740292
      3        8          -0.002887877    0.012239071    0.005248947
      4        8          -0.011405378   -0.007860755    0.004224445
      5        8           0.006570321   -0.007585164   -0.005435694
      6        1          -0.003154899   -0.003433672    0.002226629
      7        1           0.001176918    0.004367010    0.002782323
      8        1           0.004542383    0.000799115   -0.002146392
      9       14          -0.003031002    0.002282930    0.002337629
     10        8           0.014303720   -0.006021988   -0.003804462
     11        8          -0.004344147    0.000272515    0.011920880
     12        8          -0.005288261   -0.003871104   -0.002451462
     13        8          -0.005764499    0.013770332   -0.004983745
     14        1          -0.002126446   -0.002226379   -0.003135140
     15        1           0.004192989   -0.001584837   -0.001293369
     16        1          -0.000014730    0.004415944    0.004216380
     17        1          -0.002913690   -0.003550296   -0.001829436
     18        1           0.001536844   -0.004391887   -0.003369603
 -------------------------------------------------------------------
 Cartesian Forces:  Max     0.015945949 RMS     0.005861212

 GradGradGradGradGradGradGradGradGradGradGradGradGradGradGradGradGradGrad
 Berny optimization.
 FormGI is forming the generalized inverse of G from B-inverse, IUseBI=4.
 Internal  Forces:  Max     0.014179011 RMS     0.005551171
 Search for a local minimum.
 Step number   1 out of a maximum of   81
 All quantities printed in internal units (Hartrees-Bohrs-Radians)
 Mixed Optimization -- RFO/linear search
 Second derivative matrix not updated -- first step.
 ITU=  0
     Eigenvalues ---    0.00405   0.02596   0.03564   0.03739   0.03799
     Eigenvalues ---    0.03837   0.03844   0.03851   0.03865   0.03875
     Eigenvalues ---    0.03876   0.07341   0.10703   0.10772   0.12173
     Eigenvalues ---    0.12197   0.12246   0.12480   0.14535   0.16000
     Eigenvalues ---    0.16000   0.16000   0.16000   0.16000   0.16000
     Eigenvalues ---    0.16000   0.20131   0.20260   0.20696   0.20836
     Eigenvalues ---    0.21195   0.41363   0.43803   0.44527   0.44613
     Eigenvalues ---    0.44696   0.44868   0.44990   0.45007   0.51774
     Eigenvalues ---    0.53098   0.53138   0.53337   0.53406   0.53477
     Eigenvalues ---    0.53571   0.538171000.000001000.000001000.00000
     Eigenvalues --- 1000.000001000.000001000.000001000.000001000.00000
     Eigenvalues --- 1000.000001000.000001000.000001000.000001000.00000
     Eigenvalues --- 1000.000001000.000001000.000001000.000001000.00000
     Eigenvalues --- 1000.000001000.000001000.000001000.000001000.00000
     Eigenvalues --- 1000.00000
 RFO step:  Lambda=-7.89142971D-03 EMin= 4.05332820D-03
 Linear search not attempted -- first point.
 Iteration  1 RMS(Cart)=  0.06995581 RMS(Int)=  0.00162473
 Iteration  2 RMS(Cart)=  0.00264065 RMS(Int)=  0.00025711
 Iteration  3 RMS(Cart)=  0.00000434 RMS(Int)=  0.00025710
 Iteration  4 RMS(Cart)=  0.00000000 RMS(Int)=  0.00025710
 Iteration  1 RMS(Cart)=  0.00003024 RMS(Int)=  0.00000329
 Iteration  2 RMS(Cart)=  0.00000211 RMS(Int)=  0.00000340
 Iteration  3 RMS(Cart)=  0.00000015 RMS(Int)=  0.00000341
 Variable       Old X    -DE/DX   Delta X   Delta X   Delta X     New X
                                 (Linear)    (Quad)   (Total)
    R1        3.10932   0.01418   0.00000   0.03434   0.03442   3.14374
    R2        3.08968   0.01103   0.00000   0.02409   0.02409   3.11377
    R3        3.09129   0.01153   0.00000   0.02526   0.02526   3.11655
    R4        3.08988   0.00831   0.00000   0.01816   0.01816   3.10804
    R5        9.07068  -0.00349   0.00000   0.00000  -0.00000   9.07068
    R6        4.25635  -0.00175   0.00000  -0.01888  -0.01879   4.23756
    R7        1.83562  -0.00452   0.00000  -0.00838  -0.00838   1.82724
    R8        1.83124  -0.00440   0.00000  -0.00809  -0.00809   1.82315
    R9        1.83276  -0.00432   0.00000  -0.00796  -0.00796   1.82480
   R10        1.83526  -0.00329   0.00000  -0.00610  -0.00610   1.82915
   R11        3.09427   0.01296   0.00000   0.02855   0.02855   3.12283
   R12        3.09529   0.01283   0.00000   0.02832   0.02832   3.12361
   R13        3.09331   0.00657   0.00000   0.01444   0.01444   3.10774
   R14        3.10072   0.01413   0.00000   0.03341   0.03349   3.13421
   R15        1.83211  -0.00432   0.00000  -0.00795  -0.00795   1.82415
   R16        1.83340  -0.00352   0.00000  -0.00650  -0.00650   1.82690
   R17        1.82899  -0.00288   0.00000  -0.00527  -0.00527   1.82371
   R18        1.83812  -0.00468   0.00000  -0.00704  -0.00696   1.83116
    A1        1.90027  -0.00753   0.00000  -0.03885  -0.03833   1.86194
    A2        1.91135   0.01124   0.00000   0.04892   0.04893   1.96028
    A3        1.90681  -0.00801   0.00000  -0.04336  -0.04280   1.86401
    A4        1.90999  -0.00345   0.00000  -0.01134  -0.01105   1.89894
    A5        1.92919   0.01204   0.00000   0.06243   0.06198   1.99117
    A6        1.90614  -0.00420   0.00000  -0.01748  -0.01717   1.88897
    A7        2.03165  -0.00732   0.00000  -0.03592  -0.03577   1.99588
    A8        1.95946   0.00654   0.00000   0.03335   0.03320   1.99266
    A9        2.09928  -0.00001   0.00000  -0.00620  -0.00613   2.09314
   A10        1.99270   0.00468   0.00000   0.02786   0.02786   2.02056
   A11        1.98626   0.00556   0.00000   0.03312   0.03312   2.01938
   A12        2.00160   0.00615   0.00000   0.03662   0.03662   2.03822
   A13        1.91672   0.00209   0.00000   0.01323   0.01302   1.92975
   A14        1.90914  -0.00313   0.00000  -0.01999  -0.01995   1.88920
   A15        1.90878   0.00201   0.00000   0.01384   0.01366   1.92244
   A16        1.91902  -0.00109   0.00000  -0.00957  -0.00953   1.90949
   A17        1.88955   0.00058   0.00000   0.00829   0.00812   1.89766
   A18        1.92053  -0.00039   0.00000  -0.00528  -0.00522   1.91531
   A19        1.97400   0.00790   0.00000   0.04705   0.04705   2.02104
   A20        1.98311   0.00458   0.00000   0.02727   0.02727   2.01038
   A21        1.98543   0.00671   0.00000   0.03999   0.03999   2.02542
   A22        1.96394   0.00034   0.00000   0.01353   0.01369   1.97763
   A23        2.39583  -0.00110   0.00000   0.00531   0.00552   2.40135
    D1       -1.63684  -0.00177   0.00000  -0.00017  -0.00070  -1.63754
    D2        0.88091  -0.00269   0.00000  -0.01387  -0.01458   0.86632
    D3        2.55859   0.00027   0.00000   0.00792   0.00797   2.56656
    D4       -1.20684  -0.00065   0.00000  -0.00578  -0.00591  -1.21275
    D5        0.47158   0.00347   0.00000   0.02602   0.02677   0.49835
    D6        2.98933   0.00256   0.00000   0.01232   0.01289   3.00222
    D7       -2.69128  -0.00483   0.00000  -0.02409  -0.02465  -2.71593
    D8       -0.60268   0.00226   0.00000   0.00529   0.00528  -0.59740
    D9        1.49729   0.00241   0.00000   0.01557   0.01615   1.51343
   D10       -1.74557   0.00069   0.00000   0.01027   0.01034  -1.73523
   D11        2.45585   0.00518   0.00000   0.03502   0.03484   2.49068
   D12        0.34186  -0.00486   0.00000  -0.02375  -0.02364   0.31822
   D13       -0.69349   0.00562   0.00000   0.04559   0.04633  -0.64715
   D14        1.39720  -0.00130   0.00000   0.00881   0.00828   1.40548
   D15       -2.78372  -0.00073   0.00000   0.02259   0.02238  -2.76134
   D16       -1.07500   0.00126   0.00000  -0.00416  -0.00400  -1.07900
   D17        2.74299   0.00013   0.00000  -0.00275  -0.00303   2.73996
   D18        2.27493  -0.00160   0.00000  -0.01132  -0.01145   2.26348
   D19        0.16739   0.00041   0.00000   0.00478   0.00478   0.17217
   D20       -1.93707   0.00158   0.00000   0.01504   0.01517  -1.92191
   D21        1.11425   0.00377   0.00000   0.04652   0.04661   1.16086
   D22       -3.06737   0.00053   0.00000   0.02413   0.02411  -3.04326
   D23       -0.96874  -0.00023   0.00000   0.01710   0.01703  -0.95171
   D24        3.01248  -0.00016   0.00000  -0.00208  -0.00205   3.01043
   D25        0.90635  -0.00008   0.00000   0.00018   0.00011   0.90646
   D26       -1.17342   0.00011   0.00000  -0.00084  -0.00080  -1.17422
   D27       -1.00292  -0.00201   0.00000  -0.00989  -0.00997  -1.01289
   D28        1.08508   0.00203   0.00000   0.01902   0.01909   1.10417
   D29       -3.10042   0.00083   0.00000   0.00932   0.00933  -3.09110
   D30       -1.28571   0.00223   0.00000   0.00187   0.00168  -1.28403
         Item               Value     Threshold  Converged?
 Maximum Force            0.014376     0.000450     NO 
 RMS     Force            0.005574     0.000300     NO 
 Maximum Displacement     0.247170     0.001800     NO 
 RMS     Displacement     0.070987     0.001200     NO 
 Predicted change in Energy=-4.113185D-03
 GradGradGradGradGradGradGradGradGradGradGradGradGradGradGradGradGradGrad

                          Input orientation:                          
 ---------------------------------------------------------------------
 Center     Atomic      Atomic             Coordinates (Angstroms)
 Number     Number       Type             X           Y           Z
 ---------------------------------------------------------------------
      1         14           0       -6.804877    0.073946   -0.118126
      2          8           0       -5.165448   -0.078220    0.119928
      3          8           0       -7.069602    1.624324   -0.609338
      4          8           0       -7.666132   -0.200987    1.261201
      5          8           0       -7.231867   -1.063542   -1.226661
      6          1           0       -6.602056   -1.233747   -1.941706
      7          1           0       -8.054873   -1.081059    1.343776
      8          1           0       -7.953166    1.972839   -0.440128
      9         14           0       -3.318671   -2.961603   -1.411107
     10          8           0       -1.769754   -2.581553   -0.978362
     11          8           0       -4.218806   -3.337373   -0.076648
     12          8           0       -3.267717   -4.259970   -2.419166
     13          8           0       -4.026496   -1.677735   -2.186653
     14          1           0       -4.043028   -0.869115   -1.652952
     15          1           0       -4.119559   -4.648573   -2.653067
     16          1           0       -1.073225   -3.040472   -1.464206
     17          1           0       -4.375167   -2.604309    0.533912
     18          1           0       -4.777725    0.621096    0.663613
 ---------------------------------------------------------------------
                    Distance matrix (angstroms):
                    1          2          3          4          5
     1  Si   0.000000
     2  O    1.663596   0.000000
     3  O    1.647738   2.656368   0.000000
     4  O    1.649209   2.751545   2.680770   0.000000
     5  O    1.644704   2.655983   2.762615   2.668715   0.000000
     6  H    2.253140   2.765758   3.187848   3.529513   0.967946
     7  H    2.243588   3.294279   3.479154   0.965642   2.699036
     8  H    2.242331   3.505978   0.964770   2.775325   3.218465
     9  Si   4.799998   3.750806   5.978549   5.801952   4.353131
    10  O    5.757095   4.359318   6.775985   6.741662   5.674565
    11  O    4.280956   3.399537   5.747107   4.848795   3.946058
    12  O    6.048893   5.247419   7.235656   7.026129   5.230076
    13  O    3.881571   3.029187   4.759413   5.226417   3.401944
    14  H    3.297403   2.242420   4.057896   4.697400   3.223077
    15  H    5.994918   5.447156   7.226951   6.905121   4.957171
    16  H    6.660582   5.294403   7.645107   7.678342   6.472522
    17  H    3.674465   2.679003   5.142796   4.139488   3.692467
    18  H    2.240498   0.966936   2.807059   3.061997   3.526181
                    6          7          8          9         10
     6  H    0.000000
     7  H    3.595606   0.000000
     8  H    3.789779   3.538213   0.000000
     9  Si   3.748017   5.792878   6.838864   0.000000
    10  O    5.108401   6.866334   7.698492   1.652529   0.000000
    11  O    3.685588   4.671614   6.501994   1.652945   2.717022
    12  O    4.528113   6.868921   8.044745   1.644547   2.671497
    13  O    2.625002   5.389599   5.638775   1.658554   2.714726
    14  H    2.600954   5.012007   4.983656   2.227484   2.924943
    15  H    4.281339   6.647452   7.964719   2.242711   3.549478
    16  H    5.836114   7.776083   8.574124   2.247458   0.965300
    17  H    3.600855   4.064039   5.890766   2.242084   3.012584
    18  H    3.681890   3.754951   3.623381   4.389650   4.690514
                   11         12         13         14         15
    11  O    0.000000
    12  O    2.691308   0.000000
    13  O    2.691375   2.701433   0.000000
    14  H    2.933928   3.561753   0.969008   0.000000
    15  H    2.892581   0.965068   3.008667   3.910293   0.000000
    16  H    3.450818   2.686060   3.331784   3.683767   3.644108
    17  H    0.966755   3.562067   2.895096   2.811333   3.794889
    18  H    4.065692   5.967281   3.738045   2.850786   6.261226
                   16         17         18
    16  H    0.000000
    17  H    3.884009   0.000000
    18  H    5.626545   3.253016   0.000000
 Stoichiometry    H8O8Si2
 Framework group  C1[X(H8O8Si2)]
 Deg. of freedom    48
 Full point group                 C1      NOp   1
 Largest Abelian subgroup         C1      NOp   1
 Largest concise Abelian subgroup C1      NOp   1
                         Standard orientation:                         
 ---------------------------------------------------------------------
 Center     Atomic      Atomic             Coordinates (Angstroms)
 Number     Number       Type             X           Y           Z
 ---------------------------------------------------------------------
      1         14           0       -2.396460   -0.006826   -0.015752
      2          8           0       -1.177181    0.987269    0.525250
      3          8           0       -3.433605    0.941750   -0.875738
      4          8           0       -3.225025   -0.712792    1.223193
      5          8           0       -1.683214   -1.195430   -0.900936
      6          1           0       -0.923138   -0.939308   -1.442790
      7          1           0       -2.973206   -1.621504    1.431268
      8          1           0       -4.340712    0.619686   -0.940640
      9         14           0        2.403480   -0.002363    0.007515
     10          8           0        3.167414    1.336878    0.602233
     11          8           0        1.622763   -0.811550    1.219094
     12          8           0        3.537309   -0.986039   -0.664309
     13          8           0        1.291525    0.437399   -1.141818
     14          1           0        0.622192    1.055186   -0.811198
     15          1           0        3.229563   -1.855721   -0.947684
     16          1           0        4.095508    1.435290    0.355738
     17          1           0        0.878763   -0.339145    1.616477
     18          1           0       -1.487138    1.794289    0.958389
 ---------------------------------------------------------------------
 Rotational constants (GHZ):           1.9908967           0.3729795           0.3699100
 Standard basis: 6-31+G(d,p) (6D, 7F)
 There are   238 symmetry adapted cartesian basis functions of A   symmetry.
 There are   238 symmetry adapted basis functions of A   symmetry.
   238 basis functions,   424 primitive gaussians,   238 cartesian basis functions
    50 alpha electrons       50 beta electrons
       nuclear repulsion energy       809.5066792383 Hartrees.
 NAtoms=   18 NActive=   18 NUniq=   18 SFac= 1.00D+00 NAtFMM=   60 NAOKFM=F Big=F
 Integral buffers will be    131072 words long.
 Raffenetti 2 integral format.
 Two-electron integral symmetry is turned on.
 Nuclear repulsion after empirical dispersion term =      809.4928394998 Hartrees.
 One-electron integrals computed using PRISM.
 NBasis=   238 RedAO= T EigKep=  2.63D-04  NBF=   238
 NBsUse=   238 1.00D-06 EigRej= -1.00D+00 NBFU=   238
 Initial guess from the checkpoint file:  "/localscratch/sarashs.36560088.0/Gau-146852.chk"
 B after Tr=     0.000000    0.000000   -0.000000
         Rot=    0.989968   -0.141279    0.001673   -0.000792 Ang= -16.25 deg.
 ExpMin= 3.31D-02 ExpMax= 1.61D+04 ExpMxC= 2.43D+03 IAcc=3 IRadAn=         5 AccDes= 0.00D+00
 Harris functional with IExCor=  402 and IRadAn=       5 diagonalized for initial guess.
 HarFok:  IExCor=  402 AccDes= 0.00D+00 IRadAn=         5 IDoV= 1 UseB2=F ITyADJ=14
 ICtDFT=  3500011 ScaDFX=  1.000000  1.000000  1.000000  1.000000
 FoFCou: FMM=F IPFlag=           0 FMFlag=      100000 FMFlg1=           0
         NFxFlg=           0 DoJE=T BraDBF=F KetDBF=T FulRan=T
         wScrn=  0.000000 ICntrl=       500 IOpCl=  0 I1Cent=   200000004 NGrid=           0
         NMat0=    1 NMatS0=      1 NMatT0=    0 NMatD0=    1 NMtDS0=    0 NMtDT0=    0
 Petite list used in FoFCou.
 Requested convergence on RMS density matrix=1.00D-08 within 128 cycles.
 Requested convergence on MAX density matrix=1.00D-06.
 Requested convergence on             energy=1.00D-06.
 No special actions if energy rises.
 SCF Done:  E(RB3LYP) =  -1186.05708020     A.U. after   10 cycles
            NFock= 10  Conv=0.29D-08     -V/T= 2.0067
 Calling FoFJK, ICntrl=      2127 FMM=F ISym2X=0 I1Cent= 0 IOpClX= 0 NMat=1 NMatS=1 NMatT=0.
 ***** Axes restored to original set *****
 -------------------------------------------------------------------
 Center     Atomic                   Forces (Hartrees/Bohr)
 Number     Number              X              Y              Z
 -------------------------------------------------------------------
      1       14          -0.001471125   -0.004234445   -0.004128039
      2        8           0.003378710    0.001551406    0.000366051
      3        8           0.000509923    0.000706528    0.004013209
      4        8          -0.002630402   -0.000547569   -0.002532144
      5        8           0.002197168    0.000666179    0.001289904
      6        1           0.000697038   -0.002204797    0.000888430
      7        1           0.000703760    0.000703967    0.000843097
      8        1           0.000552829    0.000741753   -0.000588105
      9       14          -0.001478533    0.002579252    0.002464200
     10        8           0.000252047   -0.002846813   -0.002200535
     11        8           0.002133250    0.000505611    0.001606823
     12        8          -0.002536778    0.000743173    0.000517378
     13        8          -0.001233444    0.001824508   -0.000743200
     14        1          -0.001536474    0.000542856    0.000031877
     15        1           0.001656151   -0.000816343   -0.000639425
     16        1          -0.000183013    0.001325939    0.001145603
     17        1          -0.002209349   -0.000431799   -0.001027535
     18        1           0.001198240   -0.000809404   -0.001307588
 -------------------------------------------------------------------
 Cartesian Forces:  Max     0.004234445 RMS     0.001748187

 GradGradGradGradGradGradGradGradGradGradGradGradGradGradGradGradGradGrad
 Berny optimization.
 Using GEDIIS/GDIIS optimizer.
 FormGI is forming the generalized inverse of G from B-inverse, IUseBI=4.
 Internal  Forces:  Max     0.006119778 RMS     0.001957289
 Search for a local minimum.
 Step number   2 out of a maximum of   81
 All quantities printed in internal units (Hartrees-Bohrs-Radians)
 Mixed Optimization -- RFO/linear search
 Update second derivatives using D2CorX and points    1    2
 DE= -5.22D-03 DEPred=-4.11D-03 R= 1.27D+00
 TightC=F SS=  1.41D+00  RLast= 1.96D-01 DXNew= 5.0454D-01 5.8825D-01
 Trust test= 1.27D+00 RLast= 1.96D-01 DXMaxT set to 5.05D-01
 ITU=  1  0
 Use linear search instead of GDIIS.
     Eigenvalues ---    0.00417   0.02574   0.03486   0.03702   0.03741
     Eigenvalues ---    0.03801   0.03844   0.03851   0.03857   0.03866
     Eigenvalues ---    0.03876   0.07203   0.10634   0.10982   0.11038
     Eigenvalues ---    0.12138   0.12388   0.12400   0.13028   0.14524
     Eigenvalues ---    0.16000   0.16000   0.16000   0.16000   0.16000
     Eigenvalues ---    0.16381   0.17688   0.20644   0.20660   0.20860
     Eigenvalues ---    0.21198   0.41129   0.43790   0.44535   0.44679
     Eigenvalues ---    0.44753   0.44926   0.44981   0.49386   0.52374
     Eigenvalues ---    0.53079   0.53256   0.53367   0.53428   0.53461
     Eigenvalues ---    0.53792   0.541881000.000001000.000001000.00000
     Eigenvalues --- 1000.000001000.000001000.000001000.000001000.00000
     Eigenvalues --- 1000.000001000.000001000.000001000.000001000.00000
     Eigenvalues --- 1000.000001000.000001000.000001000.000001000.00000
     Eigenvalues --- 1000.000001000.000001000.000001000.000001000.00000
     Eigenvalues --- 1000.00000
 RFO step:  Lambda=-1.63235208D-03 EMin= 4.17387453D-03
 Quartic linear search produced a step of  0.51537.
 Iteration  1 RMS(Cart)=  0.11334400 RMS(Int)=  0.00380274
 Iteration  2 RMS(Cart)=  0.00709543 RMS(Int)=  0.00047989
 Iteration  3 RMS(Cart)=  0.00002826 RMS(Int)=  0.00047970
 Iteration  4 RMS(Cart)=  0.00000002 RMS(Int)=  0.00047970
 Iteration  1 RMS(Cart)=  0.00018046 RMS(Int)=  0.00002030
 Iteration  2 RMS(Cart)=  0.00001323 RMS(Int)=  0.00002098
 Iteration  3 RMS(Cart)=  0.00000097 RMS(Int)=  0.00002108
 Variable       Old X    -DE/DX   Delta X   Delta X   Delta X     New X
                                 (Linear)    (Quad)   (Total)
    R1        3.14374   0.00255   0.01774  -0.00222   0.01600   3.15974
    R2        3.11377   0.00017   0.01242  -0.00729   0.00512   3.11890
    R3        3.11655  -0.00043   0.01302  -0.00969   0.00333   3.11989
    R4        3.10804  -0.00115   0.00936  -0.00979  -0.00043   3.10761
    R5        9.07068  -0.00470  -0.00000   0.00000  -0.00000   9.07068
    R6        4.23756  -0.00094  -0.00968  -0.03802  -0.04716   4.19040
    R7        1.82724  -0.00084  -0.00432   0.00035  -0.00397   1.82327
    R8        1.82315  -0.00034  -0.00417   0.00168  -0.00249   1.82066
    R9        1.82480  -0.00085  -0.00410   0.00019  -0.00391   1.82088
   R10        1.82915   0.00018  -0.00314   0.00251  -0.00063   1.82852
   R11        3.12283  -0.00056   0.01472  -0.01121   0.00351   3.12633
   R12        3.12361   0.00049   0.01460  -0.00758   0.00701   3.13063
   R13        3.10774   0.00010   0.00744  -0.00436   0.00308   3.11083
   R14        3.13421   0.00220   0.01726  -0.00330   0.01445   3.14866
   R15        1.82415  -0.00134  -0.00410  -0.00118  -0.00528   1.81887
   R16        1.82690  -0.00062  -0.00335   0.00037  -0.00298   1.82393
   R17        1.82371  -0.00098  -0.00272  -0.00102  -0.00374   1.81998
   R18        1.83116   0.00014  -0.00359   0.00279  -0.00034   1.83082
    A1        1.86194  -0.00278  -0.01975  -0.01061  -0.02949   1.83245
    A2        1.96028   0.00567   0.02521   0.02305   0.04825   2.00853
    A3        1.86401  -0.00453  -0.02206  -0.02374  -0.04491   1.81910
    A4        1.89894  -0.00236  -0.00570  -0.01039  -0.01577   1.88317
    A5        1.99117   0.00579   0.03194   0.02684   0.05812   2.04929
    A6        1.88897  -0.00145  -0.00885  -0.00381  -0.01213   1.87685
    A7        1.99588  -0.00612  -0.01844  -0.05157  -0.06955   1.92633
    A8        1.99266   0.00384   0.01711   0.01779   0.03369   2.02636
    A9        2.09314   0.00103  -0.00316   0.00437   0.00070   2.09385
   A10        2.02056   0.00189   0.01436   0.00849   0.02285   2.04340
   A11        2.01938   0.00120   0.01707   0.00033   0.01740   2.03678
   A12        2.03822   0.00136   0.01887   0.00069   0.01956   2.05779
   A13        1.92975   0.00062   0.00671   0.00101   0.00758   1.93732
   A14        1.88920  -0.00089  -0.01028  -0.00128  -0.01152   1.87767
   A15        1.92244   0.00037   0.00704  -0.00093   0.00599   1.92843
   A16        1.90949  -0.00003  -0.00491   0.00204  -0.00284   1.90665
   A17        1.89766  -0.00030   0.00418  -0.00341   0.00065   1.89831
   A18        1.91531   0.00024  -0.00269   0.00267   0.00001   1.91532
   A19        2.02104   0.00206   0.02425   0.00381   0.02805   2.04910
   A20        2.01038   0.00148   0.01406   0.00490   0.01895   2.02934
   A21        2.02542   0.00308   0.02061   0.01567   0.03628   2.06170
   A22        1.97763   0.00063   0.00706   0.00206   0.01001   1.98764
   A23        2.40135   0.00049   0.00285   0.00164   0.00569   2.40704
    D1       -1.63754  -0.00071  -0.00036   0.01378   0.01272  -1.62482
    D2        0.86632  -0.00200  -0.00752  -0.02465  -0.03319   0.83313
    D3        2.56656   0.00071   0.00411   0.02007   0.02422   2.59079
    D4       -1.21275  -0.00058  -0.00305  -0.01836  -0.02169  -1.23444
    D5        0.49835   0.00212   0.01380   0.02663   0.04157   0.53992
    D6        3.00222   0.00083   0.00664  -0.01179  -0.00434   2.99788
    D7       -2.71593  -0.00271  -0.01271  -0.01409  -0.02755  -2.74348
    D8       -0.59740   0.00112   0.00272   0.00148   0.00423  -0.59317
    D9        1.51343   0.00141   0.00832   0.00691   0.01595   1.52939
   D10       -1.73523   0.00095   0.00533   0.01687   0.02225  -1.71298
   D11        2.49068   0.00249   0.01795   0.02282   0.04053   2.53121
   D12        0.31822  -0.00222  -0.01218  -0.00122  -0.01321   0.30501
   D13       -0.64715   0.00344   0.02388   0.04781   0.07278  -0.57437
   D14        1.40548   0.00033   0.00427   0.03437   0.03780   1.44328
   D15       -2.76134   0.00008   0.01153   0.03597   0.04726  -2.71408
   D16       -1.07900  -0.00020  -0.00206  -0.00405  -0.00584  -1.08485
   D17        2.73996   0.00029  -0.00156   0.03326   0.03063   2.77059
   D18        2.26348  -0.00005  -0.00590   0.00526  -0.00074   2.26274
   D19        0.17217   0.00017   0.00246   0.00297   0.00543   0.17760
   D20       -1.92191   0.00021   0.00782   0.00105   0.00897  -1.91294
   D21        1.16086   0.00170   0.02402   0.03602   0.06010   1.22096
   D22       -3.04326   0.00096   0.01243   0.03634   0.04875  -2.99450
   D23       -0.95171   0.00106   0.00878   0.03874   0.04747  -0.90424
   D24        3.01043  -0.00000  -0.00106  -0.00104  -0.00208   3.00836
   D25        0.90646  -0.00020   0.00006  -0.00270  -0.00269   0.90377
   D26       -1.17422   0.00004  -0.00041  -0.00138  -0.00176  -1.17598
   D27       -1.01289  -0.00044  -0.00514   0.00086  -0.00433  -1.01721
   D28        1.10417   0.00036   0.00984  -0.00064   0.00923   1.11340
   D29       -3.09110   0.00029   0.00481   0.00135   0.00617  -3.08493
   D30       -1.28403  -0.00061   0.00087  -0.06597  -0.06619  -1.35022
         Item               Value     Threshold  Converged?
 Maximum Force            0.005792     0.000450     NO 
 RMS     Force            0.001883     0.000300     NO 
 Maximum Displacement     0.327909     0.001800     NO 
 RMS     Displacement     0.117105     0.001200     NO 
 Predicted change in Energy=-1.439023D-03
 GradGradGradGradGradGradGradGradGradGradGradGradGradGradGradGradGradGrad

                          Input orientation:                          
 ---------------------------------------------------------------------
 Center     Atomic      Atomic             Coordinates (Angstroms)
 Number     Number       Type             X           Y           Z
 ---------------------------------------------------------------------
      1         14           0       -6.815166    0.076135   -0.112949
      2          8           0       -5.181258   -0.075174    0.208375
      3          8           0       -7.006482    1.632090   -0.629073
      4          8           0       -7.808026   -0.153256    1.186019
      5          8           0       -7.127411   -1.123767   -1.193246
      6          1           0       -6.428534   -1.363801   -1.817926
      7          1           0       -8.207527   -1.025384    1.276901
      8          1           0       -7.885344    2.017531   -0.543760
      9         14           0       -3.326964   -2.953045   -1.415448
     10          8           0       -1.752965   -2.561460   -1.089603
     11          8           0       -4.130090   -3.384234   -0.032127
     12          8           0       -3.316887   -4.227996   -2.456746
     13          8           0       -4.116567   -1.662528   -2.113524
     14          1           0       -4.114398   -0.860648   -1.569820
     15          1           0       -4.156251   -4.653422   -2.661743
     16          1           0       -1.072060   -2.981331   -1.624856
     17          1           0       -4.306878   -2.674831    0.598004
     18          1           0       -4.785363    0.629071    0.735832
 ---------------------------------------------------------------------
                    Distance matrix (angstroms):
                    1          2          3          4          5
     1  Si   0.000000
     2  O    1.672065   0.000000
     3  O    1.650449   2.635814   0.000000
     4  O    1.650972   2.803890   2.669174   0.000000
     5  O    1.644476   2.617556   2.815611   2.658201   0.000000
     6  H    2.264917   2.705948   3.274563   3.520243   0.967611
     7  H    2.254705   3.347082   3.483879   0.963571   2.697769
     8  H    2.258295   3.501029   0.963452   2.776766   3.296065
     9  Si   4.799998   3.789108   5.931332   5.889513   4.223627
    10  O    5.791083   4.429396   6.737759   6.902295   5.564384
    11  O    4.380676   3.480326   5.813217   5.044831   3.929611
    12  O    6.021369   5.274910   7.161991   7.074148   5.074717
    13  O    3.782550   3.007402   4.627063   5.176076   3.194112
    14  H    3.208455   2.217462   3.932290   4.662397   3.047833
    15  H    5.994572   5.499870   7.194667   6.956453   4.841770
    16  H    6.679613   5.356490   7.582388   7.827661   6.348551
    17  H    3.790089   2.770300   5.229068   4.354554   3.683718
    18  H    2.268539   0.964835   2.793275   3.154552   3.504137
                    6          7          8          9         10
     6  H    0.000000
     7  H    3.585708   0.000000
     8  H    3.896049   3.560609   0.000000
     9  Si   3.508193   5.897840   6.800389   0.000000
    10  O    4.881166   7.044235   7.672755   1.654384   0.000000
    11  O    3.543172   4.889092   6.598694   1.656657   2.728725
    12  O    4.277154   6.936513   7.971005   1.646179   2.663133
    13  O    2.349852   5.351345   5.496423   1.666198   2.728206
    14  H    2.381165   4.988454   4.853530   2.240983   2.949531
    15  H    4.086184   6.714791   7.930549   2.265448   3.552987
    16  H    5.598704   7.947378   8.519285   2.264783   0.962507
    17  H    3.472310   4.289131   6.010599   2.256462   3.063224
    18  H    3.632249   3.839425   3.629746   4.425662   4.765201
                   11         12         13         14         15
    11  O    0.000000
    12  O    2.692956   0.000000
    13  O    2.701234   2.709043   0.000000
    14  H    2.955204   3.572351   0.968829   0.000000
    15  H    2.920000   0.963090   3.040981   3.947047   0.000000
    16  H    3.471406   2.699159   3.353664   3.708927   3.658313
    17  H    0.965180   3.567058   2.900578   2.833331   3.816211
    18  H    4.138329   5.995004   3.717196   2.825861   6.312213
                   16         17         18
    16  H    0.000000
    17  H    3.936889   0.000000
    18  H    5.691790   3.341214   0.000000
 Stoichiometry    H8O8Si2
 Framework group  C1[X(H8O8Si2)]
 Deg. of freedom    48
 Full point group                 C1      NOp   1
 Largest Abelian subgroup         C1      NOp   1
 Largest concise Abelian subgroup C1      NOp   1
                         Standard orientation:                         
 ---------------------------------------------------------------------
 Center     Atomic      Atomic             Coordinates (Angstroms)
 Number     Number       Type             X           Y           Z
 ---------------------------------------------------------------------
      1         14           0       -2.402031   -0.009959   -0.021916
      2          8           0       -1.212881    0.926753    0.688221
      3          8           0       -3.379565    1.063734   -0.806513
      4          8           0       -3.336915   -0.871105    1.031711
      5          8           0       -1.570298   -1.089340   -0.942491
      6          1           0       -0.739207   -0.797342   -1.342859
      7          1           0       -3.100728   -1.795893    1.163815
      8          1           0       -4.282904    0.782478   -0.988486
      9         14           0        2.397847   -0.001223    0.010842
     10          8           0        3.199584    1.308638    0.626040
     11          8           0        1.704304   -0.894995    1.221082
     12          8           0        3.499480   -0.929359   -0.785948
     13          8           0        1.205329    0.487914   -1.045028
     14          1           0        0.549520    1.080762   -0.648701
     15          1           0        3.217384   -1.791338   -1.109918
     16          1           0        4.106367    1.449531    0.335672
     17          1           0        0.953311   -0.491448    1.673555
     18          1           0       -1.517486    1.701877    1.175359
 ---------------------------------------------------------------------
 Rotational constants (GHZ):           2.0067536           0.3738462           0.3688607
 Standard basis: 6-31+G(d,p) (6D, 7F)
 There are   238 symmetry adapted cartesian basis functions of A   symmetry.
 There are   238 symmetry adapted basis functions of A   symmetry.
   238 basis functions,   424 primitive gaussians,   238 cartesian basis functions
    50 alpha electrons       50 beta electrons
       nuclear repulsion energy       809.5638916186 Hartrees.
 NAtoms=   18 NActive=   18 NUniq=   18 SFac= 1.00D+00 NAtFMM=   60 NAOKFM=F Big=F
 Integral buffers will be    131072 words long.
 Raffenetti 2 integral format.
 Two-electron integral symmetry is turned on.
 Nuclear repulsion after empirical dispersion term =      809.5500081225 Hartrees.
 One-electron integrals computed using PRISM.
 NBasis=   238 RedAO= T EigKep=  2.61D-04  NBF=   238
 NBsUse=   238 1.00D-06 EigRej= -1.00D+00 NBFU=   238
 Initial guess from the checkpoint file:  "/localscratch/sarashs.36560088.0/Gau-146852.chk"
 B after Tr=    -0.000000    0.000000    0.000000
         Rot=    0.999036   -0.043891    0.001087   -0.000596 Ang=  -5.03 deg.
 ExpMin= 3.31D-02 ExpMax= 1.61D+04 ExpMxC= 2.43D+03 IAcc=3 IRadAn=         5 AccDes= 0.00D+00
 Harris functional with IExCor=  402 and IRadAn=       5 diagonalized for initial guess.
 HarFok:  IExCor=  402 AccDes= 0.00D+00 IRadAn=         5 IDoV= 1 UseB2=F ITyADJ=14
 ICtDFT=  3500011 ScaDFX=  1.000000  1.000000  1.000000  1.000000
 FoFCou: FMM=F IPFlag=           0 FMFlag=      100000 FMFlg1=           0
         NFxFlg=           0 DoJE=T BraDBF=F KetDBF=T FulRan=T
         wScrn=  0.000000 ICntrl=       500 IOpCl=  0 I1Cent=   200000004 NGrid=           0
         NMat0=    1 NMatS0=      1 NMatT0=    0 NMatD0=    1 NMtDS0=    0 NMtDT0=    0
 Petite list used in FoFCou.
 Requested convergence on RMS density matrix=1.00D-08 within 128 cycles.
 Requested convergence on MAX density matrix=1.00D-06.
 Requested convergence on             energy=1.00D-06.
 No special actions if energy rises.
 SCF Done:  E(RB3LYP) =  -1186.05902036     A.U. after   10 cycles
            NFock= 10  Conv=0.52D-08     -V/T= 2.0068
 Calling FoFJK, ICntrl=      2127 FMM=F ISym2X=0 I1Cent= 0 IOpClX= 0 NMat=1 NMatS=1 NMatT=0.
 ***** Axes restored to original set *****
 -------------------------------------------------------------------
 Center     Atomic                   Forces (Hartrees/Bohr)
 Number     Number              X              Y              Z
 -------------------------------------------------------------------
      1       14           0.003954534   -0.004893012   -0.003287199
      2        8          -0.000576685   -0.000458852    0.001407599
      3        8           0.000444309   -0.002511200    0.001811236
      4        8           0.000803960    0.002440080   -0.002512189
      5        8          -0.002653392    0.003594767    0.001318433
      6        1           0.002469762   -0.001486903    0.000151782
      7        1           0.000720470   -0.001171234    0.000109924
      8        1          -0.000639621    0.000169376   -0.000002807
      9       14          -0.001678567    0.001360187    0.001801379
     10        8          -0.004250961   -0.000329867    0.000194837
     11        8           0.003778820    0.000502186   -0.001862546
     12        8          -0.000417134    0.002286005    0.001176436
     13        8          -0.000204395   -0.001486752    0.000468994
     14        1          -0.000273157    0.000964721    0.001078994
     15        1          -0.000108498   -0.000292246   -0.000048351
     16        1           0.000319754   -0.000370435   -0.000761843
     17        1          -0.001973077    0.000721962   -0.000572835
     18        1           0.000283880    0.000961217   -0.000471843
 -------------------------------------------------------------------
 Cartesian Forces:  Max     0.004893012 RMS     0.001776526

 GradGradGradGradGradGradGradGradGradGradGradGradGradGradGradGradGradGrad
 Berny optimization.
 Using GEDIIS/GDIIS optimizer.
 FormGI is forming the generalized inverse of G from B-inverse, IUseBI=4.
 Internal  Forces:  Max     0.005050359 RMS     0.001373083
 Search for a local minimum.
 Step number   3 out of a maximum of   81
 All quantities printed in internal units (Hartrees-Bohrs-Radians)
 Mixed Optimization -- RFO/linear search
 Update second derivatives using D2CorX and points    1    2    3
 DE= -1.94D-03 DEPred=-1.44D-03 R= 1.35D+00
 TightC=F SS=  1.41D+00  RLast= 2.28D-01 DXNew= 8.4853D-01 6.8488D-01
 Trust test= 1.35D+00 RLast= 2.28D-01 DXMaxT set to 6.85D-01
 ITU=  1  1  0
 Use linear search instead of GDIIS.
     Eigenvalues ---    0.00426   0.02034   0.02880   0.03741   0.03802
     Eigenvalues ---    0.03844   0.03851   0.03853   0.03864   0.03874
     Eigenvalues ---    0.03876   0.06847   0.10573   0.11288   0.11411
     Eigenvalues ---    0.12156   0.12423   0.12434   0.12698   0.14141
     Eigenvalues ---    0.16000   0.16000   0.16000   0.16000   0.16013
     Eigenvalues ---    0.16784   0.18288   0.20627   0.20883   0.20958
     Eigenvalues ---    0.21500   0.40940   0.43754   0.44544   0.44680
     Eigenvalues ---    0.44804   0.44938   0.44999   0.50726   0.52599
     Eigenvalues ---    0.53065   0.53250   0.53366   0.53452   0.53561
     Eigenvalues ---    0.53798   0.616691000.000001000.000001000.00000
     Eigenvalues --- 1000.000001000.000001000.000001000.000001000.00000
     Eigenvalues --- 1000.000001000.000001000.000001000.000001000.00000
     Eigenvalues --- 1000.000001000.000001000.000001000.000001000.00000
     Eigenvalues --- 1000.000001000.000001000.000001000.000001000.00000
     Eigenvalues --- 1000.00000
 RFO step:  Lambda=-6.52640477D-04 EMin= 4.25979853D-03
 Quartic linear search produced a step of  0.35136.
 Iteration  1 RMS(Cart)=  0.10040065 RMS(Int)=  0.00272811
 Iteration  2 RMS(Cart)=  0.00526175 RMS(Int)=  0.00045735
 Iteration  3 RMS(Cart)=  0.00001510 RMS(Int)=  0.00045731
 Iteration  4 RMS(Cart)=  0.00000002 RMS(Int)=  0.00045731
 Iteration  1 RMS(Cart)=  0.00027060 RMS(Int)=  0.00003134
 Iteration  2 RMS(Cart)=  0.00002071 RMS(Int)=  0.00003243
 Iteration  3 RMS(Cart)=  0.00000159 RMS(Int)=  0.00003260
 Iteration  4 RMS(Cart)=  0.00000012 RMS(Int)=  0.00003261
 Variable       Old X    -DE/DX   Delta X   Delta X   Delta X     New X
                                 (Linear)    (Quad)   (Total)
    R1        3.15974  -0.00126   0.00562   0.00031   0.00664   3.16639
    R2        3.11890  -0.00275   0.00180  -0.00391  -0.00211   3.11679
    R3        3.11989  -0.00298   0.00117  -0.00405  -0.00288   3.11700
    R4        3.10761  -0.00247  -0.00015  -0.00332  -0.00347   3.10414
    R5        9.07068  -0.00505  -0.00000   0.00000   0.00000   9.07068
    R6        4.19040  -0.00069  -0.01657  -0.02078  -0.03653   4.15387
    R7        1.82327   0.00056  -0.00140   0.00040  -0.00100   1.82228
    R8        1.82066   0.00065  -0.00087   0.00040  -0.00047   1.82019
    R9        1.82088   0.00077  -0.00138   0.00095  -0.00042   1.82046
   R10        1.82852   0.00205  -0.00022   0.00377   0.00355   1.83207
   R11        3.12633  -0.00402   0.00123  -0.00639  -0.00516   3.12117
   R12        3.13063  -0.00323   0.00246  -0.00484  -0.00238   3.12825
   R13        3.11083  -0.00226   0.00108  -0.00408  -0.00300   3.10783
   R14        3.14866  -0.00145   0.00508  -0.00005   0.00581   3.15447
   R15        1.81887   0.00081  -0.00185   0.00127  -0.00058   1.81829
   R16        1.82393   0.00052  -0.00105   0.00048  -0.00056   1.82336
   R17        1.81998   0.00023  -0.00131   0.00017  -0.00114   1.81884
   R18        1.83082   0.00121  -0.00012   0.00169   0.00225   1.83307
    A1        1.83245   0.00003  -0.01036  -0.00201  -0.01204   1.82041
    A2        2.00853   0.00065   0.01695   0.00495   0.02189   2.03041
    A3        1.81910  -0.00026  -0.01578   0.00037  -0.01510   1.80399
    A4        1.88317  -0.00095  -0.00554  -0.00739  -0.01280   1.87037
    A5        2.04929   0.00055   0.02042   0.00512   0.02534   2.07463
    A6        1.87685   0.00010  -0.00426  -0.00015  -0.00420   1.87265
    A7        1.92633  -0.00420  -0.02444  -0.03256  -0.05621   1.87012
    A8        2.02636   0.00143   0.01184   0.00358   0.01377   2.04013
    A9        2.09385   0.00144   0.00025   0.00417   0.00328   2.09712
   A10        2.04340  -0.00013   0.00803   0.00029   0.00831   2.05171
   A11        2.03678  -0.00108   0.00611  -0.00512   0.00099   2.03777
   A12        2.05779  -0.00092   0.00687  -0.00358   0.00329   2.06108
   A13        1.93732   0.00010   0.00266   0.00155   0.00420   1.94153
   A14        1.87767   0.00036  -0.00405   0.00189  -0.00216   1.87551
   A15        1.92843  -0.00048   0.00211  -0.00290  -0.00080   1.92763
   A16        1.90665   0.00027  -0.00100   0.00189   0.00090   1.90755
   A17        1.89831  -0.00036   0.00023  -0.00229  -0.00207   1.89624
   A18        1.91532   0.00013   0.00000  -0.00006  -0.00005   1.91527
   A19        2.04910  -0.00063   0.00986  -0.00083   0.00903   2.05813
   A20        2.02934   0.00012   0.00666   0.00282   0.00948   2.03882
   A21        2.06170   0.00030   0.01275   0.00352   0.01627   2.07797
   A22        1.98764   0.00065   0.00352   0.00584   0.01056   1.99820
   A23        2.40704   0.00055   0.00200   0.00295   0.00668   2.41373
    D1       -1.62482   0.00011   0.00447   0.00966   0.01385  -1.61097
    D2        0.83313  -0.00103  -0.01166  -0.01939  -0.03131   0.80182
    D3        2.59079   0.00091   0.00851   0.01741   0.02587   2.61666
    D4       -1.23444  -0.00023  -0.00762  -0.01164  -0.01929  -1.25373
    D5        0.53992   0.00062   0.01461   0.01472   0.02963   0.56955
    D6        2.99788  -0.00052  -0.00152  -0.01433  -0.01554   2.98234
    D7       -2.74348  -0.00015  -0.00968  -0.00094  -0.01090  -2.75438
    D8       -0.59317   0.00012   0.00149  -0.00017   0.00141  -0.59176
    D9        1.52939  -0.00013   0.00561  -0.00276   0.00303   1.53242
   D10       -1.71298   0.00042   0.00782   0.01174   0.01953  -1.69346
   D11        2.53121   0.00065   0.01424   0.01639   0.03060   2.56181
   D12        0.30501   0.00053  -0.00464   0.01495   0.01037   0.31539
   D13       -0.57437   0.00123   0.02557   0.02813   0.05404  -0.52033
   D14        1.44328   0.00138   0.01328   0.02860   0.04160   1.48487
   D15       -2.71408   0.00057   0.01660   0.02225   0.03881  -2.67528
   D16       -1.08485  -0.00046  -0.00205   0.05290   0.05067  -1.03418
   D17        2.77059   0.00086   0.01076   0.08435   0.09409   2.86468
   D18        2.26274   0.00055  -0.00026   0.00574   0.00547   2.26821
   D19        0.17760  -0.00006   0.00191   0.00136   0.00327   0.18087
   D20       -1.91294  -0.00016   0.00315   0.00195   0.00511  -1.90782
   D21        1.22096   0.00067   0.02112   0.02769   0.04881   1.26977
   D22       -2.99450   0.00134   0.01713   0.03214   0.04927  -2.94523
   D23       -0.90424   0.00145   0.01668   0.03183   0.04851  -0.85574
   D24        3.00836   0.00019  -0.00073   0.00024  -0.00049   3.00787
   D25        0.90377  -0.00030  -0.00095  -0.00384  -0.00479   0.89898
   D26       -1.17598  -0.00010  -0.00062  -0.00216  -0.00278  -1.17876
   D27       -1.01721   0.00039  -0.00152   0.00672   0.00520  -1.01201
   D28        1.11340  -0.00003   0.00324   0.00531   0.00856   1.12195
   D29       -3.08493   0.00016   0.00217   0.00620   0.00837  -3.07656
   D30       -1.35022  -0.00122  -0.02326  -0.07713  -0.10197  -1.45219
         Item               Value     Threshold  Converged?
 Maximum Force            0.004017     0.000450     NO 
 RMS     Force            0.001233     0.000300     NO 
 Maximum Displacement     0.260091     0.001800     NO 
 RMS     Displacement     0.102499     0.001200     NO 
 Predicted change in Energy=-5.723605D-04
 GradGradGradGradGradGradGradGradGradGradGradGradGradGradGradGradGradGrad

                          Input orientation:                          
 ---------------------------------------------------------------------
 Center     Atomic      Atomic             Coordinates (Angstroms)
 Number     Number       Type             X           Y           Z
 ---------------------------------------------------------------------
      1         14           0       -6.816853    0.077184   -0.113797
      2          8           0       -5.198251   -0.055955    0.298482
      3          8           0       -6.967939    1.619450   -0.678499
      4          8           0       -7.902029   -0.099474    1.115780
      5          8           0       -7.048093   -1.173978   -1.152735
      6          1           0       -6.296501   -1.464659   -1.691734
      7          1           0       -8.297842   -0.971182    1.222987
      8          1           0       -7.846066    2.014999   -0.664650
      9         14           0       -3.330590   -2.953251   -1.418565
     10          8           0       -1.745784   -2.557544   -1.174097
     11          8           0       -4.050678   -3.442462   -0.010556
     12          8           0       -3.369149   -4.186657   -2.505718
     13          8           0       -4.172214   -1.643832   -2.021528
     14          1           0       -4.145533   -0.854659   -1.458118
     15          1           0       -4.207102   -4.624175   -2.686807
     16          1           0       -1.089214   -2.942950   -1.762490
     17          1           0       -4.238747   -2.757881    0.642877
     18          1           0       -4.815584    0.670978    0.803478
[...]

                          Input orientation:                          
 ---------------------------------------------------------------------
 Center     Atomic      Atomic             Coordinates (Angstroms)
 Number     Number       Type             X           Y           Z
 ---------------------------------------------------------------------
      1         14           0       -6.631181    0.302743   -0.039788
      2          8           0       -5.138011    0.517190   -0.757693
      3          8           0       -7.634162    1.360932   -0.807990
      4          8           0       -6.694496    0.702857    1.559804
      5          8           0       -6.967986   -1.292722   -0.195882
      6          1           0       -6.416597   -1.769965   -0.843187
      7          1           0       -6.425670    0.016351    2.181329
      8          1           0       -8.400702    1.668226   -0.310937
      9         14           0       -3.594373   -3.138246   -1.445980
     10          8           0       -2.924011   -2.702697   -0.004102
     11          8           0       -4.343945   -4.608624   -1.469222
     12          8           0       -2.358331   -3.234584   -2.533158
     13          8           0       -4.752706   -2.011605   -1.781780
     14          1           0       -4.554006   -1.078197   -1.567968
     15          1           0       -2.517317   -3.760880   -3.324987
     16          1           0       -2.046322   -3.052696    0.186575
     17          1           0       -5.213412   -4.678294   -1.059796
     18          1           0       -4.924941    1.414161   -1.040927
 ---------------------------------------------------------------------
                    Distance matrix (angstroms):
                    1          2          3          4          5
     1  Si   0.000000
     2  O    1.670608   0.000000
     3  O    1.647989   2.635374   0.000000
     4  O    1.650089   2.797840   2.631061   0.000000
     5  O    1.638082   2.634430   2.803631   2.671996   0.000000
     6  H    2.233296   2.621673   3.359497   3.459254   0.975087
     7  H    2.248914   3.247576   3.493476   0.964288   2.767474
     8  H    2.251503   3.488499   0.963885   2.709750   3.291371
     9  Si   4.799998   4.027254   6.080257   5.779236   4.043510
    10  O    4.772532   3.979620   6.272547   5.316029   4.287021
    11  O    5.603236   5.235531   6.848237   6.550719   4.416129
    12  O    6.081680   4.995469   7.206203   7.145495   5.521106
    13  O    3.452450   2.755362   4.541482   4.722821   2.817682
    14  H    2.925233   1.882251   4.001784   4.187697   2.784949
    15  H    6.650522   5.635683   7.664877   7.825277   5.974241
    16  H    5.686049   4.816044   7.189800   6.131514   5.240855
    17  H    5.278373   5.204806   6.511197   6.165444   3.909856
    18  H    2.269093   0.964457   2.719737   3.225070   3.495047
                    6          7          8          9         10
     6  H    0.000000
     7  H    3.512649   0.000000
     8  H    4.005136   3.583410   0.000000
     9  Si   3.193823   5.578987   6.891393   0.000000
    10  O    3.711093   4.942767   7.013791   1.648666   0.000000
    11  O    3.570125   6.249040   7.562919   1.650579   2.792015
    12  O    4.633642   7.024116   8.092346   1.648950   2.645566
    13  O    1.925586   4.755802   5.386317   1.650399   2.642324
    14  H    2.114970   4.331096   4.890811   2.275869   2.782366
    15  H    5.032640   7.737068   8.554175   2.253529   3.509050
    16  H    4.669595   5.707608   7.931757   2.251447   0.963948
    17  H    3.154830   5.832166   7.141283   2.267637   3.202942
    18  H    3.521761   3.819554   3.560667   4.760136   4.693320
                   11         12         13         14         15
    11  O    0.000000
    12  O    2.638675   0.000000
    13  O    2.647505   2.791644   0.000000
    14  H    3.538049   3.225304   0.977982   0.000000
    15  H    2.738448   0.963981   3.230853   3.798948   0.000000
    16  H    3.231354   2.743607   3.504684   3.642190   3.613091
    17  H    0.963565   3.522298   2.800847   3.695099   3.638910
    18  H    6.065883   5.515893   3.509189   2.574338   6.147735
                   16         17         18
    16  H    0.000000
    17  H    3.771800   0.000000
    18  H    5.453992   6.099310   0.000000
 Stoichiometry    H8O8Si2
 Framework group  C1[X(H8O8Si2)]
 Deg. of freedom    48
 Full point group                 C1      NOp   1
 Largest Abelian subgroup         C1      NOp   1
 Largest concise Abelian subgroup C1      NOp   1
                         Standard orientation:                         
 ---------------------------------------------------------------------
 Center     Atomic      Atomic             Coordinates (Angstroms)
 Number     Number       Type             X           Y           Z
 ---------------------------------------------------------------------
      1         14           0       -2.402609   -0.024208   -0.017590
      2          8           0       -1.409227    1.301196    0.200185
      3          8           0       -3.567763    0.479153   -1.068738
      4          8           0       -3.202739   -0.520197    1.337616
      5          8           0       -1.417388   -1.233432   -0.518020
      6          1           0       -0.536602   -0.948647   -0.824463
      7          1           0       -2.722594   -1.120579    1.919727
      8          1           0       -4.416580    0.024741   -1.022972
      9         14           0        2.397260    0.000282    0.007697
     10          8           0        2.078115    0.018424    1.625076
     11          8           0        2.994300   -1.419422   -0.585930
     12          8           0        3.562458    1.136403   -0.257971
     13          8           0        0.957772    0.263769   -0.755368
     14          1           0        0.346279    0.916019   -0.359018
     15          1           0        4.075862    1.049535   -1.069223
     16          1           0        2.824500    0.191793    2.209924
     17          1           0        2.378595   -2.149577   -0.713367
     18          1           0       -1.838790    2.164539    0.183098
 ---------------------------------------------------------------------
 Rotational constants (GHZ):           2.0301700           0.3696089           0.3682321

 **********************************************************************

            Population analysis using the SCF Density.

 **********************************************************************

 Orbital symmetries:
       Occupied  (A) (A) (A) (A) (A) (A) (A) (A) (A) (A) (A) (A)
                 (A) (A) (A) (A) (A) (A) (A) (A) (A) (A) (A) (A)
                 (A) (A) (A) (A) (A) (A) (A) (A) (A) (A) (A) (A)
                 (A) (A) (A) (A) (A) (A) (A) (A) (A) (A) (A) (A)
                 (A) (A)
       Virtual   (A) (A) (A) (A) (A) (A) (A) (A) (A) (A) (A) (A)
                 (A) (A) (A) (A) (A) (A) (A) (A) (A) (A) (A) (A)
                 (A) (A) (A) (A) (A) (A) (A) (A) (A) (A) (A) (A)
                 (A) (A) (A) (A) (A) (A) (A) (A) (A) (A) (A) (A)
                 (A) (A) (A) (A) (A) (A) (A) (A) (A) (A) (A) (A)
                 (A) (A) (A) (A) (A) (A) (A) (A) (A) (A) (A) (A)
                 (A) (A) (A) (A) (A) (A) (A) (A) (A) (A) (A) (A)
                 (A) (A) (A) (A) (A) (A) (A) (A) (A) (A) (A) (A)
                 (A) (A) (A) (A) (A) (A) (A) (A) (A) (A) (A) (A)
                 (A) (A) (A) (A) (A) (A) (A) (A) (A) (A) (A) (A)
                 (A) (A) (A) (A) (A) (A) (A) (A) (A) (A) (A) (A)
                 (A) (A) (A) (A) (A) (A) (A) (A) (A) (A) (A) (A)
                 (A) (A) (A) (A) (A) (A) (A) (A) (A) (A) (A) (A)
                 (A) (A) (A) (A) (A) (A) (A) (A) (A) (A) (A) (A)
                 (A) (A) (A) (A) (A) (A) (A) (A) (A) (A) (A) (A)
                 (A) (A) (A) (A) (A) (A) (A) (A)
 The electronic state is 1-A.
 Alpha  occ. eigenvalues --  -66.22432 -66.22297 -19.18362 -19.17127 -19.17117
 Alpha  occ. eigenvalues --  -19.17111 -19.17060 -19.16948 -19.16945 -19.15919
 Alpha  occ. eigenvalues --   -5.35782  -5.35640  -3.71807  -3.71747  -3.71719
 Alpha  occ. eigenvalues --   -3.71624  -3.71620  -3.71604  -1.05237  -1.04621
 Alpha  occ. eigenvalues --   -1.01943  -1.01152  -1.01112  -1.00897  -1.00617
 Alpha  occ. eigenvalues --   -0.99949  -0.60139  -0.59901  -0.55017  -0.53829
 Alpha  occ. eigenvalues --   -0.53539  -0.53338  -0.52833  -0.52452  -0.41586
 Alpha  occ. eigenvalues --   -0.41243  -0.39639  -0.39352  -0.38509  -0.38483
 Alpha  occ. eigenvalues --   -0.38009  -0.37683  -0.36483  -0.36114  -0.35784
 Alpha  occ. eigenvalues --   -0.35353  -0.33643  -0.32902  -0.32824  -0.32283
 Alpha virt. eigenvalues --   -0.03139  -0.01393   0.00920   0.01501   0.02130
 Alpha virt. eigenvalues --    0.02518   0.04140   0.06573   0.09817   0.10645
 Alpha virt. eigenvalues --    0.11099   0.11374   0.11964   0.12893   0.13513
 Alpha virt. eigenvalues --    0.14247   0.14488   0.14678   0.15163   0.15394
 Alpha virt. eigenvalues --    0.15565   0.16612   0.16667   0.17432   0.18238
 Alpha virt. eigenvalues --    0.18730   0.18854   0.19561   0.20235   0.20966
 Alpha virt. eigenvalues --    0.21395   0.22132   0.22644   0.23063   0.23662
 Alpha virt. eigenvalues --    0.24403   0.25583   0.26302   0.26808   0.27287
 Alpha virt. eigenvalues --    0.27587   0.28101   0.29121   0.30182   0.31032
 Alpha virt. eigenvalues --    0.31398   0.31966   0.34261   0.34766   0.35548
 Alpha virt. eigenvalues --    0.36935   0.38449   0.39990   0.41528   0.42870
 Alpha virt. eigenvalues --    0.44120   0.46655   0.46727   0.47350   0.47908
 Alpha virt. eigenvalues --    0.50294   0.50947   0.60652   0.61756   0.63205
 Alpha virt. eigenvalues --    0.65193   0.68594   0.71473   0.92992   0.93922
 Alpha virt. eigenvalues --    0.94729   0.95014   0.95832   0.96573   0.99353
 Alpha virt. eigenvalues --    0.99482   1.00671   1.00919   1.01723   1.03501
 Alpha virt. eigenvalues --    1.10856   1.14228   1.15350   1.15973   1.16293
 Alpha virt. eigenvalues --    1.16933   1.17859   1.18701   1.19218   1.19693
 Alpha virt. eigenvalues --    1.20269   1.20984   1.21776   1.23025   1.24691
 Alpha virt. eigenvalues --    1.25133   1.25941   1.26934   1.27049   1.29509
 Alpha virt. eigenvalues --    1.30177   1.30955   1.31548   1.33389   1.33945
 Alpha virt. eigenvalues --    1.38324   1.47555   1.48287   1.51893   1.53639
 Alpha virt. eigenvalues --    1.53962   1.55308   1.59268   1.60182   1.60359
 Alpha virt. eigenvalues --    1.60866   1.61429   1.62320   1.64734   1.67746
 Alpha virt. eigenvalues --    1.68171   1.68671   1.70625   1.72384   1.74301
 Alpha virt. eigenvalues --    1.74816   1.77267   1.78049   1.86828   1.88509
 Alpha virt. eigenvalues --    1.89098   1.92544   1.93528   1.94266   2.03156
 Alpha virt. eigenvalues --    2.03650   2.11716   2.13134   2.33221   2.35956
 Alpha virt. eigenvalues --    2.38135   2.38213   2.38562   2.39934   2.40117
 Alpha virt. eigenvalues --    2.43375   2.45702   2.46758   2.58630   2.59136
 Alpha virt. eigenvalues --    2.59413   2.59980   2.61087   2.61262   2.62687
 Alpha virt. eigenvalues --    2.63669   2.64500   2.65124   2.65475   2.66228
 Alpha virt. eigenvalues --    2.67319   2.69775   2.70636   2.73929   2.78693
 Alpha virt. eigenvalues --    2.80218   2.81123   2.82327   2.83762   2.88265
 Alpha virt. eigenvalues --    3.00868   3.01745   3.39994   3.41743   3.42046
 Alpha virt. eigenvalues --    3.44433   3.45991   3.47149   3.52937   3.59944
 Alpha virt. eigenvalues --    4.12106   4.14780   4.17497   4.19575   4.22219
 Alpha virt. eigenvalues --    4.26236   4.29642   4.38965
          Condensed to atoms (all electrons):
               1          2          3          4          5          6
     1  Si  11.621876  -0.063422   0.072711   0.081368   0.132162   0.023362
     2  O   -0.063422   8.667042   0.068567   0.035201   0.042038  -0.002307
     3  O    0.072711   0.068567   8.466278   0.019365   0.009876  -0.004044
     4  O    0.081368   0.035201   0.019365   8.461997   0.031039   0.003066
     5  O    0.132162   0.042038   0.009876   0.031039   8.464797   0.222528
     6  H    0.023362  -0.002307  -0.004044   0.003066   0.222528   0.308923
     7  H    0.027129  -0.005935   0.006446   0.242464  -0.001445   0.000084
     8  H    0.022988   0.004459   0.244419  -0.001161  -0.005197  -0.000005
     9  Si  -0.007469  -0.000239   0.001694  -0.000061  -0.010285   0.006246
    10  O   -0.002346   0.001445  -0.000126   0.000231   0.001258  -0.001047
    11  O    0.000599   0.000334  -0.000072   0.000112   0.001519   0.000060
    12  O    0.001510  -0.000835  -0.000010  -0.000011  -0.001072   0.000468
    13  O   -0.025886  -0.004787  -0.001965  -0.004590   0.026267   0.015220
    14  H    0.015035   0.000145  -0.000823   0.001025  -0.008281  -0.002488
    15  H   -0.000066  -0.000014   0.000000  -0.000000  -0.000003  -0.000002
    16  H   -0.000134  -0.000032  -0.000001   0.000008  -0.000043  -0.000006
    17  H   -0.000201  -0.000035  -0.000000  -0.000001  -0.000497   0.000060
    18  H    0.030136   0.231918   0.001620  -0.006058   0.005306   0.000080
               7          8          9         10         11         12
     1  Si   0.027129   0.022988  -0.007469  -0.002346   0.000599   0.001510
     2  O   -0.005935   0.004459  -0.000239   0.001445   0.000334  -0.000835
     3  O    0.006446   0.244419   0.001694  -0.000126  -0.000072  -0.000010
     4  O    0.242464  -0.001161  -0.000061   0.000231   0.000112  -0.000011
     5  O   -0.001445  -0.005197  -0.010285   0.001258   0.001519  -0.001072
     6  H    0.000084  -0.000005   0.006246  -0.001047   0.000060   0.000468
     7  H    0.359464   0.000080  -0.000082  -0.000067  -0.000001   0.000000
     8  H    0.000080   0.357707  -0.000023   0.000001  -0.000000  -0.000000
     9  Si  -0.000082  -0.000023  11.657913   0.055984   0.072791   0.048012
    10  O   -0.000067   0.000001   0.055984   8.539130  -0.013167   0.026729
    11  O   -0.000001  -0.000000   0.072791  -0.013167   8.467016   0.047602
    12  O    0.000000  -0.000000   0.048012   0.026729   0.047602   8.503523
    13  O   -0.000056   0.000063  -0.011813   0.048080   0.060007   0.020373
    14  H   -0.000000  -0.000004   0.021055  -0.001583   0.006035  -0.004861
    15  H   -0.000000   0.000000   0.037478   0.007032  -0.005030   0.239988
    16  H   -0.000000   0.000000   0.024282   0.237106  -0.004814  -0.002213
    17  H   -0.000000   0.000000   0.026615  -0.006960   0.244213   0.006871
    18  H    0.000068   0.000072   0.000528  -0.000101  -0.000002   0.000022
              13         14         15         16         17         18
     1  Si  -0.025886   0.015035  -0.000066  -0.000134  -0.000201   0.030136
     2  O   -0.004787   0.000145  -0.000014  -0.000032  -0.000035   0.231918
     3  O   -0.001965  -0.000823   0.000000  -0.000001  -0.000000   0.001620
     4  O   -0.004590   0.001025  -0.000000   0.000008  -0.000001  -0.006058
     5  O    0.026267  -0.008281  -0.000003  -0.000043  -0.000497   0.005306
     6  H    0.015220  -0.002488  -0.000002  -0.000006   0.000060   0.000080
     7  H   -0.000056  -0.000000  -0.000000  -0.000000  -0.000000   0.000068
     8  H    0.000063  -0.000004   0.000000   0.000000   0.000000   0.000072
     9  Si  -0.011813   0.021055   0.037478   0.024282   0.026615   0.000528
    10  O    0.048080  -0.001583   0.007032   0.237106  -0.006960  -0.000101
    11  O    0.060007   0.006035  -0.005030  -0.004814   0.244213  -0.000002
    12  O    0.020373  -0.004861   0.239988  -0.002213   0.006871   0.000022
    13  O    8.632375   0.242946  -0.009548   0.007389  -0.002709   0.002541
    14  H    0.242946   0.294952   0.000027  -0.000002   0.000022  -0.000937
    15  H   -0.009548   0.000027   0.357777   0.000064   0.000060  -0.000000
    16  H    0.007389  -0.000002   0.000064   0.360759   0.000067  -0.000000
    17  H   -0.002709   0.000022   0.000060   0.000067   0.363571   0.000000
    18  H    0.002541  -0.000937  -0.000000  -0.000000   0.000000   0.337312
 Mulliken charges:
               1
     1  Si   2.070649
     2  O   -0.973543
     3  O   -0.883935
     4  O   -0.863995
     5  O   -0.909968
     6  H    0.429804
     7  H    0.371852
     8  H    0.376605
     9  Si   2.077374
    10  O   -0.891601
    11  O   -0.877204
    12  O   -0.886095
    13  O   -0.993908
    14  H    0.437737
    15  H    0.372237
    16  H    0.377571
    17  H    0.368925
    18  H    0.397496
 Sum of Mulliken charges =  -0.00000
 Mulliken charges with hydrogens summed into heavy atoms:
               1
     1  Si   2.070649
     2  O   -0.576047
     3  O   -0.507331
     4  O   -0.492143
     5  O   -0.480164
     9  Si   2.077374
    10  O   -0.514030
    11  O   -0.508279
    12  O   -0.513858
    13  O   -0.556171
 Electronic spatial extent (au):  <R**2>=           2974.5443
 Charge=              0.0000 electrons
 Dipole moment (field-independent basis, Debye):
    X=              0.1002    Y=              0.1361    Z=              0.6611  Tot=              0.6824
 Quadrupole moment (field-independent basis, Debye-Ang):
   XX=            -66.3924   YY=            -67.8833   ZZ=            -70.1410
   XY=             -0.1718   XZ=             -0.3364   YZ=             -1.1624
 Traceless Quadrupole moment (field-independent basis, Debye-Ang):
   XX=              1.7465   YY=              0.2556   ZZ=             -2.0021
   XY=             -0.1718   XZ=             -0.3364   YZ=             -1.1624
 Octapole moment (field-independent basis, Debye-Ang**2):
  XXX=            -15.2135  YYY=              3.9775  ZZZ=             16.0722  XYY=            -10.2489
  XXY=              3.2563  XXZ=            -13.1348  XZZ=             22.1942  YZZ=             -4.6488
  YYZ=              2.2338  XYZ=             -3.6638
 Hexadecapole moment (field-independent basis, Debye-Ang**3):
 XXXX=          -2619.6128 YYYY=           -303.9638 ZZZZ=           -313.7067 XXXY=             94.6574
 XXXZ=             70.4606 YYYX=            -60.4461 YYYZ=              4.5955 ZZZX=              6.3606
 ZZZY=            -10.3219 XXYY=           -558.7202 XXZZ=           -477.4103 YYZZ=           -109.8102
 XXYZ=            -16.7486 YYXZ=            -29.7276 ZZXY=             36.6143
 N-N= 8.118225756468D+02 E-N=-4.433563729758D+03  KE= 1.178207747957D+03
 1\1\GINC-GRA1317\FOpt\RB3LYP\6-31+G(d,p)\H8O8Si2\SARASHS\29-Jul-2020\0
 \\#n B3LYP/6-31+G(d,p) EmpiricalDispersion=GD3 Opt=modredundant\\Title
 \\0,1\Si,-6.6311813368,0.3027430999,-0.0397884037\O,-5.1380114307,0.51
 71902151,-0.7576929619\O,-7.634162017,1.3609319452,-0.8079898579\O,-6.
 6944962032,0.7028568547,1.5598035256\O,-6.9679863773,-1.2927221393,-0.
 1958817967\H,-6.4165973027,-1.769964844,-0.8431865693\H,-6.4256701172,
 0.0163511789,2.1813286999\H,-8.4007016777,1.6682260344,-0.3109368516\S
 i,-3.594372731,-3.138245777,-1.4459796586\O,-2.9240105624,-2.702697003
 8,-0.0041020405\O,-4.3439445638,-4.6086237615,-1.4692224241\O,-2.35833
 09183,-3.2345844224,-2.5331575067\O,-4.7527061736,-2.0116051729,-1.781
 7804806\H,-4.5540060896,-1.0781971479,-1.5679681109\H,-2.5173174545,-3
 .76088042,-3.3249872099\H,-2.0463215573,-3.0526959371,0.1865748032\H,-
 5.2134124571,-4.6782941653,-1.0597964671\H,-4.9249410298,1.4141614629,
 -1.0409266891\\Version=ES64L-G16RevB.01\State=1-A\HF=-1186.0646763\RMS
 D=5.584e-09\RMSF=5.795e-05\Dipole=0.193537,0.0391652,0.181906\Quadrupo
 le=-0.6301626,0.7702758,-0.1401132,-0.905148,-1.1893852,-0.2359741\PG=
 C01 [X(H8O8Si2)]\\@


 YOU CAN WIPE THE SLATE CLEAN, BUT YOU'LL STILL
 HAVE TO EAT A LITTLE CHALK DUST.
 Job cpu time:       0 days  3 hours  7 minutes 10.3 seconds.
 Elapsed time:       0 days  0 hours 12 minutes 12.2 seconds.
 File lengths (MBytes):  RWF=     40 Int=      0 D2E=      0 Chk=      5 Scr=      1
 Normal termination of Gaussian 16 at Wed Jul 29 17:24:49 2020.
