 Entering Gaussian System, Link 0=g16
 Initial command:
 /opt/software/gaussian/g16.b01/l1.exe "/localscratch/sarashs.37136493.0/Gau-94357.inp" -scrdir="/localscratch/sarashs.37136493.0/"
 Entering Link 1 = /opt/software/gaussian/g16.b01/l1.exe PID=     94358.
  
 Copyright (c) 1988-2017, Gaussian, Inc.  All Rights Reserved.
  
 This is part of the Gaussian(R) 16 program.  It is based on
 the Gaussian(R) 09 system (copyright 2009, Gaussian, Inc.),
 the Gaussian(R) 03 system (copyright 2003, Gaussian, Inc.),
 the Gaussian(R) 98 system (copyright 1998, Gaussian, Inc.),
 the Gaussian(R) 94 system (copyright 1995, Gaussian, Inc.),
 the Gaussian 92(TM) system (copyright 1992, Gaussian, Inc.),
 the Gaussian 90(TM) system (copyright 1990, Gaussian, Inc.),
 the Gaussian 88(TM) system (copyright 1988, Gaussian, Inc.),
 the Gaussian 86(TM) system (copyright 1986, Carnegie Mellon
 University), and the Gaussian 82(TM) system (copyright 1983,
 Carnegie Mellon University). Gaussian is a federally registered
 trademark of Gaussian, Inc.
  
 This software contains proprietary and confidential information,
 including trade secrets, belonging to Gaussian, Inc.
  
 This software is provided under written license and may be
 used, copied, transmitted, or stored only in accord with that
 written license.
  
 The following legend is applicable only to US Government
 contracts under FAR:
  
                    RESTRICTED RIGHTS LEGEND
  
 Use, reproduction and disclosure by the US Government is
 subject to restrictions as set forth in subparagraphs (a)
 and (c) of the Commercial Computer Software - Restricted
 Rights clause in FAR 52.227-19.
  
 Gaussian, Inc.
 340 Quinnipiac St., Bldg. 40, Wallingford CT 06492
  
  
 ---------------------------------------------------------------
 Warning -- This program may not be used in any manner that
 competes with the business of Gaussian, Inc. or will provide
 assistance to any competitor of Gaussian, Inc.  The licensee
 of this program is prohibited from giving any competitor of
 Gaussian, Inc. access to this program.  By using this program,
 the user acknowledges that Gaussian, Inc. is engaged in the
 business of creating and licensing software in the field of
 computational chemistry and represents and warrants to the
 licensee that it is not a competitor of Gaussian, Inc. and that
 it will not use this program in any manner prohibited above.
 ---------------------------------------------------------------
  

 Cite this work as:
 Gaussian 16, Revision B.01,
 M. J. Frisch, G. W. Trucks, H. B. Schlegel, G. E. Scuseria, 
 M. A. Robb, J. R. Cheeseman, G. Scalmani, V. Barone, 
 G. A. Petersson, H. Nakatsuji, X. Li, M. Caricato, A. V. Marenich, 
 J. Bloino, B. G. Janesko, R. Gomperts, B. Mennucci, H. P. Hratchian, 
 J. V. Ortiz, A. F. Izmaylov, J. L. Sonnenberg, D. Williams-Young, 
 F. Ding, F. Lipparini, F. Egidi, J. Goings, B. Peng, A. Petrone, 
 T. Henderson, D. Ranasinghe, V. G. Zakrzewski, J. Gao, N. Rega, 
 G. Zheng, W. Liang, M. Hada, M. Ehara, K. Toyota, R. Fukuda, 
 J. Hasegawa, M. Ishida, T. Nakajima, Y. Honda, O. Kitao, H. Nakai, 
 T. Vreven, K. Throssell, J. A. Montgomery, Jr., J. E. Peralta, 
 F. Ogliaro, M. J. Bearpark, J. J. Heyd, E. N. Brothers, K. N. Kudin, 
 V. N. Staroverov, T. A. Keith, R. Kobayashi, J. Normand, 
 K. Raghavachari, A. P. Rendell, J. C. Burant, S. S. Iyengar, 
 J. Tomasi, M. Cossi, J. M. Millam, M. Klene, C. Adamo, R. Cammi, 
 J. W. Ochterski, R. L. Martin, K. Morokuma, O. Farkas, 
 J. B. Foresman, and D. J. Fox, Gaussian, Inc., Wallingford CT, 2016.
 
 ******************************************
 Gaussian 16:  ES64L-G16RevB.01 20-Dec-2017
                11-Aug-2020 
 ******************************************
 %NProcShared=16
 Will use up to   16 processors via shared memory.
 -------------------------------------------------------------
 #n B3LYP/6-31+G(d,p) EmpiricalDispersion=GD3 Opt=modredundant
 -------------------------------------------------------------
 1/18=120,19=15,26=3,38=1/1,3;
 2/9=110,12=2,17=6,18=5,40=1/2;
 3/5=1,6=6,7=111,11=2,25=1,30=1,71=1,74=-5,124=31/1,2,3;
 4//1;
 5/5=2,38=5/2;
 6/7=2,8=2,9=2,10=2,28=1/1;
 7//1,2,3,16;
 1/18=20,19=15,26=3/3(2);
 2/9=110/2;
 99//99;
 2/9=110/2;
 3/5=1,6=6,7=111,11=2,25=1,30=1,71=1,74=-5,124=31/1,2,3;
 4/5=5,16=3,69=1/1;
 5/5=2,38=5/2;
 7//1,2,3,16;
 1/18=20,19=15,26=3/3(-5);
 2/9=110/2;
 6/7=2,8=2,9=2,10=2,19=2,28=1/1;
 99/9=1/99;
 -----
 Title
 -----
 Symbolic Z-matrix:
 Charge =  0 Multiplicity = 1
 Si                   -1.97199   0.03198   0.02178 
 O                    -1.49839  -1.04281  -1.16096 
 O                    -3.61529   0.07731   0.01517 
 O                    -1.38578   1.53664  -0.16122 
 O                    -1.32513  -0.62357   1.41007 
 H                    -1.61852  -1.51781   1.62751 
 H                    -0.41713   1.65614  -0.27249 
 H                    -4.03179   0.8972    0.30533 
 Si                    2.0271   -0.03494  -0.03163 
 O                     3.66449   0.06488  -0.10788 
 O                     1.42592   1.49866  -0.3684 
 O                     1.61975  -0.48108   1.50075 
 O                     1.43425  -1.02871  -1.18619 
 H                     0.47492  -1.17257  -1.25798 
 H                     0.66731  -0.55119   1.68681 
 H                     4.16221  -0.56478   0.42535 
 H                     1.89319   2.2208    0.07078 
 H                    -1.95012  -0.97878  -2.01163 
 
 Add virtual bond connecting atoms O11        and H7         Dist= 3.50D+00.
 Add virtual bond connecting atoms H14        and O2         Dist= 3.74D+00.
 The following ModRedundant input section has been read:
 B       1       9 F                                                           
 

 GradGradGradGradGradGradGradGradGradGradGradGradGradGradGradGradGradGrad
 Berny optimization.
 Initialization pass.
                           ----------------------------
                           !    Initial Parameters    !
                           ! (Angstroms and Degrees)  !
 --------------------------                            --------------------------
 ! Name  Definition              Value          Derivative Info.                !
 --------------------------------------------------------------------------------
 ! R1    R(1,2)                  1.6668         estimate D2E/DX2                !
 ! R2    R(1,3)                  1.6439         estimate D2E/DX2                !
 ! R3    R(1,4)                  1.6252         estimate D2E/DX2                !
 ! R4    R(1,5)                  1.666          estimate D2E/DX2                !
 ! R5    R(1,9)                  4.0            Frozen                          !
 ! R6    R(2,14)                 1.98           estimate D2E/DX2                !
 ! R7    R(2,18)                 0.9653         estimate D2E/DX2                !
 ! R8    R(3,8)                  0.9643         estimate D2E/DX2                !
 ! R9    R(4,7)                  0.9823         estimate D2E/DX2                !
 ! R10   R(5,6)                  0.9659         estimate D2E/DX2                !
 ! R11   R(7,11)                 1.8523         estimate D2E/DX2                !
 ! R12   R(9,10)                 1.6422         estimate D2E/DX2                !
 ! R13   R(9,11)                 1.6813         estimate D2E/DX2                !
 ! R14   R(9,12)                 1.6472         estimate D2E/DX2                !
 ! R15   R(9,13)                 1.6346         estimate D2E/DX2                !
 ! R16   R(10,16)                0.9636         estimate D2E/DX2                !
 ! R17   R(11,17)                0.9658         estimate D2E/DX2                !
 ! R18   R(12,15)                0.973          estimate D2E/DX2                !
 ! R19   R(13,14)                0.9727         estimate D2E/DX2                !
 ! A1    A(2,1,3)              107.3944         estimate D2E/DX2                !
 ! A2    A(2,1,4)              114.4947         estimate D2E/DX2                !
 ! A3    A(2,1,5)              103.1351         estimate D2E/DX2                !
 ! A4    A(3,1,4)              109.5475         estimate D2E/DX2                !
 ! A5    A(3,1,5)              113.7235         estimate D2E/DX2                !
 ! A6    A(4,1,5)              108.5478         estimate D2E/DX2                !
 ! A7    A(1,2,14)             111.1129         estimate D2E/DX2                !
 ! A8    A(1,2,18)             116.7164         estimate D2E/DX2                !
 ! A9    A(14,2,18)            115.3131         estimate D2E/DX2                !
 ! A10   A(1,3,8)              116.9996         estimate D2E/DX2                !
 ! A11   A(1,4,7)              118.7559         estimate D2E/DX2                !
 ! A12   A(1,5,6)              115.7177         estimate D2E/DX2                !
 ! A13   A(10,9,11)            106.9644         estimate D2E/DX2                !
 ! A14   A(10,9,12)            107.8327         estimate D2E/DX2                !
 ! A15   A(10,9,13)            111.4553         estimate D2E/DX2                !
 ! A16   A(11,9,12)            110.1803         estimate D2E/DX2                !
 ! A17   A(11,9,13)            106.4619         estimate D2E/DX2                !
 ! A18   A(12,9,13)            113.749          estimate D2E/DX2                !
 ! A19   A(9,10,16)            116.7176         estimate D2E/DX2                !
 ! A20   A(7,11,9)             115.0224         estimate D2E/DX2                !
 ! A21   A(7,11,17)            113.2229         estimate D2E/DX2                !
 ! A22   A(9,11,17)            114.7058         estimate D2E/DX2                !
 ! A23   A(9,12,15)            116.0722         estimate D2E/DX2                !
 ! A24   A(9,13,14)            119.9822         estimate D2E/DX2                !
 ! A25   L(4,7,11,14,-1)       169.7853         estimate D2E/DX2                !
 ! A26   L(2,14,13,7,-1)       166.0916         estimate D2E/DX2                !
 ! A27   L(4,7,11,14,-2)       187.3464         estimate D2E/DX2                !
 ! A28   L(2,14,13,7,-2)       177.2677         estimate D2E/DX2                !
 ! D1    D(3,1,2,14)           179.5672         estimate D2E/DX2                !
 ! D2    D(3,1,2,18)            44.5394         estimate D2E/DX2                !
 ! D3    D(4,1,2,14)            57.6947         estimate D2E/DX2                !
 ! D4    D(4,1,2,18)           -77.3331         estimate D2E/DX2                !
 ! D5    D(5,1,2,14)           -60.0328         estimate D2E/DX2                !
 ! D6    D(5,1,2,18)           164.9394         estimate D2E/DX2                !
 ! D7    D(2,1,3,8)           -151.7167         estimate D2E/DX2                !
 ! D8    D(4,1,3,8)            -26.8074         estimate D2E/DX2                !
 ! D9    D(5,1,3,8)             94.8432         estimate D2E/DX2                !
 ! D10   D(2,1,4,7)            -52.8688         estimate D2E/DX2                !
 ! D11   D(3,1,4,7)           -173.5574         estimate D2E/DX2                !
 ! D12   D(5,1,4,7)             61.7309         estimate D2E/DX2                !
 ! D13   D(2,1,5,6)            -59.1788         estimate D2E/DX2                !
 ! D14   D(3,1,5,6)             56.7888         estimate D2E/DX2                !
 ! D15   D(4,1,5,6)            178.9933         estimate D2E/DX2                !
 ! D16   D(1,2,13,9)             1.9075         estimate D2E/DX2                !
 ! D17   D(18,2,13,9)          135.0567         estimate D2E/DX2                !
 ! D18   D(1,4,11,9)            -8.7205         estimate D2E/DX2                !
 ! D19   D(1,4,11,17)         -141.7547         estimate D2E/DX2                !
 ! D20   D(11,9,10,16)         152.8744         estimate D2E/DX2                !
 ! D21   D(12,9,10,16)          34.3843         estimate D2E/DX2                !
 ! D22   D(13,9,10,16)         -91.1355         estimate D2E/DX2                !
 ! D23   D(10,9,11,7)         -177.5809         estimate D2E/DX2                !
 ! D24   D(10,9,11,17)         -43.6532         estimate D2E/DX2                !
 ! D25   D(12,9,11,7)          -60.6299         estimate D2E/DX2                !
 ! D26   D(12,9,11,17)          73.2978         estimate D2E/DX2                !
 ! D27   D(13,9,11,7)           63.1508         estimate D2E/DX2                !
 ! D28   D(13,9,11,17)        -162.9215         estimate D2E/DX2                !
 ! D29   D(10,9,12,15)         178.2709         estimate D2E/DX2                !
 ! D30   D(11,9,12,15)          61.8614         estimate D2E/DX2                !
 ! D31   D(13,9,12,15)         -57.5816         estimate D2E/DX2                !
 ! D32   D(10,9,13,14)        -179.5276         estimate D2E/DX2                !
 ! D33   D(11,9,13,14)         -63.2301         estimate D2E/DX2                !
 ! D34   D(12,9,13,14)          58.3046         estimate D2E/DX2                !
 --------------------------------------------------------------------------------
 Trust Radius=3.00D-01 FncErr=1.00D-07 GrdErr=1.00D-06 EigMax=2.50D+02 EigMin=1.00D-04
 Number of steps in this run=     91 maximum allowed number of steps=    108.
 GradGradGradGradGradGradGradGradGradGradGradGradGradGradGradGradGradGrad

                          Input orientation:                          
 ---------------------------------------------------------------------
 Center     Atomic      Atomic             Coordinates (Angstroms)
 Number     Number       Type             X           Y           Z
 ---------------------------------------------------------------------
      1         14           0       -1.971990    0.031980    0.021780
      2          8           0       -1.498390   -1.042810   -1.160960
      3          8           0       -3.615290    0.077310    0.015170
      4          8           0       -1.385780    1.536640   -0.161220
      5          8           0       -1.325130   -0.623570    1.410070
      6          1           0       -1.618520   -1.517810    1.627510
      7          1           0       -0.417130    1.656140   -0.272490
      8          1           0       -4.031790    0.897200    0.305330
      9         14           0        2.027100   -0.034940   -0.031630
     10          8           0        3.664490    0.064880   -0.107880
     11          8           0        1.425920    1.498660   -0.368400
     12          8           0        1.619750   -0.481080    1.500750
     13          8           0        1.434250   -1.028710   -1.186190
     14          1           0        0.474920   -1.172570   -1.257980
     15          1           0        0.667310   -0.551190    1.686810
     16          1           0        4.162210   -0.564780    0.425350
     17          1           0        1.893190    2.220800    0.070780
     18          1           0       -1.950120   -0.978780   -2.011630
 ---------------------------------------------------------------------
                    Distance matrix (angstroms):
                    1          2          3          4          5
     1  Si   0.000000
     2  O    1.666837   0.000000
     3  O    1.643938   2.668186   0.000000
     4  O    1.625156   2.768704   2.670482   0.000000
     5  O    1.665990   2.610743   2.771608   2.671917   0.000000
     6  H    2.259460   2.831187   3.021777   3.547307   0.965931
     7  H    2.267616   3.040203   3.578223   0.982316   2.975323
     8  H    2.252062   3.511661   0.964305   2.761869   3.295330
     9  Si   4.000006   3.836700   5.643700   3.759575   3.696272
    10  O    5.638067   5.384356   7.280830   5.260623   5.260650
    11  O    3.721449   3.954594   5.251777   2.819579   3.903216
    12  O    3.918058   4.137999   5.470319   3.983284   2.949719
    13  O    3.766527   2.932782   5.307014   3.947677   3.810365
    14  H    3.012656   1.979950   4.462390   3.464810   3.264977
    15  H    3.174636   3.611335   4.640049   3.462575   2.012869
    16  H    6.176358   5.898075   7.814732   5.961562   5.575305
    17  H    4.442179   4.865300   5.911091   3.357610   4.499080
    18  H    2.270874   0.965298   2.827726   3.173300   3.496401
                    6          7          8          9         10
     6  H    0.000000
     7  H    3.889383   0.000000
     8  H    3.661189   3.738400   0.000000
     9  Si   4.271088   2.981950   6.139428   0.000000
    10  O    5.781581   4.383928   7.752175   1.642201   0.000000
    11  O    4.727723   1.852251   5.531931   1.681297   2.671103
    12  O    3.402539   3.443976   5.938736   1.647168   2.658331
    13  O    4.180375   3.386868   5.984259   1.634643   2.707889
    14  H    3.581583   3.125467   5.199839   2.281973   3.609345
    15  H    2.482517   3.144387   5.107628   2.251350   3.547329
    16  H    5.980827   5.137102   8.324267   2.246832   0.963603
    17  H    5.360291   2.402968   6.075551   2.262031   2.795964
    18  H    3.693758   3.509625   3.636063   4.541972   6.019745
                   11         12         13         14         15
    11  O    0.000000
    12  O    2.729590   0.000000
    13  O    2.656398   2.748446   0.000000
    14  H    2.971737   3.065842   0.972709   0.000000
    15  H    3.000210   0.972973   3.011702   3.015778   0.000000
    16  H    3.517827   2.761810   3.202196   4.098672   3.715615
    17  H    0.965767   3.069159   3.514245   3.910505   3.434860
    18  H    4.498395   5.032742   3.483935   2.546834   4.551069
                   16         17         18
    16  H    0.000000
    17  H    3.610212   0.000000
    18  H    6.593242   5.417082   0.000000
 Stoichiometry    H8O8Si2
 Framework group  C1[X(H8O8Si2)]
 Deg. of freedom    48
 Full point group                 C1      NOp   1
 Largest Abelian subgroup         C1      NOp   1
 Largest concise Abelian subgroup C1      NOp   1
                         Standard orientation:                         
 ---------------------------------------------------------------------
 Center     Atomic      Atomic             Coordinates (Angstroms)
 Number     Number       Type             X           Y           Z
 ---------------------------------------------------------------------
      1         14           0       -1.997105    0.031962    0.021582
      2          8           0       -1.522955   -1.042914   -1.160860
      3          8           0       -3.640413    0.076928    0.014530
      4          8           0       -1.411178    1.536721   -0.161505
      5          8           0       -1.350467   -0.623223    1.410148
      6          1           0       -1.643717   -1.517493    1.627654
      7          1           0       -0.442525    1.656417   -0.272538
      8          1           0       -4.057170    0.896772    0.304449
      9         14           0        2.002014   -0.034084   -0.030760
     10          8           0        3.639402    0.066085   -0.106594
     11          8           0        1.400585    1.499329   -0.367935
     12          8           0        1.594357   -0.480069    1.501584
     13          8           0        1.409689   -1.028171   -1.185317
     14          1           0        0.450409   -1.172254   -1.257338
     15          1           0        0.641884   -0.550359    1.687403
     16          1           0        4.137120   -0.563380    0.426869
     17          1           0        1.867579    2.221642    0.071252
     18          1           0       -1.974474   -0.979120   -2.011660
 ---------------------------------------------------------------------
 Rotational constants (GHZ):           1.9568020           0.4951911           0.4924134
 Standard basis: 6-31+G(d,p) (6D, 7F)
 There are   238 symmetry adapted cartesian basis functions of A   symmetry.
 There are   238 symmetry adapted basis functions of A   symmetry.
   238 basis functions,   424 primitive gaussians,   238 cartesian basis functions
    50 alpha electrons       50 beta electrons
       nuclear repulsion energy       853.9289144984 Hartrees.
 NAtoms=   18 NActive=   18 NUniq=   18 SFac= 1.00D+00 NAtFMM=   60 NAOKFM=F Big=F
 Integral buffers will be    131072 words long.
 Raffenetti 2 integral format.
 Two-electron integral symmetry is turned on.
 Nuclear repulsion after empirical dispersion term =      853.9129291542 Hartrees.
 One-electron integrals computed using PRISM.
 NBasis=   238 RedAO= T EigKep=  2.44D-04  NBF=   238
 NBsUse=   238 1.00D-06 EigRej= -1.00D+00 NBFU=   238
 ExpMin= 3.31D-02 ExpMax= 1.61D+04 ExpMxC= 2.43D+03 IAcc=3 IRadAn=         5 AccDes= 0.00D+00
 Harris functional with IExCor=  402 and IRadAn=       5 diagonalized for initial guess.
 HarFok:  IExCor=  402 AccDes= 0.00D+00 IRadAn=         5 IDoV= 1 UseB2=F ITyADJ=14
 ICtDFT=  3500011 ScaDFX=  1.000000  1.000000  1.000000  1.000000
 FoFCou: FMM=F IPFlag=           0 FMFlag=      100000 FMFlg1=           0
         NFxFlg=           0 DoJE=T BraDBF=F KetDBF=T FulRan=T
         wScrn=  0.000000 ICntrl=       500 IOpCl=  0 I1Cent=   200000004 NGrid=           0
         NMat0=    1 NMatS0=      1 NMatT0=    0 NMatD0=    1 NMtDS0=    0 NMtDT0=    0
 Petite list used in FoFCou.
 Requested convergence on RMS density matrix=1.00D-08 within 128 cycles.
 Requested convergence on MAX density matrix=1.00D-06.
 Requested convergence on             energy=1.00D-06.
 No special actions if energy rises.
 SCF Done:  E(RB3LYP) =  -1186.07410714     A.U. after   12 cycles
            NFock= 12  Conv=0.24D-08     -V/T= 2.0067

 **********************************************************************

            Population analysis using the SCF Density.

 **********************************************************************

 Orbital symmetries:
       Occupied  (A) (A) (A) (A) (A) (A) (A) (A) (A) (A) (A) (A)
                 (A) (A) (A) (A) (A) (A) (A) (A) (A) (A) (A) (A)
                 (A) (A) (A) (A) (A) (A) (A) (A) (A) (A) (A) (A)
                 (A) (A) (A) (A) (A) (A) (A) (A) (A) (A) (A) (A)
                 (A) (A)
       Virtual   (A) (A) (A) (A) (A) (A) (A) (A) (A) (A) (A) (A)
                 (A) (A) (A) (A) (A) (A) (A) (A) (A) (A) (A) (A)
                 (A) (A) (A) (A) (A) (A) (A) (A) (A) (A) (A) (A)
                 (A) (A) (A) (A) (A) (A) (A) (A) (A) (A) (A) (A)
                 (A) (A) (A) (A) (A) (A) (A) (A) (A) (A) (A) (A)
                 (A) (A) (A) (A) (A) (A) (A) (A) (A) (A) (A) (A)
                 (A) (A) (A) (A) (A) (A) (A) (A) (A) (A) (A) (A)
                 (A) (A) (A) (A) (A) (A) (A) (A) (A) (A) (A) (A)
                 (A) (A) (A) (A) (A) (A) (A) (A) (A) (A) (A) (A)
                 (A) (A) (A) (A) (A) (A) (A) (A) (A) (A) (A) (A)
                 (A) (A) (A) (A) (A) (A) (A) (A) (A) (A) (A) (A)
                 (A) (A) (A) (A) (A) (A) (A) (A) (A) (A) (A) (A)
                 (A) (A) (A) (A) (A) (A) (A) (A) (A) (A) (A) (A)
                 (A) (A) (A) (A) (A) (A) (A) (A) (A) (A) (A) (A)
                 (A) (A) (A) (A) (A) (A) (A) (A) (A) (A) (A) (A)
                 (A) (A) (A) (A) (A) (A) (A) (A)
 The electronic state is 1-A.
 Alpha  occ. eigenvalues --  -66.23735 -66.21760 -19.19282 -19.19226 -19.18557
 Alpha  occ. eigenvalues --  -19.17885 -19.16783 -19.16724 -19.15494 -19.15336
 Alpha  occ. eigenvalues --   -5.37083  -5.35089  -3.73080  -3.73071  -3.73023
 Alpha  occ. eigenvalues --   -3.71117  -3.71059  -3.71018  -1.06356  -1.04288
 Alpha  occ. eigenvalues --   -1.02965  -1.02770  -1.01515  -1.00719  -1.00018
 Alpha  occ. eigenvalues --   -0.99321  -0.61475  -0.59563  -0.55628  -0.55372
 Alpha  occ. eigenvalues --   -0.54030  -0.52954  -0.52585  -0.51764  -0.43128
 Alpha  occ. eigenvalues --   -0.42392  -0.40969  -0.40261  -0.39684  -0.38789
 Alpha  occ. eigenvalues --   -0.37918  -0.37660  -0.37293  -0.35968  -0.35161
 Alpha  occ. eigenvalues --   -0.34730  -0.34121  -0.33819  -0.33437  -0.31113
 Alpha virt. eigenvalues --   -0.03721  -0.00961   0.00520   0.00751   0.01971
 Alpha virt. eigenvalues --    0.04478   0.05319   0.06392   0.09193   0.09658
 Alpha virt. eigenvalues --    0.09919   0.10959   0.12279   0.13226   0.13456
 Alpha virt. eigenvalues --    0.14591   0.14791   0.14861   0.15092   0.15469
 Alpha virt. eigenvalues --    0.16152   0.16323   0.16902   0.17504   0.18082
 Alpha virt. eigenvalues --    0.18812   0.19379   0.20951   0.21037   0.21550
 Alpha virt. eigenvalues --    0.21831   0.22249   0.22879   0.23637   0.24384
 Alpha virt. eigenvalues --    0.25146   0.25394   0.26148   0.26974   0.27808
 Alpha virt. eigenvalues --    0.28093   0.28578   0.29284   0.29993   0.30207
 Alpha virt. eigenvalues --    0.31400   0.32899   0.34008   0.35720   0.37139
 Alpha virt. eigenvalues --    0.37818   0.38769   0.40852   0.41422   0.43718
 Alpha virt. eigenvalues --    0.45428   0.45972   0.47008   0.49810   0.50404
 Alpha virt. eigenvalues --    0.51874   0.58393   0.61301   0.62583   0.63099
 Alpha virt. eigenvalues --    0.63765   0.65074   0.77636   0.92366   0.92874
 Alpha virt. eigenvalues --    0.94430   0.96410   0.97261   0.98029   0.99595
 Alpha virt. eigenvalues --    1.00077   1.01201   1.01677   1.02907   1.10012
 Alpha virt. eigenvalues --    1.11225   1.12873   1.15545   1.16282   1.16612
 Alpha virt. eigenvalues --    1.17741   1.18025   1.18373   1.19315   1.20214
 Alpha virt. eigenvalues --    1.21073   1.21526   1.23039   1.24011   1.24381
 Alpha virt. eigenvalues --    1.25897   1.26490   1.27770   1.28663   1.29870
 Alpha virt. eigenvalues --    1.30844   1.31620   1.33629   1.35346   1.36343
 Alpha virt. eigenvalues --    1.38015   1.49542   1.50648   1.53975   1.55309
 Alpha virt. eigenvalues --    1.55977   1.56692   1.58201   1.58796   1.60128
 Alpha virt. eigenvalues --    1.62396   1.62716   1.63500   1.66272   1.67813
 Alpha virt. eigenvalues --    1.69185   1.71909   1.72971   1.74028   1.77223
 Alpha virt. eigenvalues --    1.78320   1.80292   1.83050   1.85181   1.89018
 Alpha virt. eigenvalues --    1.91054   1.91318   1.98343   2.00774   2.02765
 Alpha virt. eigenvalues --    2.04205   2.10220   2.11166   2.34436   2.36314
 Alpha virt. eigenvalues --    2.37443   2.38632   2.39847   2.44001   2.45738
 Alpha virt. eigenvalues --    2.46113   2.47366   2.49985   2.57383   2.58998
 Alpha virt. eigenvalues --    2.59325   2.60076   2.61647   2.61825   2.62139
 Alpha virt. eigenvalues --    2.63912   2.64137   2.65456   2.66560   2.67255
 Alpha virt. eigenvalues --    2.68423   2.69337   2.70675   2.73409   2.76010
 Alpha virt. eigenvalues --    2.77294   2.79302   2.83376   2.85018   2.85606
 Alpha virt. eigenvalues --    2.99577   3.02804   3.40656   3.42577   3.43178
 Alpha virt. eigenvalues --    3.43368   3.44475   3.56037   3.56884   3.60259
 Alpha virt. eigenvalues --    4.15913   4.19876   4.24892   4.26682   4.29199
 Alpha virt. eigenvalues --    4.29700   4.34809   4.42216
          Condensed to atoms (all electrons):
               1          2          3          4          5          6
     1  Si  11.691269  -0.031153   0.031852   0.118438  -0.057251   0.043059
     2  O   -0.031153   8.690258  -0.016269   0.036807   0.104482  -0.009198
     3  O    0.031852  -0.016269   8.647577  -0.038725  -0.067265  -0.002493
     4  O    0.118438   0.036807  -0.038725   8.527869   0.085711   0.005590
     5  O   -0.057251   0.104482  -0.067265   0.085711   8.652695   0.239196
     6  H    0.043059  -0.009198  -0.002493   0.005590   0.239196   0.352405
     7  H    0.025037  -0.004407   0.007198   0.233174  -0.004346  -0.000030
     8  H    0.034141   0.004161   0.235116  -0.001206  -0.003602   0.000033
     9  Si  -0.125024   0.068783  -0.008465   0.049865   0.086643  -0.003821
    10  O   -0.006320   0.002442  -0.000202   0.003001   0.003196  -0.000023
    11  O    0.075246  -0.026565   0.003394  -0.057008  -0.027415   0.000336
    12  O    0.030709  -0.023153   0.002313  -0.017865  -0.032361   0.000681
    13  O    0.066626  -0.040904   0.003772  -0.030742  -0.037342   0.000426
    14  H    0.006162   0.008464   0.000003   0.000704  -0.000754   0.000008
    15  H   -0.002997   0.001482   0.000083   0.001148   0.010374  -0.001372
    16  H    0.000300  -0.000010   0.000000  -0.000006  -0.000025  -0.000000
    17  H   -0.003114   0.000273  -0.000037   0.002786   0.000363  -0.000001
    18  H    0.026031   0.241359  -0.000792  -0.007348   0.005060   0.000049
               7          8          9         10         11         12
     1  Si   0.025037   0.034141  -0.125024  -0.006320   0.075246   0.030709
     2  O   -0.004407   0.004161   0.068783   0.002442  -0.026565  -0.023153
     3  O    0.007198   0.235116  -0.008465  -0.000202   0.003394   0.002313
     4  O    0.233174  -0.001206   0.049865   0.003001  -0.057008  -0.017865
     5  O   -0.004346  -0.003602   0.086643   0.003196  -0.027415  -0.032361
     6  H   -0.000030   0.000033  -0.003821  -0.000023   0.000336   0.000681
     7  H    0.280812   0.000027   0.004560  -0.000020   0.017687   0.001274
     8  H    0.000027   0.352415   0.000151   0.000000  -0.000004  -0.000006
     9  Si   0.004560   0.000151  11.670992   0.024156  -0.091685   0.104715
    10  O   -0.000020   0.000000   0.024156   8.614772  -0.005377  -0.016073
    11  O    0.017687  -0.000004  -0.091685  -0.005377   8.737391   0.078862
    12  O    0.001274  -0.000006   0.104715  -0.016073   0.078862   8.517969
    13  O   -0.000158  -0.000003   0.024674  -0.035935   0.090009   0.044540
    14  H   -0.000032  -0.000001   0.031629   0.005498  -0.002829  -0.006395
    15  H    0.000032  -0.000001   0.032935   0.008868  -0.007331   0.235356
    16  H   -0.000002  -0.000000   0.035506   0.236266   0.003083  -0.002143
    17  H   -0.002432  -0.000000   0.032359   0.003069   0.237160  -0.011368
    18  H    0.000158   0.000051  -0.002102  -0.000007   0.000172   0.000057
              13         14         15         16         17         18
     1  Si   0.066626   0.006162  -0.002997   0.000300  -0.003114   0.026031
     2  O   -0.040904   0.008464   0.001482  -0.000010   0.000273   0.241359
     3  O    0.003772   0.000003   0.000083   0.000000  -0.000037  -0.000792
     4  O   -0.030742   0.000704   0.001148  -0.000006   0.002786  -0.007348
     5  O   -0.037342  -0.000754   0.010374  -0.000025   0.000363   0.005060
     6  H    0.000426   0.000008  -0.001372  -0.000000  -0.000001   0.000049
     7  H   -0.000158  -0.000032   0.000032  -0.000002  -0.002432   0.000158
     8  H   -0.000003  -0.000001  -0.000001  -0.000000  -0.000000   0.000051
     9  Si   0.024674   0.031629   0.032935   0.035506   0.032359  -0.002102
    10  O   -0.035935   0.005498   0.008868   0.236266   0.003069  -0.000007
    11  O    0.090009  -0.002829  -0.007331   0.003083   0.237160   0.000172
    12  O    0.044540  -0.006395   0.235356  -0.002143  -0.011368   0.000057
    13  O    8.569428   0.233438  -0.007636  -0.003901   0.005765   0.000914
    14  H    0.233438   0.307852   0.000058  -0.000026  -0.000061  -0.000939
    15  H   -0.007636   0.000058   0.309142   0.000042   0.000193  -0.000014
    16  H   -0.003901  -0.000026   0.000042   0.359817   0.000081   0.000000
    17  H    0.005765  -0.000061   0.000193   0.000081   0.347750  -0.000000
    18  H    0.000914  -0.000939  -0.000014   0.000000  -0.000000   0.342916
 Mulliken charges:
               1
     1  Si   2.076987
     2  O   -1.006852
     3  O   -0.797062
     4  O   -0.912193
     5  O   -0.957359
     6  H    0.375154
     7  H    0.441465
     8  H    0.378728
     9  Si   2.064129
    10  O   -0.837311
    11  O   -1.025127
    12  O   -0.907111
    13  O   -0.882971
    14  H    0.417221
    15  H    0.419638
    16  H    0.371018
    17  H    0.387212
    18  H    0.394435
 Sum of Mulliken charges =  -0.00000
 Mulliken charges with hydrogens summed into heavy atoms:
               1
     1  Si   2.076987
     2  O   -0.612417
     3  O   -0.418334
     4  O   -0.470728
     5  O   -0.582205
     9  Si   2.064129
    10  O   -0.466294
    11  O   -0.637915
    12  O   -0.487472
    13  O   -0.465750
 Electronic spatial extent (au):  <R**2>=           2336.7852
 Charge=             -0.0000 electrons
 Dipole moment (field-independent basis, Debye):
    X=             -2.4393    Y=             -0.0068    Z=              0.9904  Tot=              2.6327
 Quadrupole moment (field-independent basis, Debye-Ang):
   XX=            -66.9614   YY=            -68.2260   ZZ=            -72.6336
   XY=              0.7278   XZ=              4.5241   YZ=             -0.4514
 Traceless Quadrupole moment (field-independent basis, Debye-Ang):
   XX=              2.3123   YY=              1.0477   ZZ=             -3.3600
   XY=              0.7278   XZ=              4.5241   YZ=             -0.4514
 Octapole moment (field-independent basis, Debye-Ang**2):
  XXX=             -3.0310  YYY=              6.2556  ZZZ=            -13.7041  XYY=              2.8892
  XXY=              6.4132  XXZ=             22.4695  XZZ=            -24.7317  YZZ=             -7.4057
  YYZ=             12.1456  XYZ=             -1.9297
 Hexadecapole moment (field-independent basis, Debye-Ang**3):
 XXXX=          -1917.6885 YYYY=           -340.6730 ZZZZ=           -342.8202 XXXY=           -170.6411
 XXXZ=             49.7560 YYYX=             49.4251 YYYZ=             -6.7510 ZZZX=             22.1385
 ZZZY=              3.4078 XXYY=           -357.3675 XXZZ=           -401.4968 YYZZ=           -113.0211
 XXYZ=              3.6721 YYXZ=             -3.0238 ZZXY=             25.8199
 N-N= 8.539129291542D+02 E-N=-4.517399324972D+03  KE= 1.178200247061D+03
 Calling FoFJK, ICntrl=      2127 FMM=F ISym2X=0 I1Cent= 0 IOpClX= 0 NMat=1 NMatS=1 NMatT=0.
 ***** Axes restored to original set *****
 -------------------------------------------------------------------
 Center     Atomic                   Forces (Hartrees/Bohr)
 Number     Number              X              Y              Z
 -------------------------------------------------------------------
      1       14           0.000697248   -0.001966471    0.000108558
      2        8           0.000652512    0.000436034    0.000170077
      3        8           0.000004064    0.000374936   -0.000001931
      4        8           0.002503037    0.001007516   -0.000355819
      5        8           0.000752312    0.000352170   -0.000225355
      6        1           0.000064374    0.000107098   -0.000060427
      7        1          -0.001015396   -0.000059855    0.000246347
      8        1          -0.000091868   -0.000045168    0.000015416
      9       14          -0.000548206    0.001803883   -0.000312341
     10        8          -0.000067814   -0.000276274    0.000124771
     11        8          -0.001068890   -0.000775428    0.000160247
     12        8          -0.001241758   -0.000359885    0.000368388
     13        8          -0.001378685   -0.000564171   -0.000356912
     14        1           0.000426440    0.000145891    0.000058534
     15        1           0.000278241   -0.000042800    0.000075156
     16        1           0.000079962   -0.000022171   -0.000044125
     17        1          -0.000166672   -0.000063612   -0.000019357
     18        1           0.000121098   -0.000051691    0.000048773
 -------------------------------------------------------------------
 Cartesian Forces:  Max     0.002503037 RMS     0.000672850

 GradGradGradGradGradGradGradGradGradGradGradGradGradGradGradGradGradGrad
 Berny optimization.
 FormGI is forming the generalized inverse of G from B-inverse, IUseBI=4.
 Internal  Forces:  Max     0.002320319 RMS     0.000483962
 Search for a local minimum.
 Step number   1 out of a maximum of   91
 All quantities printed in internal units (Hartrees-Bohrs-Radians)
 Mixed Optimization -- En-DIIS/RFO-DIIS
 Second derivative matrix not updated -- first step.
 ITU=  0
     Eigenvalues ---    0.01352   0.02553   0.02910   0.03251   0.03466
     Eigenvalues ---    0.03715   0.03730   0.03758   0.03781   0.03937
     Eigenvalues ---    0.04443   0.04731   0.06646   0.07776   0.08218
     Eigenvalues ---    0.08481   0.10852   0.11333   0.11543   0.11614
     Eigenvalues ---    0.11913   0.12805   0.14349   0.16000   0.16000
     Eigenvalues ---    0.16000   0.16000   0.17034   0.17362   0.18980
     Eigenvalues ---    0.19749   0.36728   0.38788   0.40316   0.43081
     Eigenvalues ---    0.43581   0.43773   0.43853   0.44889   0.47568
     Eigenvalues ---    0.50014   0.52774   0.54217   0.54251   0.54349
     Eigenvalues ---    0.54558   0.547061000.000001000.000001000.00000
     Eigenvalues --- 1000.000001000.000001000.000001000.000001000.00000
     Eigenvalues --- 1000.000001000.000001000.000001000.000001000.00000
     Eigenvalues --- 1000.000001000.000001000.000001000.000001000.00000
     Eigenvalues --- 1000.000001000.000001000.000001000.000001000.00000
     Eigenvalues --- 1000.000001000.000001000.000001000.000001000.00000
     Eigenvalues --- 1000.000001000.000001000.000001000.000001000.00000
     Eigenvalues --- 1000.00000
 RFO step:  Lambda=-8.57281565D-05 EMin= 1.35167264D-02
 Linear search not attempted -- first point.
 Iteration  1 RMS(Cart)=  0.01159118 RMS(Int)=  0.00004434
 Iteration  2 RMS(Cart)=  0.00005521 RMS(Int)=  0.00000925
 Iteration  3 RMS(Cart)=  0.00000000 RMS(Int)=  0.00000925
 Iteration  1 RMS(Cart)=  0.00000449 RMS(Int)=  0.00000106
 Iteration  2 RMS(Cart)=  0.00000095 RMS(Int)=  0.00000115
 Variable       Old X    -DE/DX   Delta X   Delta X   Delta X     New X
                                 (Linear)    (Quad)   (Total)
    R1        3.14986  -0.00033   0.00000  -0.00032  -0.00032   3.14955
    R2        3.10659   0.00010   0.00000   0.00022   0.00022   3.10682
    R3        3.07110   0.00098   0.00000   0.00235   0.00236   3.07346
    R4        3.14826  -0.00010   0.00000  -0.00025  -0.00025   3.14801
    R5        7.55892  -0.00232   0.00000   0.00000  -0.00000   7.55892
    R6        3.74156  -0.00051   0.00000  -0.00052  -0.00051   3.74105
    R7        1.82415  -0.00010   0.00000  -0.00019  -0.00019   1.82396
    R8        1.82227   0.00001   0.00000   0.00001   0.00001   1.82228
    R9        1.85631  -0.00190   0.00000  -0.00284  -0.00282   1.85348
   R10        1.82535  -0.00013   0.00000  -0.00025  -0.00025   1.82510
   R11        3.50025  -0.00084   0.00000  -0.00658  -0.00657   3.49368
   R12        3.10331  -0.00001   0.00000  -0.00002  -0.00002   3.10329
   R13        3.17719  -0.00052   0.00000  -0.00077  -0.00076   3.17643
   R14        3.11270   0.00076   0.00000   0.00176   0.00176   3.11446
   R15        3.08903   0.00063   0.00000   0.00165   0.00165   3.09068
   R16        1.82095   0.00003   0.00000   0.00006   0.00006   1.82100
   R17        1.82504  -0.00014   0.00000  -0.00025  -0.00025   1.82478
   R18        1.83865  -0.00025   0.00000  -0.00048  -0.00048   1.83817
   R19        1.83815  -0.00095   0.00000  -0.00091  -0.00090   1.83726
    A1        1.87439   0.00030   0.00000   0.00476   0.00477   1.87916
    A2        1.99831  -0.00009   0.00000  -0.00432  -0.00435   1.99396
    A3        1.80005  -0.00020   0.00000  -0.00196  -0.00199   1.79806
    A4        1.91196  -0.00001   0.00000   0.00249   0.00251   1.91447
    A5        1.98485   0.00061   0.00000   0.00483   0.00484   1.98969
    A6        1.89452  -0.00058   0.00000  -0.00590  -0.00592   1.88860
    A7        1.93929  -0.00002   0.00000   0.00106   0.00107   1.94035
    A8        2.03709   0.00001   0.00000   0.00046   0.00045   2.03754
    A9        2.01259   0.00010   0.00000  -0.00062  -0.00063   2.01197
   A10        2.04203   0.00018   0.00000   0.00112   0.00112   2.04315
   A11        2.07268  -0.00007   0.00000  -0.00110  -0.00109   2.07159
   A12        2.01966  -0.00002   0.00000  -0.00012  -0.00012   2.01953
   A13        1.86688   0.00045   0.00000   0.00550   0.00551   1.87239
   A14        1.88204   0.00031   0.00000   0.00300   0.00300   1.88503
   A15        1.94526   0.00002   0.00000   0.00301   0.00302   1.94828
   A16        1.92301  -0.00024   0.00000  -0.00199  -0.00201   1.92100
   A17        1.85811  -0.00004   0.00000  -0.00377  -0.00380   1.85431
   A18        1.98530  -0.00045   0.00000  -0.00522  -0.00524   1.98006
   A19        2.03711   0.00013   0.00000   0.00084   0.00084   2.03795
   A20        2.00752   0.00028   0.00000   0.00404   0.00405   2.01157
   A21        1.97611  -0.00036   0.00000  -0.00159  -0.00159   1.97452
   A22        2.00199   0.00007   0.00000  -0.00022  -0.00022   2.00178
   A23        2.02584   0.00026   0.00000   0.00160   0.00160   2.02744
   A24        2.09408  -0.00015   0.00000  -0.00152  -0.00151   2.09258
   A25        2.96331   0.00018   0.00000   0.00591   0.00592   2.96923
   A26        2.89884   0.00011   0.00000   0.00496   0.00496   2.90381
   A27        3.26981   0.00065   0.00000   0.01103   0.01101   3.28082
   A28        3.09391  -0.00055   0.00000  -0.00870  -0.00868   3.08522
    D1        3.13404   0.00005   0.00000  -0.00021  -0.00022   3.13382
    D2        0.77736  -0.00010   0.00000  -0.00090  -0.00091   0.77645
    D3        1.00696  -0.00010   0.00000  -0.00406  -0.00406   1.00290
    D4       -1.34972  -0.00025   0.00000  -0.00475  -0.00475  -1.35447
    D5       -1.04777   0.00078   0.00000   0.00650   0.00649  -1.04128
    D6        2.87874   0.00063   0.00000   0.00580   0.00580   2.88454
    D7       -2.64796   0.00005   0.00000   0.00083   0.00083  -2.64712
    D8       -0.46788   0.00012   0.00000   0.00017   0.00017  -0.46771
    D9        1.65533  -0.00022   0.00000  -0.00229  -0.00230   1.65303
   D10       -0.92273   0.00014   0.00000   0.00223   0.00223  -0.92051
   D11       -3.02915  -0.00019   0.00000  -0.00282  -0.00282  -3.03197
   D12        1.07741  -0.00055   0.00000  -0.00656  -0.00654   1.07086
   D13       -1.03287  -0.00032   0.00000  -0.00461  -0.00461  -1.03748
   D14        0.99115   0.00021   0.00000   0.00217   0.00218   0.99333
   D15        3.12402   0.00018   0.00000   0.00431   0.00431   3.12833
   D16        0.03329   0.00005   0.00000   0.00668   0.00668   0.03997
   D17        2.35718   0.00025   0.00000   0.01012   0.01012   2.36730
   D18       -0.15220   0.00012   0.00000   0.00835   0.00836  -0.14384
   D19       -2.47409   0.00024   0.00000   0.00918   0.00918  -2.46491
   D20        2.66816  -0.00001   0.00000   0.00131   0.00131   2.66947
   D21        0.60012  -0.00013   0.00000  -0.00085  -0.00085   0.59927
   D22       -1.59061   0.00021   0.00000   0.00161   0.00161  -1.58900
   D23       -3.09937   0.00018   0.00000  -0.00186  -0.00187  -3.10124
   D24       -0.76189  -0.00001   0.00000  -0.00016  -0.00016  -0.76205
   D25       -1.05819   0.00067   0.00000   0.00377   0.00377  -1.05443
   D26        1.27929   0.00049   0.00000   0.00547   0.00547   1.28476
   D27        1.10219  -0.00005   0.00000  -0.00622  -0.00623   1.09596
   D28       -2.84352  -0.00023   0.00000  -0.00453  -0.00452  -2.84804
   D29        3.11142   0.00023   0.00000   0.00192   0.00192   3.11333
   D30        1.07969  -0.00036   0.00000  -0.00529  -0.00529   1.07440
   D31       -1.00499   0.00017   0.00000   0.00446   0.00446  -1.00053
   D32       -3.13335  -0.00026   0.00000  -0.00203  -0.00203  -3.13537
   D33       -1.10357   0.00026   0.00000   0.00392   0.00392  -1.09966
   D34        1.01761  -0.00035   0.00000  -0.00443  -0.00441   1.01320
         Item               Value     Threshold  Converged?
 Maximum Force            0.001590     0.000450     NO 
 RMS     Force            0.000389     0.000300     NO 
 Maximum Displacement     0.046633     0.001800     NO 
 RMS     Displacement     0.011586     0.001200     NO 
 Predicted change in Energy=-4.271920D-05
 GradGradGradGradGradGradGradGradGradGradGradGradGradGradGradGradGradGrad

                          Input orientation:                          
 ---------------------------------------------------------------------
 Center     Atomic      Atomic             Coordinates (Angstroms)
 Number     Number       Type             X           Y           Z
 ---------------------------------------------------------------------
      1         14           0       -1.971747    0.032714    0.021260
      2          8           0       -1.497048   -1.042729   -1.160208
      3          8           0       -3.615230    0.075870    0.025526
      4          8           0       -1.384530    1.537278   -0.170194
      5          8           0       -1.307297   -0.613154    1.405614
      6          1           0       -1.593843   -1.507768    1.629955
      7          1           0       -0.417544    1.654266   -0.285359
      8          1           0       -4.031845    0.895704    0.315699
      9         14           0        2.027343   -0.034820   -0.031353
     10          8           0        3.665367    0.062098   -0.096692
     11          8           0        1.422742    1.497241   -0.366984
     12          8           0        1.604339   -0.487554    1.495847
     13          8           0        1.435278   -1.024481   -1.191070
     14          1           0        0.476080   -1.164928   -1.264922
     15          1           0        0.650609   -0.557907    1.673688
     16          1           0        4.159143   -0.570310    0.437009
     17          1           0        1.885149    2.219530    0.076779
     18          1           0       -1.951965   -0.983677   -2.009425
 ---------------------------------------------------------------------
                    Distance matrix (angstroms):
                    1          2          3          4          5
     1  Si   0.000000
     2  O    1.666669   0.000000
     3  O    1.644056   2.672812   0.000000
     4  O    1.626404   2.765723   2.673957   0.000000
     5  O    1.665856   2.608445   2.775960   2.667114   0.000000
     6  H    2.259159   2.830308   3.027889   3.543538   0.965801
     7  H    2.266934   3.033888   3.579551   0.980822   2.965172
     8  H    2.252876   3.515824   0.964311   2.766945   3.299656
     9  Si   4.000006   3.835561   5.643946   3.759209   3.676842
    10  O    5.638424   5.385373   7.281636   5.261466   5.238347
    11  O    3.717273   3.950421   5.249335   2.814446   3.879302
    12  O    3.903009   4.120856   5.451899   3.976051   2.915741
    13  O    3.767654   2.932545   5.310227   3.944124   3.799168
    14  H    3.013381   1.979680   4.465832   3.458644   3.258321
    15  H    3.155329   3.588656   4.616871   3.454199   1.976945
    16  H    6.174487   5.896336   7.812026   5.961790   5.551756
    17  H    4.434060   4.859190   5.903565   3.349219   4.470080
    18  H    2.270930   0.965197   2.833746   3.171745   3.495050
                    6          7          8          9         10
     6  H    0.000000
     7  H    3.879507   0.000000
     8  H    3.667125   3.741639   0.000000
     9  Si   4.247647   2.982449   6.140040   0.000000
    10  O    5.753701   4.386429   7.753196   1.642189   0.000000
    11  O    4.702938   1.848775   5.529957   1.680893   2.676203
    12  O    3.359642   3.442107   5.922223   1.648102   2.661979
    13  O    4.167412   3.380672   5.987228   1.635516   2.711386
    14  H    3.575253   3.115440   5.202495   2.281502   3.611358
    15  H    2.437563   3.142058   5.087484   2.253038   3.550692
    16  H    5.949689   5.139710   8.322031   2.247373   0.963634
    17  H    5.329962   2.398554   6.067983   2.261417   2.802460
    18  H    3.694322   3.505081   3.642002   4.544006   6.025496
                   11         12         13         14         15
    11  O    0.000000
    12  O    2.728100   0.000000
    13  O    2.652990   2.745250   0.000000
    14  H    2.964727   3.058374   0.972234   0.000000
    15  H    2.997359   0.972717   3.006698   3.005722   0.000000
    16  H    3.522650   2.766769   3.205676   4.100621   3.720126
    17  H    0.965633   3.069350   3.511899   3.903869   3.433418
    18  H    4.499023   5.018004   3.484936   2.546083   4.529899
                   16         17         18
    16  H    0.000000
    17  H    3.617184   0.000000
    18  H    6.595570   5.416292   0.000000
 Stoichiometry    H8O8Si2
 Framework group  C1[X(H8O8Si2)]
 Deg. of freedom    48
 Full point group                 C1      NOp   1
 Largest Abelian subgroup         C1      NOp   1
 Largest concise Abelian subgroup C1      NOp   1
                         Standard orientation:                         
 ---------------------------------------------------------------------
 Center     Atomic      Atomic             Coordinates (Angstroms)
 Number     Number       Type             X           Y           Z
 ---------------------------------------------------------------------
      1         14           0       -1.997214    0.030528    0.021530
      2          8           0       -1.521268   -1.045916   -1.158523
      3          8           0       -3.640746    0.071800    0.025725
      4          8           0       -1.411725    1.535513   -0.171889
      5          8           0       -1.332038   -0.612762    1.406736
      6          1           0       -1.617557   -1.507411    1.632246
      7          1           0       -0.444873    1.653461   -0.287199
      8          1           0       -4.058306    0.891535    0.314819
      9         14           0        2.001951   -0.032480   -0.030958
     10          8           0        3.639863    0.066234   -0.096408
     11          8           0        1.395593    1.498444   -0.368601
     12          8           0        1.579452   -0.483698    1.496831
     13          8           0        1.411036   -1.024339   -1.189382
     14          1           0        0.452001   -1.165985   -1.263059
     15          1           0        0.625801   -0.554914    1.674755
     16          1           0        4.134360   -0.564905    0.438125
     17          1           0        1.857165    2.221845    0.074220
     18          1           0       -1.976242   -0.988500   -2.007821
 ---------------------------------------------------------------------
 Rotational constants (GHZ):           1.9614658           0.4962113           0.4934484
 Standard basis: 6-31+G(d,p) (6D, 7F)
 There are   238 symmetry adapted cartesian basis functions of A   symmetry.
 There are   238 symmetry adapted basis functions of A   symmetry.
   238 basis functions,   424 primitive gaussians,   238 cartesian basis functions
    50 alpha electrons       50 beta electrons
       nuclear repulsion energy       854.5026207270 Hartrees.
 NAtoms=   18 NActive=   18 NUniq=   18 SFac= 1.00D+00 NAtFMM=   60 NAOKFM=F Big=F
 Integral buffers will be    131072 words long.
 Raffenetti 2 integral format.
 Two-electron integral symmetry is turned on.
 Nuclear repulsion after empirical dispersion term =      854.4865985032 Hartrees.
 One-electron integrals computed using PRISM.
 NBasis=   238 RedAO= T EigKep=  2.43D-04  NBF=   238
 NBsUse=   238 1.00D-06 EigRej= -1.00D+00 NBFU=   238
 Initial guess from the checkpoint file:  "/localscratch/sarashs.37136493.0/Gau-94358.chk"
 B after Tr=    -0.000000    0.000000    0.000000
         Rot=    1.000000    0.000609   -0.000058   -0.000337 Ang=   0.08 deg.
 ExpMin= 3.31D-02 ExpMax= 1.61D+04 ExpMxC= 2.43D+03 IAcc=3 IRadAn=         5 AccDes= 0.00D+00
 Harris functional with IExCor=  402 and IRadAn=       5 diagonalized for initial guess.
 HarFok:  IExCor=  402 AccDes= 0.00D+00 IRadAn=         5 IDoV= 1 UseB2=F ITyADJ=14
 ICtDFT=  3500011 ScaDFX=  1.000000  1.000000  1.000000  1.000000
 FoFCou: FMM=F IPFlag=           0 FMFlag=      100000 FMFlg1=           0
         NFxFlg=           0 DoJE=T BraDBF=F KetDBF=T FulRan=T
         wScrn=  0.000000 ICntrl=       500 IOpCl=  0 I1Cent=   200000004 NGrid=           0
         NMat0=    1 NMatS0=      1 NMatT0=    0 NMatD0=    1 NMtDS0=    0 NMtDT0=    0
 Petite list used in FoFCou.
 Requested convergence on RMS density matrix=1.00D-08 within 128 cycles.
 Requested convergence on MAX density matrix=1.00D-06.
 Requested convergence on             energy=1.00D-06.
 No special actions if energy rises.
 SCF Done:  E(RB3LYP) =  -1186.07413604     A.U. after    9 cycles
            NFock=  9  Conv=0.45D-08     -V/T= 2.0067
 Calling FoFJK, ICntrl=      2127 FMM=F ISym2X=0 I1Cent= 0 IOpClX= 0 NMat=1 NMatS=1 NMatT=0.
 ***** Axes restored to original set *****
 -------------------------------------------------------------------
 Center     Atomic                   Forces (Hartrees/Bohr)
 Number     Number              X              Y              Z
 -------------------------------------------------------------------
      1       14           0.002063382   -0.000431254   -0.000391642
      2        8           0.000064643    0.000260926    0.000158554
      3        8           0.000529189    0.000109022    0.000018596
      4        8           0.000175952    0.000407434   -0.000311306
      5        8          -0.000172939   -0.000225830    0.000266709
      6        1          -0.000147997   -0.000125479    0.000054409
      7        1           0.000257849    0.000010617    0.000303216
      8        1          -0.000025773   -0.000009579    0.000032634
      9       14          -0.002241147    0.000598492    0.000477469
     10        8          -0.000380573   -0.000098532   -0.000002118
     11        8          -0.000290482   -0.000413887   -0.000021064
     12        8           0.000602609   -0.000136137   -0.000106567
     13        8          -0.000331359   -0.000387293   -0.000493536
     14        1           0.000116059    0.000065503    0.000171405
     15        1          -0.000100829    0.000324893   -0.000108595
     16        1          -0.000016531   -0.000011612   -0.000019335
     17        1          -0.000177891    0.000155374    0.000038842
     18        1           0.000075837   -0.000092658   -0.000067672
 -------------------------------------------------------------------
 Cartesian Forces:  Max     0.002241147 RMS     0.000486885

 GradGradGradGradGradGradGradGradGradGradGradGradGradGradGradGradGradGrad
 Berny optimization.
 Using GEDIIS/GDIIS optimizer.
 FormGI is forming the generalized inverse of G from B-inverse, IUseBI=4.
 Internal  Forces:  Max     0.001600414 RMS     0.000299003
 Search for a local minimum.
 Step number   2 out of a maximum of   91
 All quantities printed in internal units (Hartrees-Bohrs-Radians)
 Mixed Optimization -- En-DIIS/RFO-DIIS
 Swapping is turned off.
 Update second derivatives using D2CorX and points    1    2
 DE= -2.89D-05 DEPred=-4.27D-05 R= 6.77D-01
 TightC=F SS=  1.41D+00  RLast= 3.58D-02 DXNew= 5.0454D-01 1.0732D-01
 Trust test= 6.77D-01 RLast= 3.58D-02 DXMaxT set to 3.00D-01
 ITU=  1  0
     Eigenvalues ---    0.01570   0.02571   0.02928   0.03243   0.03469
     Eigenvalues ---    0.03670   0.03742   0.03764   0.03789   0.03856
     Eigenvalues ---    0.04315   0.04682   0.07026   0.07676   0.08252
     Eigenvalues ---    0.09134   0.10750   0.11323   0.11474   0.11598
     Eigenvalues ---    0.12406   0.12771   0.14423   0.15971   0.16000
     Eigenvalues ---    0.16000   0.16211   0.17246   0.18147   0.19136
     Eigenvalues ---    0.20172   0.36085   0.38589   0.40400   0.42829
     Eigenvalues ---    0.43644   0.43785   0.44451   0.44908   0.45512
     Eigenvalues ---    0.50151   0.52799   0.54241   0.54314   0.54365
     Eigenvalues ---    0.54558   0.547061000.000001000.000001000.00000
     Eigenvalues --- 1000.000001000.000001000.000001000.000001000.00000
     Eigenvalues --- 1000.000001000.000001000.000001000.000001000.00000
     Eigenvalues --- 1000.000001000.000001000.000001000.000001000.00000
     Eigenvalues --- 1000.000001000.000001000.000001000.000001000.00000
     Eigenvalues --- 1000.000001000.000001000.000001000.000001000.00000
     Eigenvalues --- 1000.000001000.000001000.000001000.000001000.00000
     Eigenvalues --- 1000.00000
 En-DIIS/RFO-DIIS/Sim-DIIS IScMMF=       -3 using points:     2    1
 RFO step:  Lambda=-3.62726218D-05.
 DidBck=T Rises=F RFO-DIIS coefs:    0.66444    0.33556
 Iteration  1 RMS(Cart)=  0.00809662 RMS(Int)=  0.00002107
 Iteration  2 RMS(Cart)=  0.00003611 RMS(Int)=  0.00000455
 Iteration  3 RMS(Cart)=  0.00000000 RMS(Int)=  0.00000455
 Iteration  1 RMS(Cart)=  0.00000335 RMS(Int)=  0.00000080
 Iteration  2 RMS(Cart)=  0.00000071 RMS(Int)=  0.00000086
 Variable       Old X    -DE/DX   Delta X   Delta X   Delta X     New X
                                 (Linear)    (Quad)   (Total)
    R1        3.14955  -0.00030   0.00011  -0.00095  -0.00084   3.14870
    R2        3.10682  -0.00050  -0.00007  -0.00071  -0.00078   3.10603
    R3        3.07346   0.00029  -0.00079   0.00205   0.00126   3.07472
    R4        3.14801   0.00027   0.00008   0.00034   0.00042   3.14843
    R5        7.55892  -0.00160   0.00000   0.00000   0.00000   7.55892
    R6        3.74105  -0.00049   0.00017  -0.01109  -0.01091   3.73014
    R7        1.82396   0.00002   0.00006  -0.00010  -0.00004   1.82392
    R8        1.82228   0.00001  -0.00000   0.00003   0.00002   1.82231
    R9        1.85348  -0.00050   0.00095  -0.00278  -0.00183   1.85166
   R10        1.82510   0.00017   0.00008   0.00007   0.00015   1.82525
   R11        3.49368  -0.00073   0.00220  -0.01589  -0.01368   3.48000
   R12        3.10329  -0.00040   0.00001  -0.00070  -0.00069   3.10260
   R13        3.17643  -0.00035   0.00026  -0.00140  -0.00114   3.17529
   R14        3.11446  -0.00038  -0.00059   0.00053  -0.00007   3.11440
   R15        3.09068   0.00036  -0.00055   0.00168   0.00113   3.09181
   R16        1.82100  -0.00001  -0.00002   0.00002   0.00000   1.82101
   R17        1.82478   0.00005   0.00008  -0.00010  -0.00002   1.82476
   R18        1.83817   0.00006   0.00016  -0.00024  -0.00008   1.83809
   R19        1.83726  -0.00061   0.00030  -0.00167  -0.00136   1.83589
    A1        1.87916   0.00002  -0.00160   0.00221   0.00061   1.87977
    A2        1.99396   0.00011   0.00146  -0.00129   0.00017   1.99413
    A3        1.79806   0.00004   0.00067  -0.00052   0.00016   1.79822
    A4        1.91447  -0.00030  -0.00084  -0.00070  -0.00154   1.91293
    A5        1.98969  -0.00030  -0.00162   0.00144  -0.00018   1.98950
    A6        1.88860   0.00045   0.00199  -0.00110   0.00090   1.88949
    A7        1.94035  -0.00006  -0.00036   0.00028  -0.00007   1.94028
    A8        2.03754   0.00025  -0.00015   0.00136   0.00121   2.03875
    A9        2.01197  -0.00017   0.00021  -0.00075  -0.00055   2.01142
   A10        2.04315   0.00004  -0.00038   0.00094   0.00056   2.04371
   A11        2.07159   0.00001   0.00037   0.00039   0.00076   2.07235
   A12        2.01953  -0.00008   0.00004  -0.00046  -0.00042   2.01911
   A13        1.87239   0.00006  -0.00185   0.00331   0.00147   1.87386
   A14        1.88503  -0.00013  -0.00101   0.00086  -0.00015   1.88489
   A15        1.94828  -0.00030  -0.00101  -0.00031  -0.00132   1.94697
   A16        1.92100  -0.00010   0.00068  -0.00147  -0.00078   1.92021
   A17        1.85431   0.00018   0.00128  -0.00069   0.00058   1.85489
   A18        1.98006   0.00029   0.00176  -0.00149   0.00027   1.98033
   A19        2.03795  -0.00002  -0.00028   0.00045   0.00017   2.03811
   A20        2.01157  -0.00004  -0.00136   0.00143   0.00008   2.01165
   A21        1.97452  -0.00010   0.00053  -0.00254  -0.00200   1.97252
   A22        2.00178   0.00010   0.00007   0.00032   0.00039   2.00217
   A23        2.02744  -0.00039  -0.00054  -0.00073  -0.00126   2.02618
   A24        2.09258  -0.00011   0.00051  -0.00039   0.00012   2.09270
   A25        2.96923  -0.00021  -0.00199  -0.00021  -0.00219   2.96703
   A26        2.90381  -0.00010  -0.00166   0.00066  -0.00100   2.90280
   A27        3.28082  -0.00021  -0.00369  -0.00954  -0.01325   3.26757
   A28        3.08522   0.00018   0.00291   0.00766   0.01058   3.09581
    D1        3.13382  -0.00013   0.00007  -0.00056  -0.00049   3.13333
    D2        0.77645  -0.00006   0.00030  -0.00115  -0.00085   0.77561
    D3        1.00290   0.00017   0.00136  -0.00043   0.00092   1.00382
    D4       -1.35447   0.00025   0.00159  -0.00102   0.00057  -1.35390
    D5       -1.04128  -0.00044  -0.00218   0.00184  -0.00034  -1.04162
    D6        2.88454  -0.00037  -0.00195   0.00125  -0.00069   2.88384
    D7       -2.64712  -0.00004  -0.00028   0.00006  -0.00021  -2.64734
    D8       -0.46771  -0.00008  -0.00006  -0.00053  -0.00059  -0.46830
    D9        1.65303   0.00006   0.00077  -0.00147  -0.00069   1.65233
   D10       -0.92051  -0.00021  -0.00075  -0.00085  -0.00159  -0.92209
   D11       -3.03197  -0.00008   0.00095  -0.00230  -0.00135  -3.03332
   D12        1.07086   0.00019   0.00220  -0.00291  -0.00072   1.07015
   D13       -1.03748   0.00010   0.00155  -0.00246  -0.00092  -1.03839
   D14        0.99333   0.00000  -0.00073   0.00055  -0.00018   0.99315
   D15        3.12833  -0.00026  -0.00144  -0.00018  -0.00162   3.12671
   D16        0.03997  -0.00024  -0.00224  -0.00453  -0.00676   0.03320
   D17        2.36730  -0.00014  -0.00340  -0.00380  -0.00720   2.36011
   D18       -0.14384  -0.00015  -0.00280  -0.00399  -0.00679  -0.15063
   D19       -2.46491  -0.00023  -0.00308  -0.00598  -0.00907  -2.47398
   D20        2.66947  -0.00007  -0.00044   0.00055   0.00011   2.66958
   D21        0.59927   0.00009   0.00029   0.00003   0.00031   0.59958
   D22       -1.58900   0.00002  -0.00054   0.00151   0.00097  -1.58803
   D23       -3.10124  -0.00003   0.00063   0.00154   0.00217  -3.09907
   D24       -0.76205  -0.00012   0.00005  -0.00048  -0.00043  -0.76248
   D25       -1.05443  -0.00022  -0.00126   0.00367   0.00241  -1.05202
   D26        1.28476  -0.00030  -0.00184   0.00165  -0.00018   1.28458
   D27        1.09596   0.00019   0.00209   0.00056   0.00265   1.09861
   D28       -2.84804   0.00011   0.00152  -0.00145   0.00005  -2.84798
   D29        3.11333  -0.00008  -0.00064  -0.00141  -0.00205   3.11128
   D30        1.07440  -0.00002   0.00178  -0.00507  -0.00330   1.07110
   D31       -1.00053  -0.00037  -0.00150  -0.00219  -0.00367  -1.00420
   D32       -3.13537  -0.00011   0.00068  -0.00124  -0.00056  -3.13593
   D33       -1.09966  -0.00009  -0.00131   0.00216   0.00085  -1.09880
   D34        1.01320   0.00008   0.00148  -0.00103   0.00044   1.01364
         Item               Value     Threshold  Converged?
 Maximum Force            0.000514     0.000450     NO 
 RMS     Force            0.000223     0.000300     YES
 Maximum Displacement     0.025719     0.001800     NO 
 RMS     Displacement     0.008107     0.001200     NO 
 Predicted change in Energy=-1.814343D-05
 GradGradGradGradGradGradGradGradGradGradGradGradGradGradGradGradGradGrad

                          Input orientation:                          
 ---------------------------------------------------------------------
 Center     Atomic      Atomic             Coordinates (Angstroms)
 Number     Number       Type             X           Y           Z
 ---------------------------------------------------------------------
      1         14           0       -1.971846    0.030830    0.021236
      2          8           0       -1.494717   -1.042334   -1.160696
      3          8           0       -3.614755    0.079828    0.018117
      4          8           0       -1.380506    1.535302   -0.163799
      5          8           0       -1.316223   -0.620967    1.407288
      6          1           0       -1.607453   -1.515106    1.627813
      7          1           0       -0.413717    1.651336   -0.273216
      8          1           0       -4.030271    0.900013    0.308912
      9         14           0        2.027292   -0.033473   -0.031769
     10          8           0        3.664602    0.063331   -0.105463
     11          8           0        1.418875    1.496423   -0.367375
     12          8           0        1.612148   -0.482534    1.498631
     13          8           0        1.431381   -1.027466   -1.186644
     14          1           0        0.472790   -1.169318   -1.256072
     15          1           0        0.659113   -0.550478    1.680844
     16          1           0        4.161197   -0.567879    0.427043
     17          1           0        1.882095    2.220562    0.072488
     18          1           0       -1.945004   -0.980701   -2.012170
 ---------------------------------------------------------------------
                    Distance matrix (angstroms):
                    1          2          3          4          5
     1  Si   0.000000
     2  O    1.666222   0.000000
     3  O    1.643642   2.672715   0.000000
     4  O    1.627070   2.766054   2.672708   0.000000
     5  O    1.666080   2.608438   2.775637   2.668697   0.000000
     6  H    2.259157   2.830548   3.027243   3.544907   0.965883
     7  H    2.267268   3.035134   3.577870   0.979855   2.966812
     8  H    2.252854   3.515892   0.964323   2.765557   3.299374
     9  Si   4.000006   3.833643   5.643405   3.753874   3.687157
    10  O    5.637965   5.380946   7.280424   5.255779   5.250266
    11  O    3.714293   3.945081   5.243356   2.807043   3.887613
    12  O    3.910403   4.127711   5.461564   3.973828   2.933064
    13  O    3.763100   2.926251   5.304812   3.939631   3.800401
    14  H    3.008009   1.973906   4.460039   3.455826   3.254957
    15  H    3.164516   3.599341   4.629027   3.451555   1.995433
    16  H    6.175545   5.893674   7.813590   5.956756   5.564695
    17  H    4.432879   4.854904   5.899243   3.342152   4.481654
    18  H    2.271268   0.965176   2.834582   3.172602   3.495349
                    6          7          8          9         10
     6  H    0.000000
     7  H    3.881401   0.000000
     8  H    3.666381   3.739361   0.000000
     9  Si   4.261551   2.975803   6.138528   0.000000
    10  O    5.769772   4.379793   7.751310   1.641824   0.000000
    11  O    4.712616   1.841537   5.523248   1.680292   2.676871
    12  O    3.383596   3.434672   5.929904   1.648067   2.661513
    13  O    4.170548   3.378568   5.981764   1.636113   2.710362
    14  H    3.572642   3.115765   5.197006   2.281564   3.609846
    15  H    2.463867   3.133257   5.096709   2.252167   3.549735
    16  H    5.967949   5.132750   8.322789   2.247143   0.963637
    17  H    5.343332   2.390457   6.062658   2.261111   2.804040
    18  H    3.694456   3.506625   3.643192   4.538541   6.016079
                   11         12         13         14         15
    11  O    0.000000
    12  O    2.726830   0.000000
    13  O    2.653559   2.745965   0.000000
    14  H    2.964968   3.059116   0.971513   0.000000
    15  H    2.993701   0.972674   3.007724   3.007184   0.000000
    16  H    3.523176   2.766449   3.204232   4.098653   3.719801
    17  H    0.965624   3.068140   3.512583   3.904165   3.429455
    18  H    4.489674   5.022670   3.476155   2.540273   4.539258
                   16         17         18
    16  H    0.000000
    17  H    3.618759   0.000000
    18  H    6.588313   5.407455   0.000000
 Stoichiometry    H8O8Si2
 Framework group  C1[X(H8O8Si2)]
 Deg. of freedom    48
 Full point group                 C1      NOp   1
 Largest Abelian subgroup         C1      NOp   1
 Largest concise Abelian subgroup C1      NOp   1
                         Standard orientation:                         
 ---------------------------------------------------------------------
 Center     Atomic      Atomic             Coordinates (Angstroms)
 Number     Number       Type             X           Y           Z
 ---------------------------------------------------------------------
      1         14           0       -1.997085    0.029932    0.021214
      2          8           0       -1.519002   -1.050177   -1.153987
      3          8           0       -3.640027    0.077764    0.017511
      4          8           0       -1.406759    1.533643   -0.173006
      5          8           0       -1.341253   -0.612838    1.411377
      6          1           0       -1.631899   -1.505801    1.637369
      7          1           0       -0.440033    1.649674   -0.282971
      8          1           0       -4.056165    0.899439    0.303165
      9         14           0        2.002106   -0.031911   -0.030708
     10          8           0        3.639361    0.065576   -0.104716
     11          8           0        1.392684    1.495459   -0.375858
     12          8           0        1.587005   -0.471803    1.502365
     13          8           0        1.407089   -1.033431   -1.179524
     14          1           0        0.448610   -1.176378   -1.248239
     15          1           0        0.633985   -0.539285    1.684831
     16          1           0        4.136302   -0.561987    0.431762
     17          1           0        1.855323    2.222623    0.059605
     18          1           0       -1.969182   -0.994117   -2.005903
 ---------------------------------------------------------------------
 Rotational constants (GHZ):           1.9607950           0.4961901           0.4934181
 Standard basis: 6-31+G(d,p) (6D, 7F)
 There are   238 symmetry adapted cartesian basis functions of A   symmetry.
 There are   238 symmetry adapted basis functions of A   symmetry.
   238 basis functions,   424 primitive gaussians,   238 cartesian basis functions
    50 alpha electrons       50 beta electrons
       nuclear repulsion energy       854.4822298724 Hartrees.
 NAtoms=   18 NActive=   18 NUniq=   18 SFac= 1.00D+00 NAtFMM=   60 NAOKFM=F Big=F
 Integral buffers will be    131072 words long.
 Raffenetti 2 integral format.
 Two-electron integral symmetry is turned on.
 Nuclear repulsion after empirical dispersion term =      854.4662105291 Hartrees.
 One-electron integrals computed using PRISM.
 NBasis=   238 RedAO= T EigKep=  2.43D-04  NBF=   238
 NBsUse=   238 1.00D-06 EigRej= -1.00D+00 NBFU=   238
 Initial guess from the checkpoint file:  "/localscratch/sarashs.37136493.0/Gau-94358.chk"
 B after Tr=     0.000000   -0.000000   -0.000000
         Rot=    0.999997    0.002391    0.000026    0.000138 Ang=   0.27 deg.
 ExpMin= 3.31D-02 ExpMax= 1.61D+04 ExpMxC= 2.43D+03 IAcc=3 IRadAn=         5 AccDes= 0.00D+00
 Harris functional with IExCor=  402 and IRadAn=       5 diagonalized for initial guess.
 HarFok:  IExCor=  402 AccDes= 0.00D+00 IRadAn=         5 IDoV= 1 UseB2=F ITyADJ=14
 ICtDFT=  3500011 ScaDFX=  1.000000  1.000000  1.000000  1.000000
 FoFCou: FMM=F IPFlag=           0 FMFlag=      100000 FMFlg1=           0
         NFxFlg=           0 DoJE=T BraDBF=F KetDBF=T FulRan=T
         wScrn=  0.000000 ICntrl=       500 IOpCl=  0 I1Cent=   200000004 NGrid=           0
         NMat0=    1 NMatS0=      1 NMatT0=    0 NMatD0=    1 NMtDS0=    0 NMtDT0=    0
 Petite list used in FoFCou.
 Requested convergence on RMS density matrix=1.00D-08 within 128 cycles.
 Requested convergence on MAX density matrix=1.00D-06.
 Requested convergence on             energy=1.00D-06.
 No special actions if energy rises.
 SCF Done:  E(RB3LYP) =  -1186.07415479     A.U. after    8 cycles
            NFock=  8  Conv=0.59D-08     -V/T= 2.0067
 Calling FoFJK, ICntrl=      2127 FMM=F ISym2X=0 I1Cent= 0 IOpClX= 0 NMat=1 NMatS=1 NMatT=0.
 ***** Axes restored to original set *****
 -------------------------------------------------------------------
 Center     Atomic                   Forces (Hartrees/Bohr)
 Number     Number              X              Y              Z
 -------------------------------------------------------------------
      1       14           0.002279121    0.000131703   -0.000014499
      2        8           0.000057610    0.000043917    0.000023531
      3        8           0.000177725    0.000021791   -0.000010231
      4        8          -0.000949437   -0.000173721    0.000038264
      5        8          -0.000031161    0.000017556   -0.000000631
      6        1           0.000058461   -0.000022141    0.000054077
      7        1           0.001102449    0.000118245   -0.000047862
      8        1           0.000029578   -0.000033761    0.000009577
      9       14          -0.002308155   -0.000093511   -0.000025971
     10        8          -0.000205546    0.000012032    0.000041782
     11        8          -0.000164183   -0.000121829   -0.000026009
     12        8           0.000112116   -0.000093490    0.000038448
     13        8           0.000600217    0.000022515   -0.000013024
     14        1          -0.000635797   -0.000001495    0.000007964
     15        1          -0.000060546    0.000041153   -0.000014813
     16        1          -0.000010775    0.000000257   -0.000030698
     17        1          -0.000124129    0.000177267    0.000035442
     18        1           0.000072451   -0.000046488   -0.000065347
 -------------------------------------------------------------------
 Cartesian Forces:  Max     0.002308155 RMS     0.000503744

 GradGradGradGradGradGradGradGradGradGradGradGradGradGradGradGradGradGrad
 Berny optimization.
 Using GEDIIS/GDIIS optimizer.
 FormGI is forming the generalized inverse of G from B-inverse, IUseBI=4.
 Internal  Forces:  Max     0.001802247 RMS     0.000260118
 Search for a local minimum.
 Step number   3 out of a maximum of   91
 All quantities printed in internal units (Hartrees-Bohrs-Radians)
 Mixed Optimization -- En-DIIS/RFO-DIIS
 Swapping is turned off.
 Update second derivatives using D2CorX and points    1    2    3
 DE= -1.87D-05 DEPred=-1.81D-05 R= 1.03D+00
 TightC=F SS=  1.41D+00  RLast= 3.02D-02 DXNew= 5.0454D-01 9.0723D-02
 Trust test= 1.03D+00 RLast= 3.02D-02 DXMaxT set to 3.00D-01
 ITU=  1  1  0
     Eigenvalues ---    0.01613   0.02178   0.02818   0.03190   0.03269
     Eigenvalues ---    0.03475   0.03730   0.03762   0.03789   0.03846
     Eigenvalues ---    0.04280   0.04669   0.06878   0.07683   0.08270
     Eigenvalues ---    0.09139   0.10720   0.11398   0.11434   0.11657
     Eigenvalues ---    0.12420   0.12645   0.14589   0.15973   0.16000
     Eigenvalues ---    0.16096   0.16243   0.17252   0.18162   0.19139
     Eigenvalues ---    0.20404   0.37025   0.39020   0.40364   0.42547
     Eigenvalues ---    0.43618   0.43781   0.44287   0.44891   0.50106
     Eigenvalues ---    0.52781   0.54075   0.54290   0.54354   0.54529
     Eigenvalues ---    0.54699   0.565821000.000001000.000001000.00000
     Eigenvalues --- 1000.000001000.000001000.000001000.000001000.00000
     Eigenvalues --- 1000.000001000.000001000.000001000.000001000.00000
     Eigenvalues --- 1000.000001000.000001000.000001000.000001000.00000
     Eigenvalues --- 1000.000001000.000001000.000001000.000001000.00000
     Eigenvalues --- 1000.000001000.000001000.000001000.000001000.00000
     Eigenvalues --- 1000.000001000.000001000.000001000.000001000.00000
     Eigenvalues --- 1000.00000
 En-DIIS/RFO-DIIS/Sim-DIIS IScMMF=       -3 using points:     3    2    1
 RFO step:  Lambda=-6.65215303D-06.
 DidBck=F Rises=F RFO-DIIS coefs:    1.33712   -0.12560   -0.21152
 Iteration  1 RMS(Cart)=  0.00221850 RMS(Int)=  0.00000275
 Iteration  2 RMS(Cart)=  0.00000246 RMS(Int)=  0.00000211
 Iteration  3 RMS(Cart)=  0.00000000 RMS(Int)=  0.00000211
 Iteration  1 RMS(Cart)=  0.00000113 RMS(Int)=  0.00000027
 Iteration  2 RMS(Cart)=  0.00000024 RMS(Int)=  0.00000029
 Variable       Old X    -DE/DX   Delta X   Delta X   Delta X     New X
                                 (Linear)    (Quad)   (Total)
    R1        3.14870  -0.00005  -0.00035   0.00033  -0.00003   3.14868
    R2        3.10603  -0.00021  -0.00022  -0.00045  -0.00067   3.10537
    R3        3.07472  -0.00024   0.00092  -0.00079   0.00014   3.07485
    R4        3.14843   0.00006   0.00009   0.00014   0.00023   3.14866
    R5        7.55892  -0.00180  -0.00000   0.00000   0.00000   7.55892
    R6        3.73014  -0.00042  -0.00379  -0.00132  -0.00511   3.72504
    R7        1.82392   0.00002  -0.00005   0.00007   0.00001   1.82393
    R8        1.82231  -0.00004   0.00001  -0.00008  -0.00007   1.82224
    R9        1.85166   0.00054  -0.00121   0.00235   0.00114   1.85280
   R10        1.82525   0.00001   0.00000   0.00004   0.00004   1.82530
   R11        3.48000  -0.00057  -0.00600  -0.00174  -0.00774   3.47226
   R12        3.10260  -0.00022  -0.00024  -0.00044  -0.00068   3.10192
   R13        3.17529  -0.00002  -0.00054   0.00066   0.00012   3.17541
   R14        3.11440   0.00002   0.00035  -0.00016   0.00019   3.11459
   R15        3.09181  -0.00014   0.00073  -0.00050   0.00024   3.09204
   R16        1.82101  -0.00002   0.00001  -0.00005  -0.00004   1.82097
   R17        1.82476   0.00009  -0.00006   0.00021   0.00015   1.82491
   R18        1.83809   0.00005  -0.00013   0.00018   0.00005   1.83813
   R19        1.83589   0.00021  -0.00065   0.00127   0.00063   1.83652
    A1        1.87977  -0.00014   0.00122  -0.00067   0.00055   1.88031
    A2        1.99413   0.00025  -0.00086   0.00040  -0.00047   1.99365
    A3        1.79822   0.00003  -0.00037   0.00056   0.00018   1.79841
    A4        1.91293  -0.00016   0.00001   0.00002   0.00003   1.91296
    A5        1.98950   0.00005   0.00096  -0.00045   0.00051   1.99001
    A6        1.88949  -0.00001  -0.00095   0.00017  -0.00078   1.88871
    A7        1.94028  -0.00008   0.00020   0.00057   0.00077   1.94105
    A8        2.03875   0.00005   0.00050   0.00038   0.00089   2.03964
    A9        2.01142   0.00008  -0.00032  -0.00071  -0.00103   2.01039
   A10        2.04371  -0.00003   0.00043  -0.00038   0.00005   2.04376
   A11        2.07235  -0.00020   0.00003  -0.00098  -0.00095   2.07140
   A12        2.01911   0.00014  -0.00017   0.00099   0.00082   2.01993
   A13        1.87386  -0.00016   0.00166  -0.00102   0.00064   1.87450
   A14        1.88489   0.00003   0.00058  -0.00047   0.00011   1.88500
   A15        1.94697  -0.00015   0.00019  -0.00014   0.00005   1.94702
   A16        1.92021   0.00003  -0.00069   0.00080   0.00011   1.92032
   A17        1.85489   0.00024  -0.00061   0.00029  -0.00033   1.85457
   A18        1.98033  -0.00000  -0.00102   0.00050  -0.00052   1.97981
   A19        2.03811   0.00000   0.00023  -0.00012   0.00012   2.03823
   A20        2.01165  -0.00013   0.00088   0.00110   0.00199   2.01364
   A21        1.97252  -0.00020  -0.00101  -0.00095  -0.00196   1.97056
   A22        2.00217   0.00028   0.00009   0.00117   0.00126   2.00342
   A23        2.02618  -0.00007  -0.00009  -0.00052  -0.00061   2.02557
   A24        2.09270  -0.00024  -0.00028  -0.00124  -0.00152   2.09118
   A25        2.96703  -0.00008   0.00051  -0.00037   0.00015   2.96718
   A26        2.90280  -0.00003   0.00071   0.00015   0.00086   2.90366
   A27        3.26757   0.00034  -0.00214  -0.00037  -0.00251   3.26506
   A28        3.09581  -0.00034   0.00173   0.00092   0.00266   3.09846
    D1        3.13333   0.00011  -0.00021  -0.00008  -0.00030   3.13303
    D2        0.77561   0.00003  -0.00048  -0.00002  -0.00050   0.77511
    D3        1.00382   0.00026  -0.00055   0.00012  -0.00043   1.00340
    D4       -1.35390   0.00017  -0.00081   0.00019  -0.00063  -1.35453
    D5       -1.04162   0.00012   0.00126  -0.00063   0.00063  -1.04099
    D6        2.88384   0.00004   0.00099  -0.00056   0.00043   2.88427
    D7       -2.64734  -0.00006   0.00010  -0.00020  -0.00009  -2.64743
    D8       -0.46830   0.00006  -0.00016  -0.00014  -0.00030  -0.46860
    D9        1.65233  -0.00003  -0.00072  -0.00022  -0.00094   1.65140
   D10       -0.92209  -0.00016  -0.00006  -0.00117  -0.00123  -0.92332
   D11       -3.03332  -0.00003  -0.00105  -0.00058  -0.00164  -3.03496
   D12        1.07015   0.00001  -0.00163  -0.00015  -0.00177   1.06838
   D13       -1.03839   0.00015  -0.00128   0.00089  -0.00039  -1.03879
   D14        0.99315   0.00003   0.00040   0.00021   0.00061   0.99377
   D15        3.12671  -0.00014   0.00036   0.00006   0.00042   3.12713
   D16        0.03320   0.00010  -0.00087   0.00178   0.00091   0.03412
   D17        2.36011   0.00020  -0.00029   0.00219   0.00190   2.36201
   D18       -0.15063   0.00011  -0.00052   0.00215   0.00164  -0.14900
[...]

                          Input orientation:                          
 ---------------------------------------------------------------------
 Center     Atomic      Atomic             Coordinates (Angstroms)
 Number     Number       Type             X           Y           Z
 ---------------------------------------------------------------------
      1         14           0       -1.971657    0.034478    0.019947
      2          8           0       -1.489533   -1.043830   -1.155785
      3          8           0       -3.614307    0.079940    0.012991
      4          8           0       -1.381308    1.538254   -0.172265
      5          8           0       -1.317025   -0.609325    1.410406
      6          1           0       -1.607660   -1.502361    1.636183
      7          1           0       -0.411864    1.650574   -0.275471
      8          1           0       -4.032305    0.899586    0.301604
      9         14           0        2.027363   -0.037318   -0.032331
     10          8           0        3.663537    0.065950   -0.110847
     11          8           0        1.410904    1.492287   -0.356955
     12          8           0        1.617521   -0.495682    1.497016
     13          8           0        1.430766   -1.026443   -1.190918
     14          1           0        0.470829   -1.167206   -1.255867
     15          1           0        0.664414   -0.552965    1.682706
     16          1           0        4.165230   -0.568465    0.412925
     17          1           0        1.865930    2.216485    0.091519
     18          1           0       -1.935835   -0.986589   -2.009688
 ---------------------------------------------------------------------
                    Distance matrix (angstroms):
                    1          2          3          4          5
     1  Si   0.000000
     2  O    1.666594   0.000000
     3  O    1.643293   2.672744   0.000000
     4  O    1.626898   2.765173   2.673440   0.000000
     5  O    1.666254   2.608426   2.775852   2.668534   0.000000
     6  H    2.259776   2.831835   3.027384   3.545004   0.965897
     7  H    2.265390   3.032513   3.578511   0.981370   2.961189
     8  H    2.252557   3.516609   0.964282   2.767714   3.298333
     9  Si   4.000006   3.826718   5.643070   3.757798   3.686952
    10  O    5.636800   5.373792   7.278911   5.255655   5.251306
    11  O    3.702564   3.934787   5.233004   2.798691   3.870650
    12  O    3.917270   4.122087   5.468609   3.989532   2.938022
    13  O    3.764071   2.920562   5.303417   3.939934   3.806735
    14  H    3.006241   1.966788   4.455750   3.453132   3.258322
    15  H    3.171550   3.596869   4.636374   3.463970   2.000856
    16  H    6.178945   5.887544   7.816749   5.961946   5.572411
    17  H    4.415128   4.841957   5.882515   3.327782   4.455992
    18  H    2.272285   0.965201   2.836544   3.171507   3.496040
                    6          7          8          9         10
     6  H    0.000000
     7  H    3.876254   0.000000
     8  H    3.664608   3.742271   0.000000
     9  Si   4.259540   2.976227   6.140756   0.000000
    10  O    5.770376   4.375732   7.751843   1.641309   0.000000
    11  O    4.695982   1.831442   5.514846   1.680802   2.677567
    12  O    3.381503   3.444783   5.941070   1.648324   2.662112
    13  O    4.177443   3.376352   5.981836   1.636038   2.710193
    14  H    3.577206   3.111304   5.193801   2.279580   3.609035
    15  H    2.462892   3.138219   5.106517   2.250528   3.548891
    16  H    5.974512   5.133013   8.328695   2.247409   0.963595
    17  H    5.318048   2.375560   6.047110   2.262969   2.810186
    18  H    3.696769   3.504943   3.646220   4.529679   6.005531
                   11         12         13         14         15
    11  O    0.000000
    12  O    2.726155   0.000000
    13  O    2.653280   2.746193   0.000000
    14  H    2.960522   3.056831   0.972374   0.000000
    15  H    2.983374   0.972715   3.011510   3.008318   0.000000
    16  H    3.525015   2.769725   3.203022   4.097800   3.724017
    17  H    0.965733   3.064797   3.514341   3.900144   3.412531
    18  H    4.480738   5.016403   3.464964   2.528418   4.536860
                   16         17         18
    16  H    0.000000
    17  H    3.625745   0.000000
    18  H    6.577757   5.397052   0.000000
 Stoichiometry    H8O8Si2
 Framework group  C1[X(H8O8Si2)]
 Deg. of freedom    48
 Full point group                 C1      NOp   1
 Largest Abelian subgroup         C1      NOp   1
 Largest concise Abelian subgroup C1      NOp   1
                         Standard orientation:                         
 ---------------------------------------------------------------------
 Center     Atomic      Atomic             Coordinates (Angstroms)
 Number     Number       Type             X           Y           Z
 ---------------------------------------------------------------------
      1         14           0       -1.996968    0.030271    0.020754
      2          8           0       -1.512213   -1.064543   -1.138526
      3          8           0       -3.639724    0.071560    0.013221
      4          8           0       -1.410345    1.532415   -0.194275
      5          8           0       -1.340703   -0.590755    1.420770
      6          1           0       -1.629121   -1.480981    1.660081
      7          1           0       -0.441186    1.645555   -0.299239
      8          1           0       -4.059741    0.894451    0.289402
      9         14           0        2.002217   -0.032419   -0.030701
     10          8           0        3.638128    0.073692   -0.110884
     11          8           0        1.381966    1.490559   -0.378437
     12          8           0        1.593556   -0.468555    1.505449
     13          8           0        1.408033   -1.040470   -1.174117
     14          1           0        0.448445   -1.184575   -1.236859
     15          1           0        0.640599   -0.525373    1.692050
     16          1           0        4.141405   -0.551466    0.422413
     17          1           0        1.835212    2.222596    0.058974
     18          1           0       -1.958681   -1.021360   -1.993169
 ---------------------------------------------------------------------
 Rotational constants (GHZ):           1.9615710           0.4964442           0.4937125

 **********************************************************************

            Population analysis using the SCF Density.

 **********************************************************************

 Orbital symmetries:
       Occupied  (A) (A) (A) (A) (A) (A) (A) (A) (A) (A) (A) (A)
                 (A) (A) (A) (A) (A) (A) (A) (A) (A) (A) (A) (A)
                 (A) (A) (A) (A) (A) (A) (A) (A) (A) (A) (A) (A)
                 (A) (A) (A) (A) (A) (A) (A) (A) (A) (A) (A) (A)
                 (A) (A)
       Virtual   (A) (A) (A) (A) (A) (A) (A) (A) (A) (A) (A) (A)
                 (A) (A) (A) (A) (A) (A) (A) (A) (A) (A) (A) (A)
                 (A) (A) (A) (A) (A) (A) (A) (A) (A) (A) (A) (A)
                 (A) (A) (A) (A) (A) (A) (A) (A) (A) (A) (A) (A)
                 (A) (A) (A) (A) (A) (A) (A) (A) (A) (A) (A) (A)
                 (A) (A) (A) (A) (A) (A) (A) (A) (A) (A) (A) (A)
                 (A) (A) (A) (A) (A) (A) (A) (A) (A) (A) (A) (A)
                 (A) (A) (A) (A) (A) (A) (A) (A) (A) (A) (A) (A)
                 (A) (A) (A) (A) (A) (A) (A) (A) (A) (A) (A) (A)
                 (A) (A) (A) (A) (A) (A) (A) (A) (A) (A) (A) (A)
                 (A) (A) (A) (A) (A) (A) (A) (A) (A) (A) (A) (A)
                 (A) (A) (A) (A) (A) (A) (A) (A) (A) (A) (A) (A)
                 (A) (A) (A) (A) (A) (A) (A) (A) (A) (A) (A) (A)
                 (A) (A) (A) (A) (A) (A) (A) (A) (A) (A) (A) (A)
                 (A) (A) (A) (A) (A) (A) (A) (A) (A) (A) (A) (A)
                 (A) (A) (A) (A) (A) (A) (A) (A)
 The electronic state is 1-A.
 Alpha  occ. eigenvalues --  -66.23734 -66.21771 -19.19288 -19.19228 -19.18620
 Alpha  occ. eigenvalues --  -19.17948 -19.16801 -19.16623 -19.15407 -19.15235
 Alpha  occ. eigenvalues --   -5.37077  -5.35095  -3.73074  -3.73067  -3.73018
 Alpha  occ. eigenvalues --   -3.71125  -3.71067  -3.71024  -1.06361  -1.04320
 Alpha  occ. eigenvalues --   -1.02979  -1.02816  -1.01535  -1.00680  -0.99971
 Alpha  occ. eigenvalues --   -0.99230  -0.61483  -0.59568  -0.55677  -0.55338
 Alpha  occ. eigenvalues --   -0.54045  -0.52949  -0.52559  -0.51731  -0.43132
 Alpha  occ. eigenvalues --   -0.42424  -0.41028  -0.40249  -0.39667  -0.38750
 Alpha  occ. eigenvalues --   -0.37958  -0.37647  -0.37285  -0.35922  -0.35151
 Alpha  occ. eigenvalues --   -0.34748  -0.34070  -0.33767  -0.33417  -0.31038
 Alpha virt. eigenvalues --   -0.03708  -0.00976   0.00529   0.00746   0.01944
 Alpha virt. eigenvalues --    0.04514   0.05331   0.06410   0.09225   0.09848
 Alpha virt. eigenvalues --    0.09964   0.10919   0.12284   0.13200   0.13498
 Alpha virt. eigenvalues --    0.14572   0.14804   0.14863   0.15126   0.15496
 Alpha virt. eigenvalues --    0.16177   0.16321   0.16889   0.17492   0.18018
 Alpha virt. eigenvalues --    0.18854   0.19432   0.20906   0.21072   0.21599
 Alpha virt. eigenvalues --    0.21822   0.22365   0.22905   0.23631   0.24479
 Alpha virt. eigenvalues --    0.25234   0.25354   0.26188   0.27113   0.27878
 Alpha virt. eigenvalues --    0.28120   0.28575   0.29304   0.30031   0.30268
 Alpha virt. eigenvalues --    0.31365   0.32947   0.34093   0.35736   0.37184
 Alpha virt. eigenvalues --    0.37885   0.38779   0.40931   0.41414   0.43746
 Alpha virt. eigenvalues --    0.45413   0.46002   0.46992   0.49872   0.50411
 Alpha virt. eigenvalues --    0.52005   0.58389   0.61335   0.62589   0.63168
 Alpha virt. eigenvalues --    0.63752   0.65077   0.77726   0.92364   0.92772
 Alpha virt. eigenvalues --    0.94413   0.96399   0.97294   0.98032   0.99623
 Alpha virt. eigenvalues --    1.00023   1.01187   1.01743   1.02930   1.10302
 Alpha virt. eigenvalues --    1.11561   1.13298   1.15472   1.16353   1.16565
 Alpha virt. eigenvalues --    1.17845   1.18088   1.18449   1.19346   1.20333
 Alpha virt. eigenvalues --    1.21170   1.21535   1.23087   1.24075   1.24506
 Alpha virt. eigenvalues --    1.25993   1.26354   1.27590   1.29044   1.29922
 Alpha virt. eigenvalues --    1.30883   1.31714   1.33721   1.35358   1.36449
 Alpha virt. eigenvalues --    1.38012   1.49631   1.50670   1.54013   1.55290
 Alpha virt. eigenvalues --    1.56015   1.56875   1.58261   1.58810   1.60164
 Alpha virt. eigenvalues --    1.62348   1.62733   1.63406   1.66385   1.67822
 Alpha virt. eigenvalues --    1.69211   1.71958   1.72931   1.73931   1.77198
 Alpha virt. eigenvalues --    1.78301   1.80299   1.83035   1.85276   1.88893
 Alpha virt. eigenvalues --    1.91191   1.91523   1.98517   2.00628   2.02765
 Alpha virt. eigenvalues --    2.04419   2.10363   2.11178   2.34478   2.36348
 Alpha virt. eigenvalues --    2.37561   2.38642   2.39810   2.44116   2.45773
 Alpha virt. eigenvalues --    2.46440   2.47721   2.50883   2.57360   2.59053
 Alpha virt. eigenvalues --    2.59396   2.59944   2.61643   2.61944   2.62228
 Alpha virt. eigenvalues --    2.64122   2.64318   2.65645   2.66752   2.67360
 Alpha virt. eigenvalues --    2.68503   2.69709   2.70805   2.73505   2.76055
 Alpha virt. eigenvalues --    2.77386   2.79415   2.83349   2.85029   2.85605
 Alpha virt. eigenvalues --    2.99695   3.02887   3.40651   3.42561   3.43138
 Alpha virt. eigenvalues --    3.43300   3.44527   3.56477   3.57144   3.60749
 Alpha virt. eigenvalues --    4.15938   4.19846   4.25218   4.26940   4.29428
 Alpha virt. eigenvalues --    4.30024   4.35144   4.42381
          Condensed to atoms (all electrons):
               1          2          3          4          5          6
     1  Si  11.699121  -0.037031   0.030707   0.119004  -0.062192   0.042820
     2  O   -0.037031   8.697065  -0.019259   0.039839   0.107303  -0.009304
     3  O    0.030707  -0.019259   8.651447  -0.040785  -0.070417  -0.002239
     4  O    0.119004   0.039839  -0.040785   8.531189   0.088165   0.005522
     5  O   -0.062192   0.107303  -0.070417   0.088165   8.659162   0.239357
     6  H    0.042820  -0.009304  -0.002239   0.005522   0.239357   0.352503
     7  H    0.025002  -0.004462   0.007206   0.233390  -0.004212  -0.000032
     8  H    0.034474   0.004192   0.234953  -0.001257  -0.003604   0.000031
     9  Si  -0.128915   0.071916  -0.008826   0.050238   0.088925  -0.004018
    10  O   -0.006772   0.002619  -0.000214   0.003148   0.003373  -0.000029
    11  O    0.078822  -0.027930   0.003612  -0.060101  -0.028403   0.000356
    12  O    0.032091  -0.023744   0.002425  -0.018426  -0.034200   0.000789
    13  O    0.067955  -0.043380   0.003943  -0.030669  -0.038159   0.000490
    14  H    0.006079   0.008405  -0.000005   0.000735  -0.000773   0.000006
    15  H   -0.003146   0.001572   0.000088   0.001185   0.010495  -0.001438
    16  H    0.000301  -0.000011   0.000000  -0.000007  -0.000025  -0.000000
    17  H   -0.003254   0.000295  -0.000040   0.002908   0.000381  -0.000001
    18  H    0.025687   0.241607  -0.000692  -0.007409   0.005066   0.000047
               7          8          9         10         11         12
     1  Si   0.025002   0.034474  -0.128915  -0.006772   0.078822   0.032091
     2  O   -0.004462   0.004192   0.071916   0.002619  -0.027930  -0.023744
     3  O    0.007206   0.234953  -0.008826  -0.000214   0.003612   0.002425
     4  O    0.233390  -0.001257   0.050238   0.003148  -0.060101  -0.018426
     5  O   -0.004212  -0.003604   0.088925   0.003373  -0.028403  -0.034200
     6  H   -0.000032   0.000031  -0.004018  -0.000029   0.000356   0.000789
     7  H    0.279407   0.000026   0.004605  -0.000010   0.016894   0.001235
     8  H    0.000026   0.351886   0.000151   0.000000  -0.000004  -0.000007
     9  Si   0.004605   0.000151  11.675593   0.022700  -0.097876   0.104133
    10  O   -0.000010   0.000000   0.022700   8.617423  -0.006240  -0.019554
    11  O    0.016894  -0.000004  -0.097876  -0.006240   8.745609   0.082098
    12  O    0.001235  -0.000007   0.104133  -0.019554   0.082098   8.519636
    13  O   -0.000107  -0.000003   0.028111  -0.038368   0.090877   0.047283
    14  H   -0.000026  -0.000001   0.031550   0.005584  -0.002907  -0.006485
    15  H    0.000027  -0.000002   0.033110   0.008916  -0.007360   0.235316
    16  H   -0.000002  -0.000000   0.035791   0.236324   0.003031  -0.002186
    17  H   -0.002490  -0.000000   0.032329   0.003161   0.237028  -0.011619
    18  H    0.000159   0.000049  -0.002175  -0.000008   0.000186   0.000061
              13         14         15         16         17         18
     1  Si   0.067955   0.006079  -0.003146   0.000301  -0.003254   0.025687
     2  O   -0.043380   0.008405   0.001572  -0.000011   0.000295   0.241607
     3  O    0.003943  -0.000005   0.000088   0.000000  -0.000040  -0.000692
     4  O   -0.030669   0.000735   0.001185  -0.000007   0.002908  -0.007409
     5  O   -0.038159  -0.000773   0.010495  -0.000025   0.000381   0.005066
     6  H    0.000490   0.000006  -0.001438  -0.000000  -0.000001   0.000047
     7  H   -0.000107  -0.000026   0.000027  -0.000002  -0.002490   0.000159
     8  H   -0.000003  -0.000001  -0.000002  -0.000000  -0.000000   0.000049
     9  Si   0.028111   0.031550   0.033110   0.035791   0.032329  -0.002175
    10  O   -0.038368   0.005584   0.008916   0.236324   0.003161  -0.000008
    11  O    0.090877  -0.002907  -0.007360   0.003031   0.237028   0.000186
    12  O    0.047283  -0.006485   0.235316  -0.002186  -0.011619   0.000061
    13  O    8.567655   0.233764  -0.007818  -0.003888   0.005809   0.000975
    14  H    0.233764   0.307208   0.000055  -0.000025  -0.000062  -0.000985
    15  H   -0.007818   0.000055   0.308460   0.000038   0.000201  -0.000015
    16  H   -0.003888  -0.000025   0.000038   0.359162   0.000079   0.000000
    17  H    0.005809  -0.000062   0.000201   0.000079   0.347750  -0.000001
    18  H    0.000975  -0.000985  -0.000015   0.000000  -0.000001   0.342562
 Mulliken charges:
               1
     1  Si   2.079246
     2  O   -1.009691
     3  O   -0.791904
     4  O   -0.916669
     5  O   -0.960243
     6  H    0.375138
     7  H    0.443390
     8  H    0.379116
     9  Si   2.062658
    10  O   -0.832055
    11  O   -1.027692
    12  O   -0.908846
    13  O   -0.884470
    14  H    0.417881
    15  H    0.420316
    16  H    0.371415
    17  H    0.387525
    18  H    0.394885
 Sum of Mulliken charges =  -0.00000
 Mulliken charges with hydrogens summed into heavy atoms:
               1
     1  Si   2.079246
     2  O   -0.614806
     3  O   -0.412787
     4  O   -0.473280
     5  O   -0.585105
     9  Si   2.062658
    10  O   -0.460640
    11  O   -0.640167
    12  O   -0.488530
    13  O   -0.466589
 Electronic spatial extent (au):  <R**2>=           2330.9159
 Charge=              0.0000 electrons
 Dipole moment (field-independent basis, Debye):
    X=             -2.4322    Y=              0.0079    Z=              1.0143  Tot=              2.6352
 Quadrupole moment (field-independent basis, Debye-Ang):
   XX=            -66.6730   YY=            -68.3292   ZZ=            -72.6163
   XY=              0.7965   XZ=              4.4131   YZ=             -0.3789
 Traceless Quadrupole moment (field-independent basis, Debye-Ang):
   XX=              2.5332   YY=              0.8770   ZZ=             -3.4101
   XY=              0.7965   XZ=              4.4131   YZ=             -0.3789
 Octapole moment (field-independent basis, Debye-Ang**2):
  XXX=             -2.7301  YYY=              6.9111  ZZZ=            -13.1813  XYY=              2.7969
  XXY=              6.3785  XXZ=             22.2137  XZZ=            -24.7585  YZZ=             -7.9771
  YYZ=             11.8666  XYZ=             -2.2429
 Hexadecapole moment (field-independent basis, Debye-Ang**3):
 XXXX=          -1904.3477 YYYY=           -340.7287 ZZZZ=           -342.5578 XXXY=           -172.4531
 XXXZ=             50.7284 YYYX=             48.8641 YYYZ=             -5.9664 ZZZX=             20.4978
 ZZZY=              3.2254 XXYY=           -357.7813 XXZZ=           -401.3429 YYZZ=           -112.3284
 XXYZ=              3.7405 YYXZ=             -2.7027 ZZXY=             26.8619
 N-N= 8.546095745629D+02 E-N=-4.518803972381D+03  KE= 1.178204631110D+03
 1\1\GINC-GRA1234\FOpt\RB3LYP\6-31+G(d,p)\H8O8Si2\SARASHS\11-Aug-2020\0
 \\#n B3LYP/6-31+G(d,p) EmpiricalDispersion=GD3 Opt=modredundant\\Title
 \\0,1\Si,-1.971657283,0.0344783103,0.0199467182\O,-1.4895328049,-1.043
 8295776,-1.1557850223\O,-3.6143065114,0.0799396601,0.0129910335\O,-1.3
 813075971,1.538253717,-0.1722647214\O,-1.3170252531,-0.6093248869,1.41
 0405798\H,-1.607660273,-1.5023605088,1.636183227\H,-0.4118642437,1.650
 5741244,-0.2754713424\H,-4.0323054205,0.8995856476,0.3016044787\Si,2.0
 273630347,-0.037318125,-0.0323311977\O,3.6635374384,0.0659499015,-0.11
 08471175\O,1.4109039496,1.4922872619,-0.3569547927\O,1.6175206892,-0.4
 956819519,1.4970163277\O,1.4307659384,-1.0264433688,-1.1909178882\H,0.
 4708288412,-1.1672063125,-1.255867124\H,0.6644139546,-0.5529649478,1.6
 827060482\H,4.1652304013,-0.5684649083,0.4129252427\H,1.8659301092,2.2
 164848528,0.0915186662\H,-1.9358349698,-0.9865888879,-2.0096883339\\Ve
 rsion=ES64L-G16RevB.01\State=1-A\HF=-1186.074165\RMSD=7.545e-09\RMSF=4
 .973e-04\Dipole=-0.9568999,-0.0005951,0.3990197\Quadrupole=1.8858204,0
 .6571431,-2.5429635,0.5393088,3.2891983,-0.2413875\PG=C01 [X(H8O8Si2)]
 \\@


 I DON'T EXACTLY UNDERSTAND WHAT YOU ARE SAYING,
 BUT YOU ARE ABSOLUTELY RIGHT.
     M.S.GORDON, IN A NDSU FACULTY MEETING
 Job cpu time:       0 days  0 hours 27 minutes 12.6 seconds.
 Elapsed time:       0 days  0 hours  1 minutes 45.5 seconds.
 File lengths (MBytes):  RWF=     40 Int=      0 D2E=      0 Chk=      5 Scr=      1
 Normal termination of Gaussian 16 at Tue Aug 11 13:05:24 2020.
