 Entering Gaussian System, Link 0=g16
 Initial command:
 /opt/software/gaussian/g16.b01/l1.exe "/localscratch/sarashs.36560097.0/Gau-6691.inp" -scrdir="/localscratch/sarashs.36560097.0/"
 Entering Link 1 = /opt/software/gaussian/g16.b01/l1.exe PID=      6692.
  
 Copyright (c) 1988-2017, Gaussian, Inc.  All Rights Reserved.
  
 This is part of the Gaussian(R) 16 program.  It is based on
 the Gaussian(R) 09 system (copyright 2009, Gaussian, Inc.),
 the Gaussian(R) 03 system (copyright 2003, Gaussian, Inc.),
 the Gaussian(R) 98 system (copyright 1998, Gaussian, Inc.),
 the Gaussian(R) 94 system (copyright 1995, Gaussian, Inc.),
 the Gaussian 92(TM) system (copyright 1992, Gaussian, Inc.),
 the Gaussian 90(TM) system (copyright 1990, Gaussian, Inc.),
 the Gaussian 88(TM) system (copyright 1988, Gaussian, Inc.),
 the Gaussian 86(TM) system (copyright 1986, Carnegie Mellon
 University), and the Gaussian 82(TM) system (copyright 1983,
 Carnegie Mellon University). Gaussian is a federally registered
 trademark of Gaussian, Inc.
  
 This software contains proprietary and confidential information,
 including trade secrets, belonging to Gaussian, Inc.
  
 This software is provided under written license and may be
 used, copied, transmitted, or stored only in accord with that
 written license.
  
 The following legend is applicable only to US Government
 contracts under FAR:
  
                    RESTRICTED RIGHTS LEGEND
  
 Use, reproduction and disclosure by the US Government is
 subject to restrictions as set forth in subparagraphs (a)
 and (c) of the Commercial Computer Software - Restricted
 Rights clause in FAR 52.227-19.
  
 Gaussian, Inc.
 340 Quinnipiac St., Bldg. 40, Wallingford CT 06492
  
  
 ---------------------------------------------------------------
 Warning -- This program may not be used in any manner that
 competes with the business of Gaussian, Inc. or will provide
 assistance to any competitor of Gaussian, Inc.  The licensee
 of this program is prohibited from giving any competitor of
 Gaussian, Inc. access to this program.  By using this program,
 the user acknowledges that Gaussian, Inc. is engaged in the
 business of creating and licensing software in the field of
 computational chemistry and represents and warrants to the
 licensee that it is not a competitor of Gaussian, Inc. and that
 it will not use this program in any manner prohibited above.
 ---------------------------------------------------------------
  

 Cite this work as:
 Gaussian 16, Revision B.01,
 M. J. Frisch, G. W. Trucks, H. B. Schlegel, G. E. Scuseria, 
 M. A. Robb, J. R. Cheeseman, G. Scalmani, V. Barone, 
 G. A. Petersson, H. Nakatsuji, X. Li, M. Caricato, A. V. Marenich, 
 J. Bloino, B. G. Janesko, R. Gomperts, B. Mennucci, H. P. Hratchian, 
 J. V. Ortiz, A. F. Izmaylov, J. L. Sonnenberg, D. Williams-Young, 
 F. Ding, F. Lipparini, F. Egidi, J. Goings, B. Peng, A. Petrone, 
 T. Henderson, D. Ranasinghe, V. G. Zakrzewski, J. Gao, N. Rega, 
 G. Zheng, W. Liang, M. Hada, M. Ehara, K. Toyota, R. Fukuda, 
 J. Hasegawa, M. Ishida, T. Nakajima, Y. Honda, O. Kitao, H. Nakai, 
 T. Vreven, K. Throssell, J. A. Montgomery, Jr., J. E. Peralta, 
 F. Ogliaro, M. J. Bearpark, J. J. Heyd, E. N. Brothers, K. N. Kudin, 
 V. N. Staroverov, T. A. Keith, R. Kobayashi, J. Normand, 
 K. Raghavachari, A. P. Rendell, J. C. Burant, S. S. Iyengar, 
 J. Tomasi, M. Cossi, J. M. Millam, M. Klene, C. Adamo, R. Cammi, 
 J. W. Ochterski, R. L. Martin, K. Morokuma, O. Farkas, 
 J. B. Foresman, and D. J. Fox, Gaussian, Inc., Wallingford CT, 2016.
 
 ******************************************
 Gaussian 16:  ES64L-G16RevB.01 20-Dec-2017
                29-Jul-2020 
 ******************************************
 %NProcShared=16
 Will use up to   16 processors via shared memory.
 -------------------------------------------------------------
 #n B3LYP/6-31+G(d,p) EmpiricalDispersion=GD3 Opt=modredundant
 -------------------------------------------------------------
 1/18=120,19=15,26=3,38=1/1,3;
 2/9=110,12=2,17=6,18=5,40=1/2;
 3/5=1,6=6,7=111,11=2,25=1,30=1,71=1,74=-5,124=31/1,2,3;
 4//1;
 5/5=2,38=5/2;
 6/7=2,8=2,9=2,10=2,28=1/1;
 7//1,2,3,16;
 1/18=20,19=15,26=3/3(2);
 2/9=110/2;
 99//99;
 2/9=110/2;
 3/5=1,6=6,7=111,11=2,25=1,30=1,71=1,74=-5,124=31/1,2,3;
 4/5=5,16=3,69=1/1;
 5/5=2,38=5/2;
 7//1,2,3,16;
 1/18=20,19=15,26=3/3(-5);
 2/9=110/2;
 6/7=2,8=2,9=2,10=2,19=2,28=1/1;
 99/9=1/99;
 -----
 Title
 -----
 Symbolic Z-matrix:
 Charge =  0 Multiplicity = 1
 Si                   -6.50353  -0.18268  -0.23548 
 O                    -4.88271  -0.36103  -0.01545 
 O                    -6.80728   1.35233  -0.70947 
 O                    -7.28216  -0.48198   1.17169 
 O                    -7.01378  -1.24464  -1.36924 
 H                    -6.40942  -1.35672  -2.12115 
 H                    -7.66747  -1.37044   1.22457 
 H                    -7.69735   1.66658  -0.49019 
 Si                   -3.31018  -2.97416  -1.406 
 O                    -1.79319  -2.57507  -0.93631 
 O                    -4.23059  -3.30155  -0.09125 
 O                    -3.24876  -4.28448  -2.38516 
 O                    -3.98384  -1.70788  -2.2029 
 H                    -4.00478  -0.89769  -1.66505 
 H                    -4.11864  -4.64444  -2.60985 
 H                    -1.10594  -3.06413  -1.41428 
 H                    -4.35706  -2.53859   0.49456 
 H                    -4.5087    0.33659   0.54758 
 
 Add virtual bond connecting atoms H14        and O2         Dist= 3.67D+00.
 The following ModRedundant input section has been read:
 B       1       9 F                                                           
 

 GradGradGradGradGradGradGradGradGradGradGradGradGradGradGradGradGradGrad
 Berny optimization.
 Initialization pass.
                           ----------------------------
                           !    Initial Parameters    !
                           ! (Angstroms and Degrees)  !
 --------------------------                            --------------------------
 ! Name  Definition              Value          Derivative Info.                !
 --------------------------------------------------------------------------------
 ! R1    R(1,2)                  1.6454         estimate D2E/DX2                !
 ! R2    R(1,3)                  1.635          estimate D2E/DX2                !
 ! R3    R(1,4)                  1.6358         estimate D2E/DX2                !
 ! R4    R(1,5)                  1.6351         estimate D2E/DX2                !
 ! R5    R(1,9)                  4.4            Frozen                          !
 ! R6    R(2,14)                 1.9442         estimate D2E/DX2                !
 ! R7    R(2,18)                 0.9714         estimate D2E/DX2                !
 ! R8    R(3,8)                  0.9691         estimate D2E/DX2                !
 ! R9    R(4,7)                  0.9699         estimate D2E/DX2                !
 ! R10   R(5,6)                  0.9712         estimate D2E/DX2                !
 ! R11   R(9,10)                 1.6374         estimate D2E/DX2                !
 ! R12   R(9,11)                 1.638          estimate D2E/DX2                !
 ! R13   R(9,12)                 1.6369         estimate D2E/DX2                !
 ! R14   R(9,13)                 1.6408         estimate D2E/DX2                !
 ! R15   R(10,16)                0.9695         estimate D2E/DX2                !
 ! R16   R(11,17)                0.9702         estimate D2E/DX2                !
 ! R17   R(12,15)                0.9679         estimate D2E/DX2                !
 ! R18   R(13,14)                0.9727         estimate D2E/DX2                !
 ! A1    A(2,1,3)              108.8772         estimate D2E/DX2                !
 ! A2    A(2,1,4)              109.5124         estimate D2E/DX2                !
 ! A3    A(2,1,5)              109.2523         estimate D2E/DX2                !
 ! A4    A(3,1,4)              109.4344         estimate D2E/DX2                !
 ! A5    A(3,1,5)              110.5346         estimate D2E/DX2                !
 ! A6    A(4,1,5)              109.214          estimate D2E/DX2                !
 ! A7    A(1,2,14)             111.1788         estimate D2E/DX2                !
 ! A8    A(1,2,18)             112.2687         estimate D2E/DX2                !
 ! A9    A(14,2,18)            121.0755         estimate D2E/DX2                !
 ! A10   A(1,3,8)              114.1731         estimate D2E/DX2                !
 ! A11   A(1,4,7)              113.8041         estimate D2E/DX2                !
 ! A12   A(1,5,6)              114.6833         estimate D2E/DX2                !
 ! A13   A(10,9,11)            109.82           estimate D2E/DX2                !
 ! A14   A(10,9,12)            109.3858         estimate D2E/DX2                !
 ! A15   A(10,9,13)            109.3648         estimate D2E/DX2                !
 ! A16   A(11,9,12)            109.9517         estimate D2E/DX2                !
 ! A17   A(11,9,13)            108.2631         estimate D2E/DX2                !
 ! A18   A(12,9,13)            110.0383         estimate D2E/DX2                !
 ! A19   A(9,10,16)            113.1017         estimate D2E/DX2                !
 ! A20   A(9,11,17)            113.6237         estimate D2E/DX2                !
 ! A21   A(9,12,15)            113.7569         estimate D2E/DX2                !
 ! A22   A(9,13,14)            112.5252         estimate D2E/DX2                !
 ! A23   A(2,14,13)            135.1372         estimate D2E/DX2                !
 ! D1    D(3,1,2,14)           -88.7128         estimate D2E/DX2                !
 ! D2    D(3,1,2,18)            50.4723         estimate D2E/DX2                !
 ! D3    D(4,1,2,14)           151.668          estimate D2E/DX2                !
 ! D4    D(4,1,2,18)           -69.147          estimate D2E/DX2                !
 ! D5    D(5,1,2,14)            32.0907         estimate D2E/DX2                !
 ! D6    D(5,1,2,18)           171.2758         estimate D2E/DX2                !
 ! D7    D(2,1,3,8)           -154.199          estimate D2E/DX2                !
 ! D8    D(4,1,3,8)            -34.5313         estimate D2E/DX2                !
 ! D9    D(5,1,3,8)             85.7881         estimate D2E/DX2                !
 ! D10   D(2,1,4,7)           -100.0138         estimate D2E/DX2                !
 ! D11   D(3,1,4,7)            140.7097         estimate D2E/DX2                !
 ! D12   D(5,1,4,7)             19.587          estimate D2E/DX2                !
 ! D13   D(2,1,5,6)            -39.7339         estimate D2E/DX2                !
 ! D14   D(3,1,5,6)             80.0535         estimate D2E/DX2                !
 ! D15   D(4,1,5,6)           -159.4953         estimate D2E/DX2                !
 ! D16   D(1,2,14,13)          -70.5962         estimate D2E/DX2                !
 ! D17   D(18,2,14,13)         154.332          estimate D2E/DX2                !
 ! D18   D(11,9,10,16)         130.3438         estimate D2E/DX2                !
 ! D19   D(12,9,10,16)           9.5908         estimate D2E/DX2                !
 ! D20   D(13,9,10,16)        -110.9862         estimate D2E/DX2                !
 ! D21   D(10,9,11,17)          63.842          estimate D2E/DX2                !
 ! D22   D(12,9,11,17)        -175.7474         estimate D2E/DX2                !
 ! D23   D(13,9,11,17)         -55.5049         estimate D2E/DX2                !
 ! D24   D(10,9,12,15)         172.6026         estimate D2E/DX2                !
 ! D25   D(11,9,12,15)          51.9299         estimate D2E/DX2                !
 ! D26   D(13,9,12,15)         -67.2318         estimate D2E/DX2                !
 ! D27   D(10,9,13,14)         -57.463          estimate D2E/DX2                !
 ! D28   D(11,9,13,14)          62.1705         estimate D2E/DX2                !
 ! D29   D(12,9,13,14)        -177.6412         estimate D2E/DX2                !
 ! D30   D(9,13,14,2)          -64.0438         estimate D2E/DX2                !
 --------------------------------------------------------------------------------
 Trust Radius=3.00D-01 FncErr=1.00D-07 GrdErr=1.00D-06 EigMax=2.50D+02 EigMin=1.00D-04
 Number of steps in this run=     81 maximum allowed number of steps=    108.
 GradGradGradGradGradGradGradGradGradGradGradGradGradGradGradGradGradGrad

                          Input orientation:                          
 ---------------------------------------------------------------------
 Center     Atomic      Atomic             Coordinates (Angstroms)
 Number     Number       Type             X           Y           Z
 ---------------------------------------------------------------------
      1         14           0       -6.503530   -0.182680   -0.235480
      2          8           0       -4.882710   -0.361030   -0.015450
      3          8           0       -6.807280    1.352330   -0.709470
      4          8           0       -7.282160   -0.481980    1.171690
      5          8           0       -7.013780   -1.244640   -1.369240
      6          1           0       -6.409420   -1.356720   -2.121150
      7          1           0       -7.667470   -1.370440    1.224570
      8          1           0       -7.697350    1.666580   -0.490190
      9         14           0       -3.310180   -2.974160   -1.406000
     10          8           0       -1.793190   -2.575070   -0.936310
     11          8           0       -4.230590   -3.301550   -0.091250
     12          8           0       -3.248760   -4.284480   -2.385160
     13          8           0       -3.983840   -1.707880   -2.202900
     14          1           0       -4.004780   -0.897690   -1.665050
     15          1           0       -4.118640   -4.644440   -2.609850
     16          1           0       -1.105940   -3.064130   -1.414280
     17          1           0       -4.357060   -2.538590    0.494560
     18          1           0       -4.508700    0.336590    0.547580
 ---------------------------------------------------------------------
                    Distance matrix (angstroms):
                    1          2          3          4          5
     1  Si   0.000000
     2  O    1.645381   0.000000
     3  O    1.634988   2.668564   0.000000
     4  O    1.635840   2.679793   2.670013   0.000000
     5  O    1.635092   2.674878   2.687414   2.666459   0.000000
     6  H    2.223281   2.784998   3.080598   3.517050   0.971175
     7  H    2.212979   3.211144   3.448755   0.969856   2.677870
     8  H    2.215817   3.501254   0.969052   2.747824   3.116921
     9  Si   4.399996   3.351854   5.606548   5.350895   4.087694
    10  O    5.329352   3.910894   6.373149   6.241272   5.404816
    11  O    3.861918   3.012916   5.355383   4.342473   3.689212
    12  O    5.660337   4.866084   6.873473   6.586236   4.944502
    13  O    3.542007   2.721564   4.423464   4.875408   3.176494
    14  H    2.966254   1.944208   3.718834   4.354438   3.043347
    15  H    5.588617   5.065799   6.841161   6.452440   4.634608
    16  H    6.231075   4.850512   7.246182   7.176380   6.181840
    17  H    3.269649   2.297430   4.753159   3.639280   3.493740
    18  H    2.205033   0.971370   2.809871   2.958319   3.528443
                    6          7          8          9         10
     6  H    0.000000
     7  H    3.574454   0.000000
     8  H    3.668670   3.487805   0.000000
     9  Si   3.568311   5.336459   6.451545   0.000000
    10  O    4.919126   6.373986   7.283524   1.637419   0.000000
    11  O    3.556706   4.156045   6.071235   1.637958   2.680078
    12  O    4.316393   6.406776   7.667854   1.636907   2.672065
    13  O    2.452231   5.042871   5.301935   1.640833   2.674924
    14  H    2.490187   4.689210   4.646596   2.204836   2.869808
    15  H    4.036781   6.165715   7.558379   2.211944   3.534225
    16  H    5.616210   7.272262   8.165797   2.206091   0.969509
    17  H    3.528589   3.585569   5.459920   2.213099   2.936350
    18  H    3.688110   3.653778   3.607399   4.026660   4.248963
                   11         12         13         14         15
    11  O    0.000000
    12  O    2.681821   0.000000
    13  O    2.657016   2.685597   0.000000
    14  H    2.882079   3.544076   0.972692   0.000000
    15  H    2.856437   0.967857   2.967687   3.865714   0.000000
    16  H    3.401502   2.650196   3.277750   3.627619   3.605985
    17  H    0.970194   3.545314   2.847045   2.735063   3.758831
    18  H    3.704256   5.616289   3.467056   2.583237   5.910344
                   16         17         18
    16  H    0.000000
    17  H    3.806526   0.000000
    18  H    5.195437   2.879664   0.000000
 Stoichiometry    H8O8Si2
 Framework group  C1[X(H8O8Si2)]
 Deg. of freedom    48
 Full point group                 C1      NOp   1
 Largest Abelian subgroup         C1      NOp   1
 Largest concise Abelian subgroup C1      NOp   1
                         Standard orientation:                         
 ---------------------------------------------------------------------
 Center     Atomic      Atomic             Coordinates (Angstroms)
 Number     Number       Type             X           Y           Z
 ---------------------------------------------------------------------
      1         14           0       -2.188252   -0.004896   -0.010597
      2          8           0       -0.958028    1.062901    0.221003
      3          8           0       -3.252793    0.636826   -1.072732
      4          8           0       -2.942709   -0.286451    1.413304
      5          8           0       -1.581337   -1.410282   -0.585113
      6          1           0       -0.869336   -1.307918   -1.237614
      7          1           0       -2.674270   -1.114186    1.841574
      8          1           0       -4.156815    0.300106   -0.980946
      9         14           0        2.211718   -0.005158    0.004465
     10          8           0        2.933883    1.447742    0.225144
     11          8           0        1.396996   -0.431972    1.359811
     12          8           0        3.349204   -1.130388   -0.341148
     13          8           0        1.135659    0.103947   -1.229442
     14          1           0        0.462889    0.789843   -1.077604
     15          1           0        3.006072   -2.034835   -0.372510
     16          1           0        3.870946    1.448463   -0.023571
     17          1           0        0.664609    0.165873    1.577681
     18          1           0       -1.279628    1.954820    0.432223
 ---------------------------------------------------------------------
 Rotational constants (GHZ):           2.0083208           0.4293598           0.4272880
 Standard basis: 6-31+G(d,p) (6D, 7F)
 There are   238 symmetry adapted cartesian basis functions of A   symmetry.
 There are   238 symmetry adapted basis functions of A   symmetry.
   238 basis functions,   424 primitive gaussians,   238 cartesian basis functions
    50 alpha electrons       50 beta electrons
       nuclear repulsion energy       837.6119829928 Hartrees.
 NAtoms=   18 NActive=   18 NUniq=   18 SFac= 1.00D+00 NAtFMM=   60 NAOKFM=F Big=F
 Integral buffers will be    131072 words long.
 Raffenetti 2 integral format.
 Two-electron integral symmetry is turned on.
 Nuclear repulsion after empirical dispersion term =      837.5963650459 Hartrees.
 One-electron integrals computed using PRISM.
 NBasis=   238 RedAO= T EigKep=  2.48D-04  NBF=   238
 NBsUse=   238 1.00D-06 EigRej= -1.00D+00 NBFU=   238
 ExpMin= 3.31D-02 ExpMax= 1.61D+04 ExpMxC= 2.43D+03 IAcc=3 IRadAn=         5 AccDes= 0.00D+00
 Harris functional with IExCor=  402 and IRadAn=       5 diagonalized for initial guess.
 HarFok:  IExCor=  402 AccDes= 0.00D+00 IRadAn=         5 IDoV= 1 UseB2=F ITyADJ=14
 ICtDFT=  3500011 ScaDFX=  1.000000  1.000000  1.000000  1.000000
 FoFCou: FMM=F IPFlag=           0 FMFlag=      100000 FMFlg1=           0
         NFxFlg=           0 DoJE=T BraDBF=F KetDBF=T FulRan=T
         wScrn=  0.000000 ICntrl=       500 IOpCl=  0 I1Cent=   200000004 NGrid=           0
         NMat0=    1 NMatS0=      1 NMatT0=    0 NMatD0=    1 NMtDS0=    0 NMtDT0=    0
 Petite list used in FoFCou.
 Requested convergence on RMS density matrix=1.00D-08 within 128 cycles.
 Requested convergence on MAX density matrix=1.00D-06.
 Requested convergence on             energy=1.00D-06.
 No special actions if energy rises.
 SCF Done:  E(RB3LYP) =  -1186.05420079     A.U. after   12 cycles
            NFock= 12  Conv=0.16D-08     -V/T= 2.0064

 **********************************************************************

            Population analysis using the SCF Density.

 **********************************************************************

 Orbital symmetries:
       Occupied  (A) (A) (A) (A) (A) (A) (A) (A) (A) (A) (A) (A)
                 (A) (A) (A) (A) (A) (A) (A) (A) (A) (A) (A) (A)
                 (A) (A) (A) (A) (A) (A) (A) (A) (A) (A) (A) (A)
                 (A) (A) (A) (A) (A) (A) (A) (A) (A) (A) (A) (A)
                 (A) (A)
       Virtual   (A) (A) (A) (A) (A) (A) (A) (A) (A) (A) (A) (A)
                 (A) (A) (A) (A) (A) (A) (A) (A) (A) (A) (A) (A)
                 (A) (A) (A) (A) (A) (A) (A) (A) (A) (A) (A) (A)
                 (A) (A) (A) (A) (A) (A) (A) (A) (A) (A) (A) (A)
                 (A) (A) (A) (A) (A) (A) (A) (A) (A) (A) (A) (A)
                 (A) (A) (A) (A) (A) (A) (A) (A) (A) (A) (A) (A)
                 (A) (A) (A) (A) (A) (A) (A) (A) (A) (A) (A) (A)
                 (A) (A) (A) (A) (A) (A) (A) (A) (A) (A) (A) (A)
                 (A) (A) (A) (A) (A) (A) (A) (A) (A) (A) (A) (A)
                 (A) (A) (A) (A) (A) (A) (A) (A) (A) (A) (A) (A)
                 (A) (A) (A) (A) (A) (A) (A) (A) (A) (A) (A) (A)
                 (A) (A) (A) (A) (A) (A) (A) (A) (A) (A) (A) (A)
                 (A) (A) (A) (A) (A) (A) (A) (A) (A) (A) (A) (A)
                 (A) (A) (A) (A) (A) (A) (A) (A) (A) (A) (A) (A)
                 (A) (A) (A) (A) (A) (A) (A) (A) (A) (A) (A) (A)
                 (A) (A) (A) (A) (A) (A) (A) (A)
 The electronic state is 1-A.
 Alpha  occ. eigenvalues --  -66.23089 -66.20597 -19.20375 -19.18363 -19.18090
 Alpha  occ. eigenvalues --  -19.17432 -19.16995 -19.16145 -19.15349 -19.15294
 Alpha  occ. eigenvalues --   -5.36688  -5.34185  -3.72705  -3.72645  -3.72595
 Alpha  occ. eigenvalues --   -3.70212  -3.70123  -3.70104  -1.07129  -1.04307
 Alpha  occ. eigenvalues --   -1.03642  -1.02312  -1.01726  -1.00756  -1.00128
 Alpha  occ. eigenvalues --   -0.99453  -0.61060  -0.58717  -0.55741  -0.54511
 Alpha  occ. eigenvalues --   -0.54257  -0.53114  -0.51941  -0.51825  -0.44339
 Alpha  occ. eigenvalues --   -0.41581  -0.40502  -0.39771  -0.39379  -0.38931
 Alpha  occ. eigenvalues --   -0.38618  -0.38198  -0.37708  -0.36960  -0.34930
 Alpha  occ. eigenvalues --   -0.34729  -0.34606  -0.33237  -0.32927  -0.30363
 Alpha virt. eigenvalues --   -0.04022  -0.01011   0.00101   0.00866   0.01991
 Alpha virt. eigenvalues --    0.02771   0.04580   0.06599   0.08658   0.09561
 Alpha virt. eigenvalues --    0.10244   0.11083   0.11676   0.12466   0.12706
 Alpha virt. eigenvalues --    0.13562   0.13670   0.14499   0.14930   0.15817
 Alpha virt. eigenvalues --    0.16436   0.16981   0.17063   0.17682   0.18470
 Alpha virt. eigenvalues --    0.18792   0.19127   0.20299   0.20531   0.21253
 Alpha virt. eigenvalues --    0.21867   0.22122   0.22712   0.23343   0.24087
 Alpha virt. eigenvalues --    0.25285   0.25935   0.25957   0.27355   0.27653
 Alpha virt. eigenvalues --    0.27687   0.28436   0.29079   0.30141   0.30597
 Alpha virt. eigenvalues --    0.30937   0.32715   0.33844   0.35368   0.36151
 Alpha virt. eigenvalues --    0.36896   0.38524   0.39323   0.39599   0.42670
 Alpha virt. eigenvalues --    0.44414   0.47463   0.47958   0.50071   0.50323
 Alpha virt. eigenvalues --    0.51991   0.54456   0.61008   0.61786   0.62657
 Alpha virt. eigenvalues --    0.64487   0.65481   0.71669   0.93372   0.94019
 Alpha virt. eigenvalues --    0.95212   0.96450   0.96587   0.97036   0.98020
 Alpha virt. eigenvalues --    0.98988   0.99824   1.01297   1.04096   1.04498
 Alpha virt. eigenvalues --    1.07734   1.11716   1.14757   1.16088   1.16501
 Alpha virt. eigenvalues --    1.17867   1.18149   1.18681   1.20381   1.20705
 Alpha virt. eigenvalues --    1.21494   1.22384   1.22596   1.23291   1.24318
 Alpha virt. eigenvalues --    1.24952   1.25535   1.27137   1.27733   1.29620
 Alpha virt. eigenvalues --    1.30426   1.31408   1.32009   1.34345   1.34913
 Alpha virt. eigenvalues --    1.38770   1.46421   1.49245   1.53685   1.54453
 Alpha virt. eigenvalues --    1.56537   1.56737   1.57943   1.58752   1.59165
 Alpha virt. eigenvalues --    1.60945   1.63051   1.63484   1.65485   1.67085
 Alpha virt. eigenvalues --    1.67629   1.68122   1.69439   1.71874   1.72809
 Alpha virt. eigenvalues --    1.77193   1.79531   1.82935   1.88285   1.89340
 Alpha virt. eigenvalues --    1.89832   1.92425   1.93441   2.01056   2.02388
 Alpha virt. eigenvalues --    2.09765   2.11903   2.15664   2.36169   2.36648
 Alpha virt. eigenvalues --    2.36739   2.37814   2.38054   2.38790   2.40627
 Alpha virt. eigenvalues --    2.42584   2.46952   2.49703   2.57944   2.58616
 Alpha virt. eigenvalues --    2.58874   2.60208   2.60975   2.61920   2.62483
 Alpha virt. eigenvalues --    2.62831   2.66333   2.67662   2.68785   2.70926
 Alpha virt. eigenvalues --    2.71910   2.72950   2.73798   2.75303   2.77083
 Alpha virt. eigenvalues --    2.78603   2.79762   2.81341   2.81909   2.83040
 Alpha virt. eigenvalues --    2.98662   3.01496   3.39794   3.40784   3.42159
 Alpha virt. eigenvalues --    3.44473   3.45565   3.49236   3.50597   3.53343
 Alpha virt. eigenvalues --    4.12785   4.17724   4.17885   4.20872   4.21270
 Alpha virt. eigenvalues --    4.24148   4.34238   4.46939
          Condensed to atoms (all electrons):
               1          2          3          4          5          6
     1  Si  11.824942  -0.086341   0.028739   0.037583   0.091458   0.037515
     2  O   -0.086341   8.720876   0.063675   0.038004   0.028396  -0.007910
     3  O    0.028739   0.063675   8.529025  -0.011772  -0.014300  -0.007299
     4  O    0.037583   0.038004  -0.011772   8.506792   0.072367   0.006066
     5  O    0.091458   0.028396  -0.014300   0.072367   8.428770   0.247033
     6  H    0.037515  -0.007910  -0.007299   0.006066   0.247033   0.322260
     7  H    0.038913  -0.007099   0.005066   0.241363  -0.003499   0.000058
     8  H    0.039398   0.002834   0.236750  -0.001423  -0.007001   0.000039
     9  Si   0.025506  -0.027903   0.001942   0.001193  -0.045280   0.002866
    10  O    0.000759   0.007952   0.000039  -0.000171   0.000072   0.000145
    11  O   -0.028523   0.025637  -0.000958  -0.005076   0.030354  -0.002823
    12  O    0.002118  -0.005802  -0.000060   0.000196  -0.001623   0.000024
    13  O   -0.032880   0.005324  -0.006885  -0.003290   0.041414   0.009212
    14  H    0.012048  -0.001613  -0.000492   0.000809  -0.006671  -0.000621
    15  H   -0.000214   0.000107   0.000000  -0.000003  -0.000101   0.000017
    16  H   -0.000239   0.000041   0.000000   0.000000   0.000012  -0.000001
    17  H    0.003375   0.001320   0.000167   0.001605  -0.003452   0.000206
    18  H    0.045297   0.213380  -0.002338  -0.008230   0.006358   0.000050
               7          8          9         10         11         12
     1  Si   0.038913   0.039398   0.025506   0.000759  -0.028523   0.002118
     2  O   -0.007099   0.002834  -0.027903   0.007952   0.025637  -0.005802
     3  O    0.005066   0.236750   0.001942   0.000039  -0.000958  -0.000060
     4  O    0.241363  -0.001423   0.001193  -0.000171  -0.005076   0.000196
     5  O   -0.003499  -0.007001  -0.045280   0.000072   0.030354  -0.001623
     6  H    0.000058   0.000039   0.002866   0.000145  -0.002823   0.000024
     7  H    0.347593   0.000077   0.000330  -0.000002  -0.000416  -0.000004
     8  H    0.000077   0.356187  -0.000078   0.000000   0.000027  -0.000000
     9  Si   0.000330  -0.000078  11.861162  -0.018096  -0.027166   0.039351
    10  O   -0.000002   0.000000  -0.018096   8.566024   0.064008   0.010732
    11  O   -0.000416   0.000027  -0.027166   0.064008   8.524580   0.031836
    12  O   -0.000004  -0.000000   0.039351   0.010732   0.031836   8.484288
    13  O    0.000007   0.000107  -0.032677   0.052097   0.048594   0.039165
    14  H   -0.000002  -0.000007   0.049890  -0.006097  -0.019013   0.007604
    15  H    0.000000   0.000000   0.041463   0.008547  -0.007550   0.243545
    16  H    0.000000   0.000000   0.034335   0.235876   0.001206  -0.000675
    17  H    0.000088  -0.000001   0.052240  -0.007324   0.233193   0.006840
    18  H    0.000082   0.000116  -0.000787   0.000006   0.001327  -0.000012
              13         14         15         16         17         18
     1  Si  -0.032880   0.012048  -0.000214  -0.000239   0.003375   0.045297
     2  O    0.005324  -0.001613   0.000107   0.000041   0.001320   0.213380
     3  O   -0.006885  -0.000492   0.000000   0.000000   0.000167  -0.002338
     4  O   -0.003290   0.000809  -0.000003   0.000000   0.001605  -0.008230
     5  O    0.041414  -0.006671  -0.000101   0.000012  -0.003452   0.006358
     6  H    0.009212  -0.000621   0.000017  -0.000001   0.000206   0.000050
     7  H    0.000007  -0.000002   0.000000   0.000000   0.000088   0.000082
     8  H    0.000107  -0.000007   0.000000   0.000000  -0.000001   0.000116
     9  Si  -0.032677   0.049890   0.041463   0.034335   0.052240  -0.000787
    10  O    0.052097  -0.006097   0.008547   0.235876  -0.007324   0.000006
    11  O    0.048594  -0.019013  -0.007550   0.001206   0.233193   0.001327
    12  O    0.039165   0.007604   0.243545  -0.000675   0.006840  -0.000012
    13  O    8.573617   0.223295  -0.008339  -0.003815  -0.019227   0.005577
    14  H    0.223295   0.343022  -0.000008  -0.000038   0.000493  -0.001582
    15  H   -0.008339  -0.000008   0.360558   0.000047   0.000006   0.000000
    16  H   -0.003815  -0.000038   0.000047   0.357230  -0.000033   0.000001
    17  H   -0.019227   0.000493   0.000006  -0.000033   0.347787  -0.000164
    18  H    0.005577  -0.001582   0.000000   0.000001  -0.000164   0.341481
 Mulliken charges:
               1
     1  Si   1.960546
     2  O   -0.970878
     3  O   -0.821302
     4  O   -0.876012
     5  O   -0.864307
     6  H    0.393165
     7  H    0.377444
     8  H    0.372974
     9  Si   2.041710
    10  O   -0.914565
    11  O   -0.869235
    12  O   -0.857522
    13  O   -0.891297
    14  H    0.398982
    15  H    0.361924
    16  H    0.376051
    17  H    0.382882
    18  H    0.399439
 Sum of Mulliken charges =  -0.00000
 Mulliken charges with hydrogens summed into heavy atoms:
               1
     1  Si   1.960546
     2  O   -0.571439
     3  O   -0.448328
     4  O   -0.498568
     5  O   -0.471142
     9  Si   2.041710
    10  O   -0.538514
    11  O   -0.486353
    12  O   -0.495598
    13  O   -0.492315
 Electronic spatial extent (au):  <R**2>=           2621.1720
 Charge=              0.0000 electrons
 Dipole moment (field-independent basis, Debye):
    X=             -2.1981    Y=              0.1930    Z=              0.3336  Tot=              2.2316
 Quadrupole moment (field-independent basis, Debye-Ang):
   XX=            -66.7890   YY=            -66.6529   ZZ=            -76.0181
   XY=              0.1640   XZ=             -2.4239   YZ=              0.7557
 Traceless Quadrupole moment (field-independent basis, Debye-Ang):
   XX=              3.0310   YY=              3.1671   ZZ=             -6.1981
   XY=              0.1640   XZ=             -2.4239   YZ=              0.7557
 Octapole moment (field-independent basis, Debye-Ang**2):
  XXX=            -22.0299  YYY=             -4.1489  ZZZ=              6.2406  XYY=              4.8304
  XXY=              2.3919  XXZ=            -12.4041  XZZ=             -8.4446  YZZ=             -6.1496
  YYZ=              3.1264  XYZ=              2.3906
 Hexadecapole moment (field-independent basis, Debye-Ang**3):
 XXXX=          -2136.0126 YYYY=           -321.8333 ZZZZ=           -358.6431 XXXY=            118.3601
 XXXZ=             60.5661 YYYX=            -65.2923 YYYZ=              5.9315 ZZZX=            -13.4566
 ZZZY=             -2.8019 XXYY=           -434.4093 XXZZ=           -506.5701 YYZZ=           -110.3123
 XXYZ=            -15.2191 YYXZ=            -37.7619 ZZXY=             25.6781
 N-N= 8.375963650459D+02 E-N=-4.485149160101D+03  KE= 1.178470391828D+03
 Calling FoFJK, ICntrl=      2127 FMM=F ISym2X=0 I1Cent= 0 IOpClX= 0 NMat=1 NMatS=1 NMatT=0.
 ***** Axes restored to original set *****
 -------------------------------------------------------------------
 Center     Atomic                   Forces (Hartrees/Bohr)
 Number     Number              X              Y              Z
 -------------------------------------------------------------------
      1       14          -0.014709407   -0.004251279   -0.007519460
      2        8           0.015827425    0.010812681    0.005866611
      3        8          -0.001847564    0.011984484    0.005631267
      4        8          -0.010090431   -0.007736304    0.004343163
      5        8           0.005425219   -0.005546587   -0.003385960
      6        1          -0.001196905   -0.004028469    0.001924245
      7        1           0.001087462    0.004216472    0.002625786
      8        1           0.004545367    0.000754943   -0.002145506
      9       14          -0.003853021    0.003129318    0.003053521
     10        8           0.014645815   -0.005927507   -0.003830079
     11        8          -0.004064006   -0.001803797    0.011858026
     12        8          -0.005266597   -0.004276303   -0.002741484
     13        8          -0.004671527    0.010485687   -0.011211735
     14        1           0.000040983   -0.003446809   -0.001844694
     15        1           0.004249832   -0.001587004   -0.001182325
     16        1          -0.000097359    0.004427967    0.004212356
     17        1          -0.001765555   -0.003423907   -0.002914400
     18        1           0.001740269   -0.003783587   -0.002739331
 -------------------------------------------------------------------
 Cartesian Forces:  Max     0.015827425 RMS     0.006220172

 GradGradGradGradGradGradGradGradGradGradGradGradGradGradGradGradGradGrad
 Berny optimization.
 FormGI is forming the generalized inverse of G from B-inverse, IUseBI=4.
 Internal  Forces:  Max     0.015256652 RMS     0.005598814
 Search for a local minimum.
 Step number   1 out of a maximum of   81
 All quantities printed in internal units (Hartrees-Bohrs-Radians)
 Mixed Optimization -- RFO/linear search
 Second derivative matrix not updated -- first step.
 ITU=  0
     Eigenvalues ---    0.00463   0.03739   0.03799   0.03810   0.03837
     Eigenvalues ---    0.03844   0.03851   0.03865   0.03875   0.03876
     Eigenvalues ---    0.04172   0.07864   0.10703   0.10772   0.12173
     Eigenvalues ---    0.12197   0.12246   0.12480   0.13853   0.16000
     Eigenvalues ---    0.16000   0.16000   0.16000   0.16000   0.16000
     Eigenvalues ---    0.16000   0.20131   0.20260   0.20696   0.20836
     Eigenvalues ---    0.21101   0.41338   0.43803   0.44527   0.44613
     Eigenvalues ---    0.44696   0.44868   0.44990   0.45007   0.51766
     Eigenvalues ---    0.53098   0.53138   0.53337   0.53406   0.53477
     Eigenvalues ---    0.53571   0.538171000.000001000.000001000.00000
     Eigenvalues --- 1000.000001000.000001000.000001000.000001000.00000
     Eigenvalues --- 1000.000001000.000001000.000001000.000001000.00000
     Eigenvalues --- 1000.000001000.000001000.000001000.000001000.00000
     Eigenvalues --- 1000.000001000.000001000.000001000.000001000.00000
     Eigenvalues --- 1000.00000
 RFO step:  Lambda=-9.62008394D-03 EMin= 4.63157560D-03
 Linear search not attempted -- first point.
 Iteration  1 RMS(Cart)=  0.14019712 RMS(Int)=  0.00545466
 Iteration  2 RMS(Cart)=  0.01094647 RMS(Int)=  0.00049508
 Iteration  3 RMS(Cart)=  0.00006539 RMS(Int)=  0.00049445
 Iteration  4 RMS(Cart)=  0.00000006 RMS(Int)=  0.00049445
 Iteration  1 RMS(Cart)=  0.00024760 RMS(Int)=  0.00002617
 Iteration  2 RMS(Cart)=  0.00001654 RMS(Int)=  0.00002698
 Iteration  3 RMS(Cart)=  0.00000110 RMS(Int)=  0.00002709
 Iteration  4 RMS(Cart)=  0.00000007 RMS(Int)=  0.00002709
 Variable       Old X    -DE/DX   Delta X   Delta X   Delta X     New X
                                 (Linear)    (Quad)   (Total)
    R1        3.10932   0.01526   0.00000   0.03855   0.03917   3.14849
    R2        3.08968   0.01045   0.00000   0.02273   0.02273   3.11241
    R3        3.09129   0.01092   0.00000   0.02383   0.02383   3.11512
    R4        3.08988   0.00591   0.00000   0.01286   0.01286   3.10274
    R5        8.31479   0.00078   0.00000   0.00000  -0.00000   8.31479
    R6        3.67402   0.00366   0.00000   0.09549   0.09618   3.77020
    R7        1.83562  -0.00363   0.00000  -0.00672  -0.00672   1.82890
    R8        1.83124  -0.00442   0.00000  -0.00810  -0.00810   1.82314
    R9        1.83276  -0.00415   0.00000  -0.00764  -0.00764   1.82513
   R10        1.83526  -0.00177   0.00000  -0.00327  -0.00327   1.83198
   R11        3.09427   0.01322   0.00000   0.02901   0.02901   3.12328
   R12        3.09529   0.01150   0.00000   0.02528   0.02528   3.12057
   R13        3.09331   0.00700   0.00000   0.01534   0.01534   3.10864
   R14        3.10072   0.01248   0.00000   0.03128   0.03189   3.13261
   R15        1.83211  -0.00438   0.00000  -0.00804  -0.00804   1.82406
   R16        1.83340  -0.00422   0.00000  -0.00778  -0.00778   1.82562
   R17        1.82899  -0.00295   0.00000  -0.00539  -0.00539   1.82359
   R18        1.83812   0.00012   0.00000   0.00336   0.00399   1.84211
    A1        1.90027  -0.00862   0.00000  -0.04564  -0.04505   1.85522
    A2        1.91135   0.01075   0.00000   0.04468   0.04469   1.95604
    A3        1.90681  -0.00803   0.00000  -0.04400  -0.04338   1.86343
    A4        1.90999  -0.00283   0.00000  -0.00758  -0.00740   1.90259
    A5        1.92919   0.01267   0.00000   0.06646   0.06585   1.99504
    A6        1.90614  -0.00387   0.00000  -0.01371  -0.01358   1.89256
    A7        1.94044  -0.01089   0.00000  -0.04822  -0.04696   1.89348
    A8        1.95946   0.00882   0.00000   0.04484   0.04415   2.00361
    A9        2.11317   0.00124   0.00000   0.00051   0.00046   2.11363
   A10        1.99270   0.00461   0.00000   0.02716   0.02716   2.01986
   A11        1.98626   0.00530   0.00000   0.03123   0.03123   2.01749
   A12        2.00160   0.00483   0.00000   0.02850   0.02850   2.03011
   A13        1.91672   0.00174   0.00000   0.01187   0.01149   1.92821
   A14        1.90914  -0.00286   0.00000  -0.02171  -0.02170   1.88744
   A15        1.90878   0.00130   0.00000   0.01079   0.01046   1.91924
   A16        1.91902  -0.00206   0.00000  -0.01424  -0.01419   1.90483
   A17        1.88955   0.00300   0.00000   0.02247   0.02225   1.91180
   A18        1.92053  -0.00103   0.00000  -0.00855  -0.00846   1.91207
   A19        1.97400   0.00780   0.00000   0.04597   0.04597   2.01997
   A20        1.98311   0.00206   0.00000   0.01215   0.01215   1.99526
   A21        1.98543   0.00665   0.00000   0.03920   0.03920   2.02463
   A22        1.96394   0.00055   0.00000   0.02449   0.02577   1.98971
   A23        2.35859   0.00294   0.00000   0.02912   0.03091   2.38950
    D1       -1.54833  -0.00208   0.00000  -0.00555  -0.00611  -1.55444
    D2        0.88091  -0.00249   0.00000  -0.00877  -0.00968   0.87122
    D3        2.64711   0.00015   0.00000   0.00457   0.00475   2.65186
    D4       -1.20684  -0.00026   0.00000   0.00135   0.00118  -1.20567
    D5        0.56009   0.00326   0.00000   0.02102   0.02194   0.58203
    D6        2.98933   0.00285   0.00000   0.01780   0.01837   3.00769
    D7       -2.69128  -0.00465   0.00000  -0.02274  -0.02344  -2.71472
    D8       -0.60268   0.00156   0.00000  -0.00035  -0.00044  -0.60312
    D9        1.49729   0.00291   0.00000   0.01954   0.02033   1.51761
   D10       -1.74557   0.00026   0.00000   0.00650   0.00656  -1.73901
   D11        2.45585   0.00600   0.00000   0.03983   0.03957   2.49541
   D12        0.34186  -0.00541   0.00000  -0.02857  -0.02836   0.31350
   D13       -0.69349   0.00647   0.00000   0.05953   0.06030  -0.63319
   D14        1.39720  -0.00141   0.00000   0.01645   0.01576   1.41295
   D15       -2.78372   0.00053   0.00000   0.03981   0.03974  -2.74398
   D16       -1.23214   0.00444   0.00000   0.14803   0.14754  -1.08460
   D17        2.69360   0.00207   0.00000   0.13374   0.13296   2.82656
   D18        2.27493  -0.00278   0.00000  -0.01877  -0.01886   2.25607
   D19        0.16739   0.00048   0.00000   0.00503   0.00504   0.17243
   D20       -1.93707   0.00271   0.00000   0.02223   0.02232  -1.91475
   D21        1.11425   0.00386   0.00000   0.04464   0.04480   1.15906
   D22       -3.06737   0.00012   0.00000   0.01631   0.01632  -3.05104
   D23       -0.96874  -0.00052   0.00000   0.01120   0.01102  -0.95773
   D24        3.01248  -0.00013   0.00000  -0.00274  -0.00269   3.00979
   D25        0.90635   0.00081   0.00000   0.00521   0.00511   0.91146
   D26       -1.17342  -0.00096   0.00000  -0.00833  -0.00828  -1.18170
   D27       -1.00292  -0.00223   0.00000  -0.01071  -0.01086  -1.01378
   D28        1.08508   0.00240   0.00000   0.02318   0.02333   1.10841
   D29       -3.10042   0.00112   0.00000   0.01454   0.01453  -3.08589
   D30       -1.11777   0.00334   0.00000  -0.03144  -0.03301  -1.15078
         Item               Value     Threshold  Converged?
 Maximum Force            0.015212     0.000450     NO 
 RMS     Force            0.005638     0.000300     NO 
 Maximum Displacement     0.412919     0.001800     NO 
 RMS     Displacement     0.145240     0.001200     NO 
 Predicted change in Energy=-5.252183D-03
 GradGradGradGradGradGradGradGradGradGradGradGradGradGradGradGradGradGrad

                          Input orientation:                          
 ---------------------------------------------------------------------
 Center     Atomic      Atomic             Coordinates (Angstroms)
 Number     Number       Type             X           Y           Z
 ---------------------------------------------------------------------
      1         14           0       -6.510656   -0.174957   -0.208130
      2          8           0       -4.866691   -0.217303    0.059286
      3          8           0       -6.845692    1.329101   -0.789703
      4          8           0       -7.370098   -0.418715    1.177272
      5          8           0       -6.852220   -1.394975   -1.252508
      6          1           0       -6.190913   -1.570629   -1.939269
      7          1           0       -7.709868   -1.313657    1.305470
      8          1           0       -7.748709    1.639694   -0.652350
      9         14           0       -3.336186   -2.966222   -1.429416
     10          8           0       -1.783024   -2.665469   -0.950999
     11          8           0       -4.272401   -3.371728   -0.130965
     12          8           0       -3.311130   -4.223527   -2.489918
     13          8           0       -3.969097   -1.626279   -2.172362
     14          1           0       -3.968850   -0.826560   -1.614969
     15          1           0       -4.171689   -4.569395   -2.756459
     16          1           0       -1.095339   -3.131289   -1.442744
     17          1           0       -4.403578   -2.655616    0.504082
     18          1           0       -4.519239    0.527546    0.570302
 ---------------------------------------------------------------------
                    Distance matrix (angstroms):
                    1          2          3          4          5
     1  Si   0.000000
     2  O    1.666111   0.000000
     3  O    1.647017   2.651149   0.000000
     4  O    1.648453   2.749092   2.683067   0.000000
     5  O    1.641900   2.655192   2.763118   2.669290   0.000000
     6  H    2.246548   2.753049   3.187267   3.525650   0.969445
     7  H    2.241814   3.292207   3.481482   0.965816   2.699152
     8  H    2.241220   3.501556   0.964766   2.779912   3.220730
     9  Si   4.399996   3.480695   5.583517   5.436641   3.855206
    10  O    5.394906   4.064873   6.450830   6.386927   5.234674
    11  O    3.903214   3.215552   5.399402   4.475208   3.438150
    12  O    5.642201   4.996803   6.798200   6.663339   4.698001
    13  O    3.524779   2.787677   4.349806   4.923928   3.035134
    14  H    2.977341   1.995105   3.688382   4.419438   2.961131
    15  H    5.592480   5.229929   6.768358   6.552267   4.418604
    16  H    6.292044   4.997049   7.306715   7.320870   6.016033
    17  H    3.331770   2.521446   4.849305   3.775864   3.266599
    18  H    2.250602   0.967812   2.811492   3.064510   3.530089
                    6          7          8          9         10
     6  H    0.000000
     7  H    3.591878   0.000000
     8  H    3.793292   3.543565   0.000000
     9  Si   3.218245   5.416611   6.425625   0.000000
    10  O    4.648101   6.484329   7.362949   1.652770   0.000000
    11  O    3.192900   4.256193   6.121348   1.651336   2.714454
    12  O    3.954015   6.497785   7.579322   1.645024   2.670379
    13  O    2.234703   5.117267   5.221349   1.657708   2.711192
    14  H    2.365665   4.770896   4.614800   2.238939   2.932623
    15  H    3.706435   6.294267   7.468275   2.242603   3.548287
    16  H    5.352295   7.389753   8.225225   2.246957   0.965252
    17  H    3.215855   3.657134   5.565691   2.230295   2.997443
    18  H    3.673524   3.756410   3.627841   4.195820   4.471753
                   11         12         13         14         15
    11  O    0.000000
    12  O    2.685938   0.000000
    13  O    2.702941   2.698047   0.000000
    14  H    2.961805   3.568965   0.974801   0.000000
    15  H    2.887520   0.965004   3.007349   3.918285   0.000000
    16  H    3.445620   2.683148   3.325038   3.687614   3.641143
    17  H    0.966078   3.551876   2.900287   2.832809   3.787802
    18  H    3.969514   5.779028   3.530414   2.629057   6.096469
                   16         17         18
    16  H    0.000000
    17  H    3.867925   0.000000
    18  H    5.400233   3.185951   0.000000
 Stoichiometry    H8O8Si2
 Framework group  C1[X(H8O8Si2)]
 Deg. of freedom    48
 Full point group                 C1      NOp   1
 Largest Abelian subgroup         C1      NOp   1
 Largest concise Abelian subgroup C1      NOp   1
                         Standard orientation:                         
 ---------------------------------------------------------------------
 Center     Atomic      Atomic             Coordinates (Angstroms)
 Number     Number       Type             X           Y           Z
 ---------------------------------------------------------------------
      1         14           0       -2.199182   -0.011231   -0.017517
      2          8           0       -1.065905    1.047353    0.591588
      3          8           0       -3.230285    0.891113   -0.931448
      4          8           0       -3.054388   -0.758248    1.177467
      5          8           0       -1.374844   -1.155078   -0.858894
      6          1           0       -0.593537   -0.850929   -1.345593
      7          1           0       -2.766870   -1.653184    1.399329
      8          1           0       -4.115600    0.525870   -1.048017
      9         14           0        2.200736   -0.002697    0.007048
     10          8           0        2.991232    1.253447    0.734282
     11          8           0        1.417604   -0.922041    1.133291
     12          8           0        3.316916   -0.931597   -0.765864
     13          8           0        1.105288    0.578769   -1.092898
     14          1           0        0.440114    1.179902   -0.710249
     15          1           0        2.993113   -1.761827   -1.136137
     16          1           0        3.920521    1.358462    0.495315
     17          1           0        0.689035   -0.470328    1.578766
     18          1           0       -1.433477    1.837288    1.012959
 ---------------------------------------------------------------------
 Rotational constants (GHZ):           1.9884758           0.4282884           0.4242670
 Standard basis: 6-31+G(d,p) (6D, 7F)
 There are   238 symmetry adapted cartesian basis functions of A   symmetry.
 There are   238 symmetry adapted basis functions of A   symmetry.
   238 basis functions,   424 primitive gaussians,   238 cartesian basis functions
    50 alpha electrons       50 beta electrons
       nuclear repulsion energy       833.2360363435 Hartrees.
 NAtoms=   18 NActive=   18 NUniq=   18 SFac= 1.00D+00 NAtFMM=   60 NAOKFM=F Big=F
 Integral buffers will be    131072 words long.
 Raffenetti 2 integral format.
 Two-electron integral symmetry is turned on.
 Nuclear repulsion after empirical dispersion term =      833.2205064715 Hartrees.
 One-electron integrals computed using PRISM.
 NBasis=   238 RedAO= T EigKep=  2.50D-04  NBF=   238
 NBsUse=   238 1.00D-06 EigRej= -1.00D+00 NBFU=   238
 Initial guess from the checkpoint file:  "/localscratch/sarashs.36560097.0/Gau-6692.chk"
 B after Tr=    -0.000000   -0.000000   -0.000000
         Rot=    0.985907   -0.167204    0.004249   -0.003367 Ang= -19.26 deg.
 ExpMin= 3.31D-02 ExpMax= 1.61D+04 ExpMxC= 2.43D+03 IAcc=3 IRadAn=         5 AccDes= 0.00D+00
 Harris functional with IExCor=  402 and IRadAn=       5 diagonalized for initial guess.
 HarFok:  IExCor=  402 AccDes= 0.00D+00 IRadAn=         5 IDoV= 1 UseB2=F ITyADJ=14
 ICtDFT=  3500011 ScaDFX=  1.000000  1.000000  1.000000  1.000000
 FoFCou: FMM=F IPFlag=           0 FMFlag=      100000 FMFlg1=           0
         NFxFlg=           0 DoJE=T BraDBF=F KetDBF=T FulRan=T
         wScrn=  0.000000 ICntrl=       500 IOpCl=  0 I1Cent=   200000004 NGrid=           0
         NMat0=    1 NMatS0=      1 NMatT0=    0 NMatD0=    1 NMtDS0=    0 NMtDT0=    0
 Petite list used in FoFCou.
 Requested convergence on RMS density matrix=1.00D-08 within 128 cycles.
 Requested convergence on MAX density matrix=1.00D-06.
 Requested convergence on             energy=1.00D-06.
 No special actions if energy rises.
 SCF Done:  E(RB3LYP) =  -1186.06002491     A.U. after   10 cycles
            NFock= 10  Conv=0.90D-08     -V/T= 2.0067
 Calling FoFJK, ICntrl=      2127 FMM=F ISym2X=0 I1Cent= 0 IOpClX= 0 NMat=1 NMatS=1 NMatT=0.
 ***** Axes restored to original set *****
 -------------------------------------------------------------------
 Center     Atomic                   Forces (Hartrees/Bohr)
 Number     Number              X              Y              Z
 -------------------------------------------------------------------
      1       14          -0.004209914   -0.004303531   -0.004945113
      2        8           0.003139598    0.003936777    0.002679011
      3        8           0.000282677    0.001226687    0.004291318
      4        8          -0.002264514   -0.000974373   -0.001900740
      5        8           0.000112157    0.002137460    0.002392877
      6        1           0.001981244   -0.001635816    0.000643243
      7        1           0.000474710    0.000913522    0.000658261
      8        1           0.000509572    0.000830707   -0.000762296
      9       14           0.002504367    0.001324032    0.002136892
     10        8           0.000062165   -0.002534970   -0.002303898
     11        8           0.001611055    0.000495366    0.001149914
     12        8          -0.002932786    0.000943708    0.000216016
     13        8          -0.002247669    0.002999305   -0.001910344
     14        1           0.000642236   -0.004044910   -0.001370442
     15        1           0.001695273   -0.001173785   -0.000679006
     16        1          -0.000171791    0.001266741    0.001168848
     17        1          -0.001733702    0.000119036   -0.000186647
     18        1           0.000545322   -0.001525955   -0.001277894
 -------------------------------------------------------------------
 Cartesian Forces:  Max     0.004945113 RMS     0.002075757

 GradGradGradGradGradGradGradGradGradGradGradGradGradGradGradGradGradGrad
 Berny optimization.
 Using GEDIIS/GDIIS optimizer.
 FormGI is forming the generalized inverse of G from B-inverse, IUseBI=4.
 Internal  Forces:  Max     0.005166794 RMS     0.001910655
 Search for a local minimum.
 Step number   2 out of a maximum of   81
 All quantities printed in internal units (Hartrees-Bohrs-Radians)
 Mixed Optimization -- RFO/linear search
 Update second derivatives using D2CorX and points    1    2
 DE= -5.82D-03 DEPred=-5.25D-03 R= 1.11D+00
 TightC=F SS=  1.41D+00  RLast= 3.06D-01 DXNew= 5.0454D-01 9.1870D-01
 Trust test= 1.11D+00 RLast= 3.06D-01 DXMaxT set to 5.05D-01
 ITU=  1  0
 Use linear search instead of GDIIS.
     Eigenvalues ---    0.00534   0.03606   0.03751   0.03816   0.03844
     Eigenvalues ---    0.03849   0.03852   0.03866   0.03876   0.03932
     Eigenvalues ---    0.04417   0.07013   0.10746   0.11088   0.11624
     Eigenvalues ---    0.12233   0.12414   0.12511   0.13863   0.14152
     Eigenvalues ---    0.16000   0.16000   0.16000   0.16000   0.16000
     Eigenvalues ---    0.16447   0.17616   0.20576   0.20696   0.20867
     Eigenvalues ---    0.21030   0.40745   0.43784   0.44481   0.44673
     Eigenvalues ---    0.44704   0.44840   0.44965   0.47203   0.51828
     Eigenvalues ---    0.52995   0.53186   0.53360   0.53446   0.53464
     Eigenvalues ---    0.53697   0.537991000.000001000.000001000.00000
     Eigenvalues --- 1000.000001000.000001000.000001000.000001000.00000
     Eigenvalues --- 1000.000001000.000001000.000001000.000001000.00000
     Eigenvalues --- 1000.000001000.000001000.000001000.000001000.00000
     Eigenvalues --- 1000.000001000.000001000.000001000.000001000.00000
     Eigenvalues --- 1000.00000
 RFO step:  Lambda=-2.48179881D-03 EMin= 5.33639568D-03
 Quartic linear search produced a step of  0.27618.
 Iteration  1 RMS(Cart)=  0.13710342 RMS(Int)=  0.00513550
 Iteration  2 RMS(Cart)=  0.01079680 RMS(Int)=  0.00029883
 Iteration  3 RMS(Cart)=  0.00005329 RMS(Int)=  0.00029764
 Iteration  4 RMS(Cart)=  0.00000002 RMS(Int)=  0.00029764
 Iteration  1 RMS(Cart)=  0.00006759 RMS(Int)=  0.00000747
 Iteration  2 RMS(Cart)=  0.00000481 RMS(Int)=  0.00000772
 Iteration  3 RMS(Cart)=  0.00000034 RMS(Int)=  0.00000775
 Variable       Old X    -DE/DX   Delta X   Delta X   Delta X     New X
                                 (Linear)    (Quad)   (Total)
    R1        3.14849   0.00368   0.01082   0.00718   0.01817   3.16667
    R2        3.11241   0.00047   0.00628   0.00150   0.00778   3.12019
    R3        3.11512  -0.00010   0.00658  -0.00012   0.00646   3.12158
    R4        3.10274  -0.00274   0.00355  -0.00770  -0.00414   3.09860
    R5        8.31479  -0.00105  -0.00000   0.00000  -0.00000   8.31479
    R6        3.77020   0.00221   0.02656   0.01267   0.03942   3.80962
    R7        1.82890  -0.00165  -0.00186  -0.00404  -0.00589   1.82301
    R8        1.82314  -0.00032  -0.00224  -0.00083  -0.00306   1.82008
    R9        1.82513  -0.00093  -0.00211  -0.00228  -0.00439   1.82074
   R10        1.83198   0.00119  -0.00090   0.00285   0.00194   1.83393
   R11        3.12328  -0.00066   0.00801  -0.00169   0.00632   3.12960
   R12        3.12057   0.00068   0.00698   0.00212   0.00911   3.12968
   R13        3.10864   0.00046   0.00424   0.00141   0.00565   3.11430
   R14        3.13261   0.00141   0.00881   0.00044   0.00942   3.14203
   R15        1.82406  -0.00133  -0.00222  -0.00324  -0.00547   1.81860
   R16        1.82562   0.00020  -0.00215   0.00042  -0.00173   1.82389
   R17        1.82359  -0.00090  -0.00149  -0.00219  -0.00368   1.81991
   R18        1.84211  -0.00187   0.00110  -0.00775  -0.00649   1.83562
    A1        1.85522  -0.00327  -0.01244  -0.02385  -0.03563   1.81959
    A2        1.95604   0.00503   0.01234   0.02956   0.04187   1.99791
    A3        1.86343  -0.00308  -0.01198  -0.02022  -0.03156   1.83187
    A4        1.90259  -0.00216  -0.00204  -0.01369  -0.01547   1.88712
    A5        1.99504   0.00517   0.01819   0.03574   0.05341   2.04846
    A6        1.89256  -0.00139  -0.00375  -0.00587  -0.00940   1.88316
    A7        1.89348  -0.00493  -0.01297  -0.06267  -0.07524   1.81823
    A8        2.00361   0.00216   0.01219   0.02663   0.03853   2.04213
    A9        2.11363   0.00151   0.00013   0.01576   0.01609   2.12972
   A10        2.01986   0.00215   0.00750   0.01695   0.02446   2.04432
   A11        2.01749   0.00115   0.00863   0.00904   0.01766   2.03515
   A12        2.03011  -0.00028   0.00787  -0.00227   0.00560   2.03571
   A13        1.92821   0.00030   0.00317   0.00216   0.00520   1.93341
   A14        1.88744  -0.00065  -0.00599  -0.00410  -0.01009   1.87734
   A15        1.91924   0.00036   0.00289   0.00191   0.00468   1.92391
   A16        1.90483   0.00041  -0.00392   0.00277  -0.00113   1.90371
   A17        1.91180  -0.00047   0.00615  -0.00270   0.00336   1.91516
   A18        1.91207   0.00005  -0.00234  -0.00003  -0.00234   1.90973
   A19        2.01997   0.00199   0.01270   0.01565   0.02834   2.04831
   A20        1.99526   0.00145   0.00336   0.01147   0.01482   2.01008
   A21        2.02463   0.00357   0.01083   0.02810   0.03893   2.06356
   A22        1.98971  -0.00429   0.00712  -0.05660  -0.04914   1.94057
   A23        2.38950   0.00001   0.00854  -0.02044  -0.01146   2.37804
    D1       -1.55444  -0.00151  -0.00169  -0.01667  -0.01890  -1.57334
    D2        0.87122  -0.00233  -0.00267  -0.03328  -0.03681   0.83442
    D3        2.65186   0.00034   0.00131  -0.00163  -0.00013   2.65173
    D4       -1.20567  -0.00048   0.00033  -0.01824  -0.01804  -1.22370
    D5        0.58203   0.00113   0.00606   0.00151   0.00839   0.59042
    D6        3.00769   0.00031   0.00507  -0.01511  -0.00952   2.99817
    D7       -2.71472  -0.00210  -0.00647  -0.01479  -0.02203  -2.73675
    D8       -0.60312   0.00082  -0.00012  -0.00085  -0.00083  -0.60396
    D9        1.51761   0.00095   0.00561   0.00576   0.01200   1.52961
   D10       -1.73901   0.00004   0.00181   0.00490   0.00667  -1.73235
   D11        2.49541   0.00243   0.01093   0.02535   0.03611   2.53152
   D12        0.31350  -0.00167  -0.00783  -0.00628  -0.01389   0.29961
   D13       -0.63319   0.00349   0.01665   0.05272   0.07000  -0.56319
   D14        1.41295   0.00036   0.00435   0.03022   0.03394   1.44689
   D15       -2.74398   0.00003   0.01097   0.03231   0.04329  -2.70069
   D16       -1.08460  -0.00204   0.04075  -0.11745  -0.07657  -1.16117
   D17        2.82656  -0.00120   0.03672  -0.10166  -0.06541   2.76115
   D18        2.25607   0.00025  -0.00521   0.00417  -0.00109   2.25498
   D19        0.17243  -0.00003   0.00139   0.00205   0.00344   0.17587
   D20       -1.91475   0.00009   0.00616   0.00345   0.00965  -1.90510
   D21        1.15906   0.00109   0.01237   0.02715   0.03958   1.19863
   D22       -3.05104   0.00073   0.00451   0.02512   0.02963  -3.02141
   D23       -0.95773   0.00075   0.00304   0.02514   0.02812  -0.92961
   D24        3.00979  -0.00010  -0.00074  -0.00392  -0.00465   3.00514
   D25        0.91146  -0.00032   0.00141  -0.00570  -0.00433   0.90713
   D26       -1.18170  -0.00002  -0.00229  -0.00407  -0.00633  -1.18803
   D27       -1.01378  -0.00106  -0.00300  -0.02727  -0.03032  -1.04410
   D28        1.10841  -0.00076   0.00644  -0.02511  -0.01861   1.08980
   D29       -3.08589  -0.00052   0.00401  -0.02339  -0.01937  -3.10526
   D30       -1.15078  -0.00411  -0.00912  -0.03412  -0.04367  -1.19445
         Item               Value     Threshold  Converged?
 Maximum Force            0.005167     0.000450     NO 
 RMS     Force            0.001920     0.000300     NO 
 Maximum Displacement     0.388497     0.001800     NO 
 RMS     Displacement     0.142013     0.001200     NO 
 Predicted change in Energy=-1.603577D-03
 GradGradGradGradGradGradGradGradGradGradGradGradGradGradGradGradGradGrad

                          Input orientation:                          
 ---------------------------------------------------------------------
 Center     Atomic      Atomic             Coordinates (Angstroms)
 Number     Number       Type             X           Y           Z
 ---------------------------------------------------------------------
      1         14           0       -6.533734   -0.183203   -0.215711
      2          8           0       -4.898205   -0.293953    0.131915
      3          8           0       -6.738535    1.377299   -0.714850
      4          8           0       -7.527418   -0.443527    1.077928
      5          8           0       -6.814359   -1.368648   -1.313258
      6          1           0       -6.088254   -1.578911   -1.921845
      7          1           0       -7.915452   -1.322137    1.154050
      8          1           0       -7.622930    1.750766   -0.637280
      9         14           0       -3.334401   -2.951213   -1.424986
     10          8           0       -1.750555   -2.583419   -1.110547
     11          8           0       -4.136478   -3.336619   -0.028211
     12          8           0       -3.351557   -4.254806   -2.433104
     13          8           0       -4.086143   -1.667773   -2.168094
     14          1           0       -4.061801   -0.874468   -1.608066
     15          1           0       -4.198489   -4.671109   -2.625135
     16          1           0       -1.079779   -3.032789   -1.634247
     17          1           0       -4.270193   -2.602723    0.584206
     18          1           0       -4.517097    0.407254    0.673855
 ---------------------------------------------------------------------
                    Distance matrix (angstroms):
                    1          2          3          4          5
     1  Si   0.000000
     2  O    1.675728   0.000000
     3  O    1.651136   2.626197   0.000000
     4  O    1.651871   2.798227   2.674284   0.000000
     5  O    1.639707   2.629666   2.811417   2.661216   0.000000
     6  H    2.248855   2.699123   3.258662   3.515526   0.970473
     7  H    2.254454   3.347492   3.487818   0.963494   2.702254
     8  H    2.259270   3.492372   0.963145   2.786751   3.292640
     9  Si   4.399996   3.454050   5.552337   5.489487   3.824540
    10  O    5.425917   4.085715   6.381521   6.537638   5.211418
    11  O    3.965605   3.140650   5.428001   4.592602   3.563047
    12  O    5.623259   4.965864   6.792984   6.655149   4.644886
    13  O    3.465032   2.799441   4.291802   4.886493   2.874611
    14  H    2.920095   2.015962   3.610152   4.405766   2.812064
    15  H    5.603570   5.220194   6.832589   6.531990   4.412488
    16  H    6.314904   5.020053   7.232958   7.458701   5.979784
    17  H    3.408454   2.435033   4.860127   3.938959   3.405303
    18  H    2.281839   0.964693   2.793613   3.154225   3.518503
                    6          7          8          9         10
     6  H    0.000000
     7  H    3.586881   0.000000
     8  H    3.884853   3.568916   0.000000
     9  Si   3.116695   5.503758   6.412532   0.000000
    10  O    4.525801   6.687689   7.313954   1.656113   0.000000
    11  O    3.238027   4.442581   6.197402   1.656154   2.726057
    12  O    3.861517   6.503642   7.585282   1.648014   2.665689
    13  O    2.019154   5.081310   5.151569   1.662692   2.722460
    14  H    2.168227   4.762386   4.529450   2.208053   2.917173
    15  H    3.691547   6.270061   7.544458   2.268270   3.555954
    16  H    5.223150   7.578084   8.166343   2.265781   0.962359
    17  H    3.260955   3.905449   5.629008   2.243660   3.036633
    18  H    3.626437   3.843202   3.629090   4.133184   4.447693
                   11         12         13         14         15
    11  O    0.000000
    12  O    2.691223   0.000000
    13  O    2.714164   2.702331   0.000000
    14  H    2.926381   3.551312   0.971368   0.000000
    15  H    2.920398   0.963057   3.039990   3.932887   0.000000
    16  H    3.466277   2.700458   3.344620   3.681235   3.659550
    17  H    0.965162   3.560538   2.912587   2.799348   3.818800
    18  H    3.828100   5.722455   3.545156   2.656552   6.064208
                   16         17         18
    16  H    0.000000
    17  H    3.909634   0.000000
    18  H    5.382972   3.021417   0.000000
 Stoichiometry    H8O8Si2
 Framework group  C1[X(H8O8Si2)]
 Deg. of freedom    48
 Full point group                 C1      NOp   1
 Largest Abelian subgroup         C1      NOp   1
 Largest concise Abelian subgroup C1      NOp   1
                         Standard orientation:                         
 ---------------------------------------------------------------------
 Center     Atomic      Atomic             Coordinates (Angstroms)
 Number     Number       Type             X           Y           Z
 ---------------------------------------------------------------------
      1         14           0       -2.203844   -0.017146   -0.026033
      2          8           0       -1.049961    0.957047    0.700304
      3          8           0       -3.194392    1.043688   -0.813241
      4          8           0       -3.124032   -0.892066    1.030587
      5          8           0       -1.349029   -1.073299   -0.943897
      6          1           0       -0.519416   -0.745304   -1.325971
      7          1           0       -2.872254   -1.812737    1.162092
      8          1           0       -4.091118    0.748464   -1.003961
      9         14           0        2.195968   -0.001775    0.011056
     10          8           0        3.020222    1.302217    0.613486
     11          8           0        1.463975   -0.848979    1.231416
     12          8           0        3.290437   -0.977795   -0.740924
     13          8           0        1.053665    0.498145   -1.088839
     14          1           0        0.412797    1.102399   -0.679303
     15          1           0        2.994886   -1.841006   -1.049137
     16          1           0        3.936547    1.410948    0.340242
     17          1           0        0.731470   -0.393997    1.664965
     18          1           0       -1.369737    1.724477    1.189617
 ---------------------------------------------------------------------
 Rotational constants (GHZ):           1.9963894           0.4288817           0.4225058
 Standard basis: 6-31+G(d,p) (6D, 7F)
 There are   238 symmetry adapted cartesian basis functions of A   symmetry.
 There are   238 symmetry adapted basis functions of A   symmetry.
   238 basis functions,   424 primitive gaussians,   238 cartesian basis functions
    50 alpha electrons       50 beta electrons
       nuclear repulsion energy       833.1425520338 Hartrees.
 NAtoms=   18 NActive=   18 NUniq=   18 SFac= 1.00D+00 NAtFMM=   60 NAOKFM=F Big=F
 Integral buffers will be    131072 words long.
 Raffenetti 2 integral format.
 Two-electron integral symmetry is turned on.
 Nuclear repulsion after empirical dispersion term =      833.1272053400 Hartrees.
 One-electron integrals computed using PRISM.
 NBasis=   238 RedAO= T EigKep=  2.57D-04  NBF=   238
 NBsUse=   238 1.00D-06 EigRej= -1.00D+00 NBFU=   238
 Initial guess from the checkpoint file:  "/localscratch/sarashs.36560097.0/Gau-6692.chk"
 B after Tr=     0.000000    0.000000   -0.000000
         Rot=    0.999916   -0.012866   -0.000224    0.001282 Ang=  -1.48 deg.
 ExpMin= 3.31D-02 ExpMax= 1.61D+04 ExpMxC= 2.43D+03 IAcc=3 IRadAn=         5 AccDes= 0.00D+00
 Harris functional with IExCor=  402 and IRadAn=       5 diagonalized for initial guess.
 HarFok:  IExCor=  402 AccDes= 0.00D+00 IRadAn=         5 IDoV= 1 UseB2=F ITyADJ=14
 ICtDFT=  3500011 ScaDFX=  1.000000  1.000000  1.000000  1.000000
 FoFCou: FMM=F IPFlag=           0 FMFlag=      100000 FMFlg1=           0
         NFxFlg=           0 DoJE=T BraDBF=F KetDBF=T FulRan=T
         wScrn=  0.000000 ICntrl=       500 IOpCl=  0 I1Cent=   200000004 NGrid=           0
         NMat0=    1 NMatS0=      1 NMatT0=    0 NMatD0=    1 NMtDS0=    0 NMtDT0=    0
 Petite list used in FoFCou.
 Requested convergence on RMS density matrix=1.00D-08 within 128 cycles.
 Requested convergence on MAX density matrix=1.00D-06.
 Requested convergence on             energy=1.00D-06.
 No special actions if energy rises.
 SCF Done:  E(RB3LYP) =  -1186.06157861     A.U. after   10 cycles
            NFock= 10  Conv=0.76D-08     -V/T= 2.0067
 Calling FoFJK, ICntrl=      2127 FMM=F ISym2X=0 I1Cent= 0 IOpClX= 0 NMat=1 NMatS=1 NMatT=0.
 ***** Axes restored to original set *****
 -------------------------------------------------------------------
 Center     Atomic                   Forces (Hartrees/Bohr)
 Number     Number              X              Y              Z
 -------------------------------------------------------------------
      1       14          -0.000608424   -0.002574370   -0.001466188
      2        8          -0.000462406   -0.000586960    0.002682648
      3        8           0.000762767   -0.002793206    0.002178150
      4        8           0.001583150    0.002802853   -0.002644421
      5        8          -0.004116162    0.004632486    0.002438699
      6        1           0.002985068   -0.001823509   -0.000588293
      7        1           0.000603837   -0.001304845   -0.000036218
      8        1          -0.000925204    0.000244613   -0.000129025
      9       14           0.003232205   -0.005713209    0.002021169
     10        8          -0.005304088    0.000070462    0.000159885
     11        8           0.003951700    0.000851863   -0.003290156
     12        8          -0.000382203    0.002893677    0.001300002
     13        8           0.000096811   -0.000305727   -0.001151078
     14        1           0.001080053    0.001280349   -0.000200290
     15        1          -0.000077973   -0.000393426    0.000080076
     16        1           0.000353083   -0.000434066   -0.000909756
     17        1          -0.002219304    0.001583007   -0.000043935
     18        1          -0.000552912    0.001570008   -0.000401270
 -------------------------------------------------------------------
 Cartesian Forces:  Max     0.005713209 RMS     0.002090447

 GradGradGradGradGradGradGradGradGradGradGradGradGradGradGradGradGradGrad
 Berny optimization.
 Using GEDIIS/GDIIS optimizer.
 FormGI is forming the generalized inverse of G from B-inverse, IUseBI=4.
 Internal  Forces:  Max     0.004957955 RMS     0.001436653
 Search for a local minimum.
 Step number   3 out of a maximum of   81
 All quantities printed in internal units (Hartrees-Bohrs-Radians)
 Mixed Optimization -- RFO/linear search
 Update second derivatives using D2CorX and points    1    2    3
 DE= -1.55D-03 DEPred=-1.60D-03 R= 9.69D-01
 TightC=F SS=  1.41D+00  RLast= 2.29D-01 DXNew= 8.4853D-01 6.8809D-01
 Trust test= 9.69D-01 RLast= 2.29D-01 DXMaxT set to 6.88D-01
 ITU=  1  1  0
 Use linear search instead of GDIIS.
     Eigenvalues ---    0.00538   0.02677   0.03750   0.03823   0.03844
     Eigenvalues ---    0.03850   0.03856   0.03870   0.03877   0.04112
     Eigenvalues ---    0.04491   0.08219   0.10570   0.11328   0.11415
     Eigenvalues ---    0.12242   0.12543   0.12617   0.13488   0.14687
     Eigenvalues ---    0.15998   0.16000   0.16000   0.16000   0.16062
     Eigenvalues ---    0.16709   0.17345   0.20706   0.20891   0.21029
     Eigenvalues ---    0.21413   0.40053   0.43835   0.44567   0.44682
     Eigenvalues ---    0.44804   0.44955   0.44964   0.50328   0.52207
     Eigenvalues ---    0.52975   0.53235   0.53368   0.53446   0.53557
     Eigenvalues ---    0.53794   0.567511000.000001000.000001000.00000
     Eigenvalues --- 1000.000001000.000001000.000001000.000001000.00000
     Eigenvalues --- 1000.000001000.000001000.000001000.000001000.00000
     Eigenvalues --- 1000.000001000.000001000.000001000.000001000.00000
     Eigenvalues --- 1000.000001000.000001000.000001000.000001000.00000
     Eigenvalues --- 1000.00000
 RFO step:  Lambda=-8.04006773D-04 EMin= 5.38325779D-03
 Quartic linear search produced a step of -0.02197.
 Iteration  1 RMS(Cart)=  0.03264578 RMS(Int)=  0.00032699
 Iteration  2 RMS(Cart)=  0.00040898 RMS(Int)=  0.00003217
 Iteration  3 RMS(Cart)=  0.00000012 RMS(Int)=  0.00003217
 Iteration  1 RMS(Cart)=  0.00001064 RMS(Int)=  0.00000116
 Iteration  2 RMS(Cart)=  0.00000074 RMS(Int)=  0.00000120
 Variable       Old X    -DE/DX   Delta X   Delta X   Delta X     New X
                                 (Linear)    (Quad)   (Total)
    R1        3.16667  -0.00018  -0.00040   0.00651   0.00614   3.17281
    R2        3.12019  -0.00301  -0.00017  -0.00361  -0.00378   3.11642
    R3        3.12158  -0.00365  -0.00014  -0.00520  -0.00534   3.11625
    R4        3.09860  -0.00308   0.00009  -0.00667  -0.00658   3.09202
    R5        8.31479  -0.00014   0.00000   0.00000  -0.00000   8.31479
    R6        3.80962   0.00221  -0.00087   0.06914   0.06830   3.87792
    R7        1.82301   0.00070   0.00013  -0.00029  -0.00016   1.82284
    R8        1.82008   0.00093   0.00007   0.00062   0.00069   1.82077
    R9        1.82074   0.00094   0.00010   0.00040   0.00050   1.82124
   R10        1.83393   0.00300  -0.00004   0.00558   0.00553   1.83946
   R11        3.12960  -0.00496  -0.00014  -0.00778  -0.00792   3.12168
   R12        3.12968  -0.00422  -0.00020  -0.00585  -0.00605   3.12363
   R13        3.11430  -0.00282  -0.00012  -0.00405  -0.00417   3.11012
   R14        3.14203   0.00047  -0.00021   0.00577   0.00559   3.14763
   R15        1.81860   0.00094   0.00012   0.00016   0.00028   1.81887
   R16        1.82389   0.00148   0.00004   0.00189   0.00193   1.82582
   R17        1.81991   0.00022   0.00008  -0.00063  -0.00055   1.81937
   R18        1.83562   0.00234   0.00014   0.00404   0.00421   1.83983
    A1        1.81959  -0.00051   0.00078  -0.01201  -0.01124   1.80835
    A2        1.99791  -0.00026  -0.00092   0.00915   0.00819   2.00610
    A3        1.83187   0.00163   0.00069   0.00281   0.00351   1.83537
    A4        1.88712  -0.00062   0.00034  -0.01084  -0.01048   1.87664
    A5        2.04846   0.00018  -0.00117   0.01612   0.01497   2.06342
    A6        1.88316  -0.00037   0.00021  -0.00371  -0.00351   1.87965
    A7        1.81823   0.00071   0.00165  -0.01026  -0.00864   1.80959
    A8        2.04213  -0.00113  -0.00085  -0.00491  -0.00586   2.03628
    A9        2.12972  -0.00007  -0.00035  -0.00158  -0.00207   2.12765
   A10        2.04432  -0.00008  -0.00054   0.00588   0.00535   2.04966
   A11        2.03515  -0.00124  -0.00039  -0.00211  -0.00250   2.03266
   A12        2.03571  -0.00029  -0.00012   0.00089   0.00076   2.03647
   A13        1.93341   0.00056  -0.00011   0.00341   0.00325   1.93666
   A14        1.87734   0.00036   0.00022   0.00203   0.00224   1.87959
   A15        1.92391  -0.00078  -0.00010  -0.00473  -0.00484   1.91907
   A16        1.90371   0.00087   0.00002   0.00569   0.00571   1.90942
   A17        1.91516  -0.00184  -0.00007  -0.00998  -0.01006   1.90510
   A18        1.90973   0.00091   0.00005   0.00401   0.00408   1.91381
   A19        2.04831  -0.00075  -0.00062   0.00373   0.00311   2.05142
   A20        2.01008   0.00008  -0.00033   0.00410   0.00378   2.01386
   A21        2.06356   0.00033  -0.00086   0.01187   0.01101   2.07457
   A22        1.94057  -0.00104   0.00108  -0.00811  -0.00697   1.93360
   A23        2.37804  -0.00017   0.00025   0.00417   0.00449   2.38254
    D1       -1.57334  -0.00051   0.00042  -0.00508  -0.00469  -1.57803
    D2        0.83442  -0.00093   0.00081  -0.02271  -0.02187   0.81255
    D3        2.65173   0.00071   0.00000   0.01109   0.01109   2.66281
    D4       -1.22370   0.00028   0.00040  -0.00654  -0.00609  -1.22980
    D5        0.59042   0.00024  -0.00018   0.00879   0.00855   0.59897
    D6        2.99817  -0.00019   0.00021  -0.00883  -0.00863   2.98954
    D7       -2.73675   0.00076   0.00048  -0.00224  -0.00181  -2.73856
    D8       -0.60396  -0.00014   0.00002  -0.00360  -0.00351  -0.60747
    D9        1.52961  -0.00101  -0.00026  -0.00591  -0.00619   1.52342
   D10       -1.73235  -0.00048  -0.00015   0.00561   0.00545  -1.72690
   D11        2.53152   0.00071  -0.00079   0.02239   0.02162   2.55314
   D12        0.29961   0.00115   0.00031   0.01200   0.01229   0.31190
   D13       -0.56319   0.00097  -0.00154   0.04193   0.04035  -0.52284
   D14        1.44689   0.00156  -0.00075   0.03758   0.03687   1.48376
   D15       -2.70069   0.00057  -0.00095   0.03157   0.03063  -2.67006
   D16       -1.16117   0.00018   0.00168   0.02731   0.02896  -1.13221
   D17        2.76115   0.00117   0.00144   0.04817   0.04958   2.81073
   D18        2.25498   0.00151   0.00002   0.01254   0.01258   2.26756
   D19        0.17587  -0.00009  -0.00008   0.00244   0.00235   0.17823
   D20       -1.90510  -0.00096  -0.00021  -0.00094  -0.00116  -1.90626
   D21        1.19863   0.00021  -0.00087   0.03237   0.03149   1.23013
   D22       -3.02141   0.00152  -0.00065   0.04040   0.03977  -2.98164
   D23       -0.92961   0.00205  -0.00062   0.04276   0.04213  -0.88748
   D24        3.00514   0.00037   0.00010  -0.00134  -0.00123   3.00391
   D25        0.90713  -0.00100   0.00010  -0.00985  -0.00976   0.89737
   D26       -1.18803   0.00016   0.00014  -0.00356  -0.00342  -1.19145
   D27       -1.04410   0.00055   0.00067  -0.00079  -0.00015  -1.04425
   D28        1.08980  -0.00048   0.00041  -0.00623  -0.00579   1.08401
   D29       -3.10526   0.00002   0.00043  -0.00288  -0.00246  -3.10771
   D30       -1.19445   0.00163   0.00096   0.00100   0.00189  -1.19256
         Item               Value     Threshold  Converged?
 Maximum Force            0.004958     0.000450     NO 
 RMS     Force            0.001447     0.000300     NO 
 Maximum Displacement     0.103256     0.001800     NO 
 RMS     Displacement     0.032627     0.001200     NO 
 Predicted change in Energy=-4.086408D-04
 GradGradGradGradGradGradGradGradGradGradGradGradGradGradGradGradGradGrad

                          Input orientation:                          
 ---------------------------------------------------------------------
 Center     Atomic      Atomic             Coordinates (Angstroms)
 Number     Number       Type             X           Y           Z
 ---------------------------------------------------------------------
      1         14           0       -6.531161   -0.190308   -0.207234
      2          8           0       -4.893302   -0.276088    0.151961
      3          8           0       -6.737431    1.367112   -0.708780
      4          8           0       -7.538145   -0.436434    1.075247
      5          8           0       -6.796235   -1.392077   -1.285528
      6          1           0       -6.052660   -1.629268   -1.867204
      7          1           0       -7.913945   -1.319564    1.162904
      8          1           0       -7.623021    1.741007   -0.643320
      9         14           0       -3.335142   -2.953102   -1.437029
     10          8           0       -1.756481   -2.594991   -1.107744
     11          8           0       -4.160521   -3.316259   -0.051706
     12          8           0       -3.353277   -4.256445   -2.441839
     13          8           0       -4.067516   -1.658089   -2.186006
     14          1           0       -4.038751   -0.868445   -1.617216
     15          1           0       -4.196326   -4.674167   -2.646041
     16          1           0       -1.080829   -3.046312   -1.623710
     17          1           0       -4.323331   -2.570766    0.540953
     18          1           0       -4.527306    0.444215    0.678912
 ---------------------------------------------------------------------
                    Distance matrix (angstroms):
[...]
 GradGradGradGradGradGradGradGradGradGradGradGradGradGradGradGradGradGrad

                          Input orientation:                          
 ---------------------------------------------------------------------
 Center     Atomic      Atomic             Coordinates (Angstroms)
 Number     Number       Type             X           Y           Z
 ---------------------------------------------------------------------
      1         14           0       -6.652883   -0.444127   -0.167949
      2          8           0       -5.312500   -0.560439    0.818519
      3          8           0       -6.893524    1.169563   -0.389389
      4          8           0       -8.040057   -1.054707    0.475170
      5          8           0       -6.280755   -1.338871   -1.495169
      6          1           0       -5.418829   -1.184645   -1.933840
      7          1           0       -8.189172   -2.003343    0.391722
      8          1           0       -7.783014    1.448105   -0.636017
      9         14           0       -3.103350   -2.759828   -1.350448
     10          8           0       -1.642707   -3.377839   -1.763621
     11          8           0       -2.944168   -2.178051    0.171920
     12          8           0       -4.262378   -3.910882   -1.570532
     13          8           0       -3.610548   -1.498777   -2.351321
     14          1           0       -3.034505   -0.724377   -2.374138
     15          1           0       -5.173939   -3.593430   -1.625528
     16          1           0       -1.643495   -4.058545   -2.445652
     17          1           0       -3.689364   -1.640364    0.495604
     18          1           0       -5.250193    0.080577    1.537291
 ---------------------------------------------------------------------
                    Distance matrix (angstroms):
                    1          2          3          4          5
     1  Si   0.000000
     2  O    1.668315   0.000000
     3  O    1.646493   2.636586   0.000000
     4  O    1.646408   2.793162   2.647522   0.000000
     5  O    1.643338   2.626143   2.809000   2.656714   0.000000
     6  H    2.278075   2.824255   3.178419   3.562449   0.979353
     7  H    2.259330   3.246439   3.515135   0.963903   2.764768
     8  H    2.253180   3.500480   0.964159   2.750431   3.280573
     9  Si   4.399996   3.797641   5.543390   5.532756   3.483671
    10  O    6.021188   5.298356   7.080852   7.164860   5.073554
    11  O    4.108110   2.940026   5.207590   5.227040   3.823117
    12  O    4.438485   4.246856   5.841999   5.158827   3.270286
    13  O    3.890398   3.718199   4.663383   5.273215   2.808660
    14  H    4.247172   3.925455   4.734793   5.769162   3.418820
    15  H    3.772257   3.897640   5.212593   4.367228   2.514970
    16  H    6.583762   6.029358   7.689223   7.646584   5.459325
    17  H    3.264006   1.976128   4.352648   4.389982   3.281674
    18  H    2.269515   0.965100   2.756541   3.193792   3.503242
                    6          7          8          9         10
     6  H    0.000000
     7  H    3.708545   0.000000
     8  H    3.768963   3.624045   0.000000
     9  Si   2.860593   5.428906   6.333748   0.000000
    10  O    4.370146   7.027870   7.890792   1.638941   0.000000
    11  O    3.397797   5.252514   6.100507   1.637501   2.622901
    12  O    2.983579   4.786321   6.479733   1.648243   2.680316
    13  O    1.882246   5.361219   5.388492   1.687972   2.783643
    14  H    2.467937   5.988016   5.503551   2.279417   3.057891
    15  H    2.440753   3.960974   5.762246   2.248977   3.540502
    16  H    4.772254   7.424315   8.443439   2.239936   0.963601
    17  H    3.016774   4.515620   5.251397   2.237079   3.508806
    18  H    3.698374   3.780562   3.606740   4.584308   5.989209
                   11         12         13         14         15
    11  O    0.000000
    12  O    2.788641   0.000000
    13  O    2.696705   2.617779   0.000000
    14  H    2.933213   3.508172   0.965423   0.000000
    15  H    3.194683   0.966822   2.712663   3.656373   0.000000
    16  H    3.475585   2.765174   3.229646   3.613406   3.654172
    17  H    0.974266   3.122902   2.851533   3.082741   3.243090
    18  H    3.504767   5.154230   4.506006   4.566892   4.848461
                   16         17         18
    16  H    0.000000
    17  H    4.322518   0.000000
    18  H    6.782657   2.546162   0.000000
 Stoichiometry    H8O8Si2
 Framework group  C1[X(H8O8Si2)]
 Deg. of freedom    48
 Full point group                 C1      NOp   1
 Largest Abelian subgroup         C1      NOp   1
 Largest concise Abelian subgroup C1      NOp   1
                         Standard orientation:                         
 ---------------------------------------------------------------------
 Center     Atomic      Atomic             Coordinates (Angstroms)
 Number     Number       Type             X           Y           Z
 ---------------------------------------------------------------------
      1         14           0       -2.186374   -0.019383   -0.004562
      2          8           0       -1.325022    1.131790    0.841694
      3          8           0       -3.167786    0.827950   -1.019351
      4          8           0       -3.157926   -0.974414    0.919917
      5          8           0       -1.045218   -0.982372   -0.690838
      6          1           0       -0.311993   -0.557812   -1.182023
      7          1           0       -2.754498   -1.738988    1.346277
      8          1           0       -3.959540    0.378445   -1.336642
      9         14           0        2.213327    0.013741    0.034150
     10          8           0        3.826842    0.285239   -0.060646
     11          8           0        1.608959    1.167393    1.026740
     12          8           0        1.950983   -1.547925    0.491404
     13          8           0        1.421663    0.123408   -1.452622
     14          1           0        1.482419    0.978002   -1.897616
     15          1           0        1.067436   -1.900393    0.318619
     16          1           0        4.375523   -0.472737   -0.290752
     17          1           0        0.637044    1.228204    1.056370
     18          1           0       -1.813686    1.915713    1.121141
 ---------------------------------------------------------------------
 Rotational constants (GHZ):           2.0036689           0.4319400           0.4237937

 **********************************************************************

            Population analysis using the SCF Density.

 **********************************************************************

 Orbital symmetries:
       Occupied  (A) (A) (A) (A) (A) (A) (A) (A) (A) (A) (A) (A)
                 (A) (A) (A) (A) (A) (A) (A) (A) (A) (A) (A) (A)
                 (A) (A) (A) (A) (A) (A) (A) (A) (A) (A) (A) (A)
                 (A) (A) (A) (A) (A) (A) (A) (A) (A) (A) (A) (A)
                 (A) (A)
       Virtual   (A) (A) (A) (A) (A) (A) (A) (A) (A) (A) (A) (A)
                 (A) (A) (A) (A) (A) (A) (A) (A) (A) (A) (A) (A)
                 (A) (A) (A) (A) (A) (A) (A) (A) (A) (A) (A) (A)
                 (A) (A) (A) (A) (A) (A) (A) (A) (A) (A) (A) (A)
                 (A) (A) (A) (A) (A) (A) (A) (A) (A) (A) (A) (A)
                 (A) (A) (A) (A) (A) (A) (A) (A) (A) (A) (A) (A)
                 (A) (A) (A) (A) (A) (A) (A) (A) (A) (A) (A) (A)
                 (A) (A) (A) (A) (A) (A) (A) (A) (A) (A) (A) (A)
                 (A) (A) (A) (A) (A) (A) (A) (A) (A) (A) (A) (A)
                 (A) (A) (A) (A) (A) (A) (A) (A) (A) (A) (A) (A)
                 (A) (A) (A) (A) (A) (A) (A) (A) (A) (A) (A) (A)
                 (A) (A) (A) (A) (A) (A) (A) (A) (A) (A) (A) (A)
                 (A) (A) (A) (A) (A) (A) (A) (A) (A) (A) (A) (A)
                 (A) (A) (A) (A) (A) (A) (A) (A) (A) (A) (A) (A)
                 (A) (A) (A) (A) (A) (A) (A) (A) (A) (A) (A) (A)
                 (A) (A) (A) (A) (A) (A) (A) (A)
 The electronic state is 1-A.
 Alpha  occ. eigenvalues --  -66.23510 -66.22090 -19.19024 -19.18185 -19.18170
 Alpha  occ. eigenvalues --  -19.18164 -19.17251 -19.17007 -19.16486 -19.15363
 Alpha  occ. eigenvalues --   -5.36828  -5.35426  -3.72822  -3.72807  -3.72789
 Alpha  occ. eigenvalues --   -3.71452  -3.71421  -3.71332  -1.05941  -1.04650
 Alpha  occ. eigenvalues --   -1.02631  -1.02058  -1.01729  -1.00997  -1.00569
 Alpha  occ. eigenvalues --   -0.99663  -0.61166  -0.59730  -0.55333  -0.55187
 Alpha  occ. eigenvalues --   -0.54637  -0.53660  -0.52688  -0.50092  -0.42771
 Alpha  occ. eigenvalues --   -0.42218  -0.41026  -0.40037  -0.39503  -0.39052
 Alpha  occ. eigenvalues --   -0.38307  -0.37446  -0.37086  -0.36385  -0.35506
 Alpha  occ. eigenvalues --   -0.34693  -0.34301  -0.33942  -0.33096  -0.31572
 Alpha virt. eigenvalues --   -0.03777  -0.01222   0.00262   0.00983   0.01969
 Alpha virt. eigenvalues --    0.03550   0.04974   0.06156   0.09202   0.10176
 Alpha virt. eigenvalues --    0.10580   0.11021   0.11859   0.12486   0.12912
 Alpha virt. eigenvalues --    0.13677   0.14356   0.14714   0.14867   0.15562
 Alpha virt. eigenvalues --    0.15803   0.16897   0.17255   0.17408   0.18008
 Alpha virt. eigenvalues --    0.18346   0.18863   0.19626   0.20542   0.20964
 Alpha virt. eigenvalues --    0.21398   0.21836   0.21912   0.23121   0.24010
 Alpha virt. eigenvalues --    0.24998   0.25191   0.25812   0.26492   0.27236
 Alpha virt. eigenvalues --    0.27669   0.28339   0.28644   0.29122   0.30815
 Alpha virt. eigenvalues --    0.31799   0.32734   0.33678   0.36691   0.37976
 Alpha virt. eigenvalues --    0.38104   0.39133   0.39541   0.40613   0.42735
 Alpha virt. eigenvalues --    0.43946   0.45744   0.46485   0.47742   0.48024
 Alpha virt. eigenvalues --    0.51513   0.54855   0.60429   0.61800   0.62929
 Alpha virt. eigenvalues --    0.64133   0.66840   0.71636   0.92124   0.93304
 Alpha virt. eigenvalues --    0.93667   0.94805   0.95614   0.96741   0.98412
 Alpha virt. eigenvalues --    0.99388   1.00889   1.02730   1.03247   1.08510
 Alpha virt. eigenvalues --    1.11971   1.13626   1.15484   1.15919   1.16170
 Alpha virt. eigenvalues --    1.17106   1.18116   1.18509   1.19477   1.19934
 Alpha virt. eigenvalues --    1.20271   1.21118   1.22267   1.22772   1.23739
 Alpha virt. eigenvalues --    1.24818   1.25554   1.27408   1.27656   1.28578
 Alpha virt. eigenvalues --    1.30918   1.31441   1.32951   1.34305   1.35949
 Alpha virt. eigenvalues --    1.36643   1.48731   1.49426   1.50674   1.52364
 Alpha virt. eigenvalues --    1.56370   1.57133   1.57464   1.58662   1.60577
 Alpha virt. eigenvalues --    1.61072   1.62627   1.63617   1.65503   1.67309
 Alpha virt. eigenvalues --    1.68067   1.70948   1.71615   1.73020   1.74346
 Alpha virt. eigenvalues --    1.75869   1.78624   1.81619   1.85138   1.86898
 Alpha virt. eigenvalues --    1.89501   1.91776   1.95446   1.96002   2.02230
 Alpha virt. eigenvalues --    2.03562   2.10415   2.13990   2.34053   2.35748
 Alpha virt. eigenvalues --    2.36998   2.38401   2.38929   2.40305   2.41651
 Alpha virt. eigenvalues --    2.43578   2.45178   2.48671   2.58018   2.58452
 Alpha virt. eigenvalues --    2.59545   2.60018   2.60409   2.61014   2.62431
 Alpha virt. eigenvalues --    2.63134   2.63629   2.64290   2.65455   2.66107
 Alpha virt. eigenvalues --    2.67501   2.70157   2.71558   2.74496   2.77321
 Alpha virt. eigenvalues --    2.78753   2.79017   2.80907   2.82582   2.84181
 Alpha virt. eigenvalues --    2.99623   3.02086   3.40700   3.41829   3.42083
 Alpha virt. eigenvalues --    3.44257   3.45906   3.50809   3.56128   3.61836
 Alpha virt. eigenvalues --    4.11889   4.15236   4.18880   4.22014   4.25433
 Alpha virt. eigenvalues --    4.29602   4.33123   4.35204
          Condensed to atoms (all electrons):
               1          2          3          4          5          6
     1  Si  11.722442  -0.104104   0.064966   0.055423   0.074494   0.023241
     2  O   -0.104104   8.708581   0.072915   0.030319   0.064499  -0.004759
     3  O    0.064966   0.072915   8.484361   0.022421  -0.001630  -0.006922
     4  O    0.055423   0.030319   0.022421   8.465586   0.054794   0.006185
     5  O    0.074494   0.064499  -0.001630   0.054794   8.516493   0.243744
     6  H    0.023241  -0.004759  -0.006922   0.006185   0.243744   0.293266
     7  H    0.029575  -0.006521   0.006803   0.241091  -0.003779   0.000031
     8  H    0.030196   0.004550   0.240075  -0.002526  -0.006076   0.000048
     9  Si   0.040025  -0.001973  -0.002574  -0.003812   0.005494   0.005172
    10  O    0.001597  -0.000738  -0.000012  -0.000051   0.000472   0.000295
    11  O   -0.034392   0.000098   0.000793   0.000597  -0.007350  -0.000376
    12  O   -0.024717   0.002782  -0.000084   0.001922   0.016861  -0.005577
    13  O   -0.027642   0.006250   0.000560   0.000823  -0.007210   0.013975
    14  H    0.001196  -0.001269  -0.000054   0.000011   0.000164  -0.002108
    15  H    0.005330  -0.001033   0.000026  -0.000633   0.011307  -0.001370
    16  H    0.000017   0.000002   0.000000  -0.000000   0.000006  -0.000003
    17  H    0.006647   0.006050  -0.000206   0.000267  -0.001121  -0.000142
    18  H    0.030782   0.229939  -0.002033  -0.005573   0.006219   0.000018
               7          8          9         10         11         12
     1  Si   0.029575   0.030196   0.040025   0.001597  -0.034392  -0.024717
     2  O   -0.006521   0.004550  -0.001973  -0.000738   0.000098   0.002782
     3  O    0.006803   0.240075  -0.002574  -0.000012   0.000793  -0.000084
     4  O    0.241091  -0.002526  -0.003812  -0.000051   0.000597   0.001922
     5  O   -0.003779  -0.006076   0.005494   0.000472  -0.007350   0.016861
     6  H    0.000031   0.000048   0.005172   0.000295  -0.000376  -0.005577
     7  H    0.359531   0.000055   0.000009   0.000000  -0.000003  -0.000136
     8  H    0.000055   0.356242   0.000010   0.000000  -0.000001  -0.000003
     9  Si   0.000009   0.000010  11.522679   0.068555   0.113248   0.076269
    10  O    0.000000   0.000000   0.068555   8.529623   0.053196  -0.027346
    11  O   -0.000003  -0.000001   0.113248   0.053196   8.478939  -0.003202
    12  O   -0.000136  -0.000003   0.076269  -0.027346  -0.003202   8.523105
    13  O    0.000021  -0.000014   0.073946  -0.032297   0.027511   0.100881
    14  H   -0.000000  -0.000000   0.023036  -0.004890  -0.008884   0.006267
    15  H    0.000031  -0.000000   0.028613   0.006127  -0.005755   0.232424
    16  H    0.000000  -0.000000   0.036185   0.232504   0.003699  -0.002988
    17  H    0.000005  -0.000001   0.030325   0.003748   0.222862  -0.005471
    18  H    0.000076   0.000062  -0.000224   0.000002   0.000315  -0.000105
              13         14         15         16         17         18
     1  Si  -0.027642   0.001196   0.005330   0.000017   0.006647   0.030782
     2  O    0.006250  -0.001269  -0.001033   0.000002   0.006050   0.229939
     3  O    0.000560  -0.000054   0.000026   0.000000  -0.000206  -0.002033
     4  O    0.000823   0.000011  -0.000633  -0.000000   0.000267  -0.005573
     5  O   -0.007210   0.000164   0.011307   0.000006  -0.001121   0.006219
     6  H    0.013975  -0.002108  -0.001370  -0.000003  -0.000142   0.000018
     7  H    0.000021  -0.000000   0.000031   0.000000   0.000005   0.000076
     8  H   -0.000014  -0.000000  -0.000000  -0.000000  -0.000001   0.000062
     9  Si   0.073946   0.023036   0.028613   0.036185   0.030325  -0.000224
    10  O   -0.032297  -0.004890   0.006127   0.232504   0.003748   0.000002
    11  O    0.027511  -0.008884  -0.005755   0.003699   0.222862   0.000315
    12  O    0.100881   0.006267   0.232424  -0.002988  -0.005471  -0.000105
    13  O    8.574904   0.254915  -0.005068  -0.005158  -0.006210   0.000021
    14  H    0.254915   0.347984   0.000044   0.000045   0.000084   0.000001
    15  H   -0.005068   0.000044   0.338323   0.000073   0.000181  -0.000002
    16  H   -0.005158   0.000045   0.000073   0.362766  -0.000061  -0.000000
    17  H   -0.006210   0.000084   0.000181  -0.000061   0.310286   0.000170
    18  H    0.000021   0.000001  -0.000002  -0.000000   0.000170   0.344099
 Mulliken charges:
               1
     1  Si   2.104925
     2  O   -1.005588
     3  O   -0.879407
     4  O   -0.866845
     5  O   -0.967381
     6  H    0.435281
     7  H    0.373211
     8  H    0.377384
     9  Si   1.985018
    10  O   -0.830786
    11  O   -0.841294
    12  O   -0.890883
    13  O   -0.970209
    14  H    0.383458
    15  H    0.391382
    16  H    0.372913
    17  H    0.432587
    18  H    0.396235
 Sum of Mulliken charges =  -0.00000
 Mulliken charges with hydrogens summed into heavy atoms:
               1
     1  Si   2.104925
     2  O   -0.609353
     3  O   -0.502024
     4  O   -0.493634
     5  O   -0.532101
     9  Si   1.985018
    10  O   -0.457873
    11  O   -0.408707
    12  O   -0.499501
    13  O   -0.586751
 Electronic spatial extent (au):  <R**2>=           2623.2782
 Charge=             -0.0000 electrons
 Dipole moment (field-independent basis, Debye):
    X=             -2.4731    Y=             -0.3444    Z=             -1.4044  Tot=              2.8648
 Quadrupole moment (field-independent basis, Debye-Ang):
   XX=            -69.6259   YY=            -69.7275   ZZ=            -71.2661
   XY=             -3.6319   XZ=             -5.8674   YZ=             -2.8054
 Traceless Quadrupole moment (field-independent basis, Debye-Ang):
   XX=              0.5806   YY=              0.4790   ZZ=             -1.0596
   XY=             -3.6319   XZ=             -5.8674   YZ=             -2.8054
 Octapole moment (field-independent basis, Debye-Ang**2):
  XXX=             -4.8777  YYY=              1.8623  ZZZ=             -5.8938  XYY=            -16.1600
  XXY=            -23.2106  XXZ=            -33.2298  XZZ=            -10.6731  YZZ=              3.2024
  YYZ=              7.9492  XYZ=             -7.3917
 Hexadecapole moment (field-independent basis, Debye-Ang**3):
 XXXX=          -2211.8181 YYYY=           -350.7836 ZZZZ=           -325.5764 XXXY=           -127.7215
 XXXZ=             46.4742 YYYX=              8.8363 YYYZ=             -5.1630 ZZZX=            -11.6977
 ZZZY=            -18.0007 XXYY=           -484.2008 XXZZ=           -444.1015 YYZZ=           -103.6125
 XXYZ=             13.0577 YYXZ=            -56.0968 ZZXY=             13.5642
 N-N= 8.327253270007D+02 E-N=-4.474976931691D+03  KE= 1.178171780364D+03
 1\1\GINC-GRA1309\FOpt\RB3LYP\6-31+G(d,p)\H8O8Si2\SARASHS\29-Jul-2020\0
 \\#n B3LYP/6-31+G(d,p) EmpiricalDispersion=GD3 Opt=modredundant\\Title
 \\0,1\Si,-6.6528830553,-0.4441268264,-0.1679492708\O,-5.3125001682,-0.
 5604392676,0.8185186012\O,-6.8935237851,1.1695632721,-0.3893885554\O,-
 8.0400566945,-1.0547065791,0.4751698502\O,-6.2807551519,-1.3388712501,
 -1.4951694642\H,-5.4188293768,-1.1846452249,-1.9338396303\H,-8.1891724
 726,-2.0033426164,0.3917224373\H,-7.7830135179,1.448104624,-0.63601692
 93\Si,-3.1033501901,-2.7598284094,-1.3504484835\O,-1.642706565,-3.3778
 391367,-1.763620828\O,-2.9441680729,-2.1780506365,0.171919623\O,-4.262
 3776665,-3.9108822751,-1.5705321348\O,-3.6105484805,-1.4987765015,-2.3
 513212202\H,-3.0345045915,-0.7243768167,-2.3741381834\H,-5.1739389605,
 -3.5934304223,-1.6255281873\H,-1.6434945005,-4.0585452928,-2.445651855
 9\H,-3.6893636432,-1.6403640775,0.4956037263\H,-5.2501931068,0.0805774
 368,1.537290505\\Version=ES64L-G16RevB.01\State=1-A\HF=-1186.069077\RM
 SD=3.175e-09\RMSF=1.009e-03\Dipole=-0.8381745,0.7074831,-0.2594023\Qua
 drupole=-1.7742358,1.0630209,0.711215,1.7470843,-4.5404152,2.2534188\P
 G=C01 [X(H8O8Si2)]\\@


 COMMON SENSE IS NOT SO COMMON.   -- VOLTAIRE
 Job cpu time:       0 days  2 hours  5 minutes  9.4 seconds.
 Elapsed time:       0 days  0 hours  8 minutes  5.8 seconds.
 File lengths (MBytes):  RWF=     40 Int=      0 D2E=      0 Chk=      5 Scr=      1
 Normal termination of Gaussian 16 at Wed Jul 29 17:38:42 2020.
