 Entering Gaussian System, Link 0=g16
 Initial command:
 /opt/software/gaussian/g16.b01/l1.exe "/localscratch/sarashs.36560089.0/Gau-19514.inp" -scrdir="/localscratch/sarashs.36560089.0/"
 Entering Link 1 = /opt/software/gaussian/g16.b01/l1.exe PID=     19515.
  
 Copyright (c) 1988-2017, Gaussian, Inc.  All Rights Reserved.
  
 This is part of the Gaussian(R) 16 program.  It is based on
 the Gaussian(R) 09 system (copyright 2009, Gaussian, Inc.),
 the Gaussian(R) 03 system (copyright 2003, Gaussian, Inc.),
 the Gaussian(R) 98 system (copyright 1998, Gaussian, Inc.),
 the Gaussian(R) 94 system (copyright 1995, Gaussian, Inc.),
 the Gaussian 92(TM) system (copyright 1992, Gaussian, Inc.),
 the Gaussian 90(TM) system (copyright 1990, Gaussian, Inc.),
 the Gaussian 88(TM) system (copyright 1988, Gaussian, Inc.),
 the Gaussian 86(TM) system (copyright 1986, Carnegie Mellon
 University), and the Gaussian 82(TM) system (copyright 1983,
 Carnegie Mellon University). Gaussian is a federally registered
 trademark of Gaussian, Inc.
  
 This software contains proprietary and confidential information,
 including trade secrets, belonging to Gaussian, Inc.
  
 This software is provided under written license and may be
 used, copied, transmitted, or stored only in accord with that
 written license.
  
 The following legend is applicable only to US Government
 contracts under FAR:
  
                    RESTRICTED RIGHTS LEGEND
  
 Use, reproduction and disclosure by the US Government is
 subject to restrictions as set forth in subparagraphs (a)
 and (c) of the Commercial Computer Software - Restricted
 Rights clause in FAR 52.227-19.
  
 Gaussian, Inc.
 340 Quinnipiac St., Bldg. 40, Wallingford CT 06492
  
  
 ---------------------------------------------------------------
 Warning -- This program may not be used in any manner that
 competes with the business of Gaussian, Inc. or will provide
 assistance to any competitor of Gaussian, Inc.  The licensee
 of this program is prohibited from giving any competitor of
 Gaussian, Inc. access to this program.  By using this program,
 the user acknowledges that Gaussian, Inc. is engaged in the
 business of creating and licensing software in the field of
 computational chemistry and represents and warrants to the
 licensee that it is not a competitor of Gaussian, Inc. and that
 it will not use this program in any manner prohibited above.
 ---------------------------------------------------------------
  

 Cite this work as:
 Gaussian 16, Revision B.01,
 M. J. Frisch, G. W. Trucks, H. B. Schlegel, G. E. Scuseria, 
 M. A. Robb, J. R. Cheeseman, G. Scalmani, V. Barone, 
 G. A. Petersson, H. Nakatsuji, X. Li, M. Caricato, A. V. Marenich, 
 J. Bloino, B. G. Janesko, R. Gomperts, B. Mennucci, H. P. Hratchian, 
 J. V. Ortiz, A. F. Izmaylov, J. L. Sonnenberg, D. Williams-Young, 
 F. Ding, F. Lipparini, F. Egidi, J. Goings, B. Peng, A. Petrone, 
 T. Henderson, D. Ranasinghe, V. G. Zakrzewski, J. Gao, N. Rega, 
 G. Zheng, W. Liang, M. Hada, M. Ehara, K. Toyota, R. Fukuda, 
 J. Hasegawa, M. Ishida, T. Nakajima, Y. Honda, O. Kitao, H. Nakai, 
 T. Vreven, K. Throssell, J. A. Montgomery, Jr., J. E. Peralta, 
 F. Ogliaro, M. J. Bearpark, J. J. Heyd, E. N. Brothers, K. N. Kudin, 
 V. N. Staroverov, T. A. Keith, R. Kobayashi, J. Normand, 
 K. Raghavachari, A. P. Rendell, J. C. Burant, S. S. Iyengar, 
 J. Tomasi, M. Cossi, J. M. Millam, M. Klene, C. Adamo, R. Cammi, 
 J. W. Ochterski, R. L. Martin, K. Morokuma, O. Farkas, 
 J. B. Foresman, and D. J. Fox, Gaussian, Inc., Wallingford CT, 2016.
 
 ******************************************
 Gaussian 16:  ES64L-G16RevB.01 20-Dec-2017
                29-Jul-2020 
 ******************************************
 %NProcShared=16
 Will use up to   16 processors via shared memory.
 -------------------------------------------------------------
 #n B3LYP/6-31+G(d,p) EmpiricalDispersion=GD3 Opt=modredundant
 -------------------------------------------------------------
 1/18=120,19=15,26=3,38=1/1,3;
 2/9=110,12=2,17=6,18=5,40=1/2;
 3/5=1,6=6,7=111,11=2,25=1,30=1,71=1,74=-5,124=31/1,2,3;
 4//1;
 5/5=2,38=5/2;
 6/7=2,8=2,9=2,10=2,28=1/1;
 7//1,2,3,16;
 1/18=20,19=15,26=3/3(2);
 2/9=110/2;
 99//99;
 2/9=110/2;
 3/5=1,6=6,7=111,11=2,25=1,30=1,71=1,74=-5,124=31/1,2,3;
 4/5=5,16=3,69=1/1;
 5/5=2,38=5/2;
 7//1,2,3,16;
 1/18=20,19=15,26=3/3(-5);
 2/9=110/2;
 6/7=2,8=2,9=2,10=2,19=2,28=1/1;
 99/9=1/99;
 -----
 Title
 -----
 Symbolic Z-matrix:
 Charge =  0 Multiplicity = 1
 Si                   -7.01157   0.26142  -0.04926 
 O                    -5.39075   0.08307   0.17077 
 O                    -7.31532   1.79643  -0.52325 
 O                    -7.7902   -0.03788   1.35791 
 O                    -7.52182  -0.80054  -1.18302 
 H                    -6.91746  -0.91262  -1.93493 
 H                    -8.17551  -0.92634   1.41079 
 H                    -8.20539   2.11068  -0.30397 
 Si                   -3.31018  -2.97416  -1.406 
 O                    -1.79319  -2.57507  -0.93631 
 O                    -4.23059  -3.30155  -0.09125 
 O                    -3.24876  -4.28448  -2.38516 
 O                    -3.98384  -1.70788  -2.2029 
 H                    -4.00478  -0.89769  -1.66505 
 H                    -4.11864  -4.64444  -2.60985 
 H                    -1.10594  -3.06413  -1.41428 
 H                    -4.35706  -2.53859   0.49456 
 H                    -5.01674   0.78069   0.7338 
 
 Add virtual bond connecting atoms H14        and O2         Dist= 4.73D+00.
 The following ModRedundant input section has been read:
 B       1       9 F                                                           
 

 GradGradGradGradGradGradGradGradGradGradGradGradGradGradGradGradGradGrad
 Berny optimization.
 Initialization pass.
                           ----------------------------
                           !    Initial Parameters    !
                           ! (Angstroms and Degrees)  !
 --------------------------                            --------------------------
 ! Name  Definition              Value          Derivative Info.                !
 --------------------------------------------------------------------------------
 ! R1    R(1,2)                  1.6454         estimate D2E/DX2                !
 ! R2    R(1,3)                  1.635          estimate D2E/DX2                !
 ! R3    R(1,4)                  1.6358         estimate D2E/DX2                !
 ! R4    R(1,5)                  1.6351         estimate D2E/DX2                !
 ! R5    R(1,9)                  5.1            Frozen                          !
 ! R6    R(2,14)                 2.5006         estimate D2E/DX2                !
 ! R7    R(2,18)                 0.9714         estimate D2E/DX2                !
 ! R8    R(3,8)                  0.9691         estimate D2E/DX2                !
 ! R9    R(4,7)                  0.9699         estimate D2E/DX2                !
 ! R10   R(5,6)                  0.9712         estimate D2E/DX2                !
 ! R11   R(9,10)                 1.6374         estimate D2E/DX2                !
 ! R12   R(9,11)                 1.638          estimate D2E/DX2                !
 ! R13   R(9,12)                 1.6369         estimate D2E/DX2                !
 ! R14   R(9,13)                 1.6408         estimate D2E/DX2                !
 ! R15   R(10,16)                0.9695         estimate D2E/DX2                !
 ! R16   R(11,17)                0.9702         estimate D2E/DX2                !
 ! R17   R(12,15)                0.9679         estimate D2E/DX2                !
 ! R18   R(13,14)                0.9727         estimate D2E/DX2                !
 ! A1    A(2,1,3)              108.8772         estimate D2E/DX2                !
 ! A2    A(2,1,4)              109.5124         estimate D2E/DX2                !
 ! A3    A(2,1,5)              109.2523         estimate D2E/DX2                !
 ! A4    A(3,1,4)              109.4344         estimate D2E/DX2                !
 ! A5    A(3,1,5)              110.5346         estimate D2E/DX2                !
 ! A6    A(4,1,5)              109.214          estimate D2E/DX2                !
 ! A7    A(1,2,14)             119.3615         estimate D2E/DX2                !
 ! A8    A(1,2,18)             112.2687         estimate D2E/DX2                !
 ! A9    A(14,2,18)            119.5908         estimate D2E/DX2                !
 ! A10   A(1,3,8)              114.1731         estimate D2E/DX2                !
 ! A11   A(1,4,7)              113.8041         estimate D2E/DX2                !
 ! A12   A(1,5,6)              114.6833         estimate D2E/DX2                !
 ! A13   A(10,9,11)            109.82           estimate D2E/DX2                !
 ! A14   A(10,9,12)            109.3858         estimate D2E/DX2                !
 ! A15   A(10,9,13)            109.3648         estimate D2E/DX2                !
 ! A16   A(11,9,12)            109.9517         estimate D2E/DX2                !
 ! A17   A(11,9,13)            108.2631         estimate D2E/DX2                !
 ! A18   A(12,9,13)            110.0383         estimate D2E/DX2                !
 ! A19   A(9,10,16)            113.1017         estimate D2E/DX2                !
 ! A20   A(9,11,17)            113.6237         estimate D2E/DX2                !
 ! A21   A(9,12,15)            113.7569         estimate D2E/DX2                !
 ! A22   A(9,13,14)            112.5252         estimate D2E/DX2                !
 ! A23   A(2,14,13)            138.1217         estimate D2E/DX2                !
 ! D1    D(3,1,2,14)           -96.9456         estimate D2E/DX2                !
 ! D2    D(3,1,2,18)            50.4723         estimate D2E/DX2                !
 ! D3    D(4,1,2,14)           143.4352         estimate D2E/DX2                !
 ! D4    D(4,1,2,18)           -69.147          estimate D2E/DX2                !
 ! D5    D(5,1,2,14)            23.8579         estimate D2E/DX2                !
 ! D6    D(5,1,2,18)           171.2758         estimate D2E/DX2                !
 ! D7    D(2,1,3,8)           -154.199          estimate D2E/DX2                !
 ! D8    D(4,1,3,8)            -34.5313         estimate D2E/DX2                !
 ! D9    D(5,1,3,8)             85.7881         estimate D2E/DX2                !
 ! D10   D(2,1,4,7)           -100.0138         estimate D2E/DX2                !
 ! D11   D(3,1,4,7)            140.7097         estimate D2E/DX2                !
 ! D12   D(5,1,4,7)             19.587          estimate D2E/DX2                !
 ! D13   D(2,1,5,6)            -39.7339         estimate D2E/DX2                !
 ! D14   D(3,1,5,6)             80.0535         estimate D2E/DX2                !
 ! D15   D(4,1,5,6)           -159.4953         estimate D2E/DX2                !
 ! D16   D(1,2,14,13)          -55.7398         estimate D2E/DX2                !
 ! D17   D(18,2,14,13)         159.2263         estimate D2E/DX2                !
 ! D18   D(11,9,10,16)         130.3438         estimate D2E/DX2                !
 ! D19   D(12,9,10,16)           9.5908         estimate D2E/DX2                !
 ! D20   D(13,9,10,16)        -110.9862         estimate D2E/DX2                !
 ! D21   D(10,9,11,17)          63.842          estimate D2E/DX2                !
 ! D22   D(12,9,11,17)        -175.7474         estimate D2E/DX2                !
 ! D23   D(13,9,11,17)         -55.5049         estimate D2E/DX2                !
 ! D24   D(10,9,12,15)         172.6026         estimate D2E/DX2                !
 ! D25   D(11,9,12,15)          51.9299         estimate D2E/DX2                !
 ! D26   D(13,9,12,15)         -67.2318         estimate D2E/DX2                !
 ! D27   D(10,9,13,14)         -57.463          estimate D2E/DX2                !
 ! D28   D(11,9,13,14)          62.1705         estimate D2E/DX2                !
 ! D29   D(12,9,13,14)        -177.6412         estimate D2E/DX2                !
 ! D30   D(9,13,14,2)          -79.5771         estimate D2E/DX2                !
 --------------------------------------------------------------------------------
 Trust Radius=3.00D-01 FncErr=1.00D-07 GrdErr=1.00D-06 EigMax=2.50D+02 EigMin=1.00D-04
 Number of steps in this run=     81 maximum allowed number of steps=    108.
 GradGradGradGradGradGradGradGradGradGradGradGradGradGradGradGradGradGrad

                          Input orientation:                          
 ---------------------------------------------------------------------
 Center     Atomic      Atomic             Coordinates (Angstroms)
 Number     Number       Type             X           Y           Z
 ---------------------------------------------------------------------
      1         14           0       -7.011570    0.261420   -0.049260
      2          8           0       -5.390750    0.083070    0.170770
      3          8           0       -7.315320    1.796430   -0.523250
      4          8           0       -7.790200   -0.037880    1.357910
      5          8           0       -7.521820   -0.800540   -1.183020
      6          1           0       -6.917460   -0.912620   -1.934930
      7          1           0       -8.175510   -0.926340    1.410790
      8          1           0       -8.205390    2.110680   -0.303970
      9         14           0       -3.310180   -2.974160   -1.406000
     10          8           0       -1.793190   -2.575070   -0.936310
     11          8           0       -4.230590   -3.301550   -0.091250
     12          8           0       -3.248760   -4.284480   -2.385160
     13          8           0       -3.983840   -1.707880   -2.202900
     14          1           0       -4.004780   -0.897690   -1.665050
     15          1           0       -4.118640   -4.644440   -2.609850
     16          1           0       -1.105940   -3.064130   -1.414280
     17          1           0       -4.357060   -2.538590    0.494560
     18          1           0       -5.016740    0.780690    0.733800
 ---------------------------------------------------------------------
                    Distance matrix (angstroms):
                    1          2          3          4          5
     1  Si   0.000000
     2  O    1.645381   0.000000
     3  O    1.634988   2.668564   0.000000
     4  O    1.635840   2.679793   2.670013   0.000000
     5  O    1.635092   2.674878   2.687414   2.666459   0.000000
     6  H    2.223281   2.784998   3.080598   3.517050   0.971175
     7  H    2.212979   3.211144   3.448755   0.969856   2.677870
     8  H    2.215817   3.501254   0.969052   2.747824   3.116921
     9  Si   5.100001   4.020153   6.291178   6.027563   4.744708
    10  O    6.005333   4.608012   7.055108   6.903978   6.002252
    11  O    4.519996   3.587517   5.974243   5.042066   4.275419
    12  O    6.346682   5.495124   7.548582   7.257332   5.642873
    13  O    4.205170   3.289560   5.118610   5.473266   3.792192
    14  H    3.604872   2.500608   4.418333   4.920057   3.551248
    15  H    6.244448   5.630228   7.487154   7.102385   5.328512
    16  H    6.913684   5.547689   7.935703   7.843632   6.807410
    17  H    3.896437   2.836628   5.345993   4.334210   3.981306
    18  H    2.205033   0.971370   2.809871   2.958319   3.528443
                    6          7          8          9         10
     6  H    0.000000
     7  H    3.574454   0.000000
     8  H    3.668670   3.487805   0.000000
     9  Si   4.188339   5.983252   7.143749   0.000000
    10  O    5.478971   6.997228   7.966958   1.637419   0.000000
    11  O    4.040472   4.843567   6.718372   1.637958   2.680078
    12  O    5.003150   7.068183   8.354496   1.636907   2.672065
    13  O    3.051290   5.589245   6.000735   1.640833   2.674924
    14  H    2.925195   5.182336   5.343028   2.204836   2.869808
    15  H    4.713321   6.815278   8.224977   2.211944   3.534225
    16  H    6.218829   7.907590   8.855147   2.206091   0.969509
    17  H    3.886110   4.244925   6.087939   2.213099   2.936350
    18  H    3.688110   3.653778   3.607399   4.646503   4.943851
                   11         12         13         14         15
    11  O    0.000000
    12  O    2.681821   0.000000
    13  O    2.657016   2.685597   0.000000
    14  H    2.882079   3.544076   0.972692   0.000000
    15  H    2.856437   0.967857   2.967687   3.865714   0.000000
    16  H    3.401502   2.650196   3.277750   3.627619   3.605985
    17  H    0.970194   3.545314   2.847045   2.735063   3.758831
    18  H    4.238328   6.205611   3.985482   3.097661   6.435730
                   16         17         18
    16  H    0.000000
    17  H    3.806526   0.000000
    18  H    5.889927   3.392644   0.000000
 Stoichiometry    H8O8Si2
 Framework group  C1[X(H8O8Si2)]
 Deg. of freedom    48
 Full point group                 C1      NOp   1
 Largest Abelian subgroup         C1      NOp   1
 Largest concise Abelian subgroup C1      NOp   1
                         Standard orientation:                         
 ---------------------------------------------------------------------
 Center     Atomic      Atomic             Coordinates (Angstroms)
 Number     Number       Type             X           Y           Z
 ---------------------------------------------------------------------
      1         14           0       -2.538262   -0.004315   -0.009843
      2          8           0       -1.307623    1.063227    0.220725
      3          8           0       -3.603477    0.637558   -1.071211
      4          8           0       -3.291686   -0.285588    1.414660
      5          8           0       -1.932100   -1.409882   -0.584712
      6          1           0       -1.220579   -1.307728   -1.237769
      7          1           0       -3.023101   -1.113349    1.842791
      8          1           0       -4.507503    0.301045   -0.978703
      9         14           0        2.561721   -0.005744    0.003694
     10          8           0        3.284377    1.447013    0.223701
     11          8           0        1.747946   -0.432269    1.359700
     12          8           0        3.698692   -1.131254   -0.342703
     13          8           0        1.484738    0.103500   -1.229394
     14          1           0        0.812237    0.789558   -1.077095
     15          1           0        3.355335   -2.035628   -0.373728
     16          1           0        4.221249    1.447506   -0.025735
     17          1           0        1.015860    0.165756    1.578085
     18          1           0       -1.628864    1.955235    0.432120
 ---------------------------------------------------------------------
 Rotational constants (GHZ):           2.0083133           0.3379946           0.3367096
 Standard basis: 6-31+G(d,p) (6D, 7F)
 There are   238 symmetry adapted cartesian basis functions of A   symmetry.
 There are   238 symmetry adapted basis functions of A   symmetry.
   238 basis functions,   424 primitive gaussians,   238 cartesian basis functions
    50 alpha electrons       50 beta electrons
       nuclear repulsion energy       797.4886878811 Hartrees.
 NAtoms=   18 NActive=   18 NUniq=   18 SFac= 1.00D+00 NAtFMM=   60 NAOKFM=F Big=F
 Integral buffers will be    131072 words long.
 Raffenetti 2 integral format.
 Two-electron integral symmetry is turned on.
 Nuclear repulsion after empirical dispersion term =      797.4760614367 Hartrees.
 One-electron integrals computed using PRISM.
 NBasis=   238 RedAO= T EigKep=  2.67D-04  NBF=   238
 NBsUse=   238 1.00D-06 EigRej= -1.00D+00 NBFU=   238
 ExpMin= 3.31D-02 ExpMax= 1.61D+04 ExpMxC= 2.43D+03 IAcc=3 IRadAn=         5 AccDes= 0.00D+00
 Harris functional with IExCor=  402 and IRadAn=       5 diagonalized for initial guess.
 HarFok:  IExCor=  402 AccDes= 0.00D+00 IRadAn=         5 IDoV= 1 UseB2=F ITyADJ=14
 ICtDFT=  3500011 ScaDFX=  1.000000  1.000000  1.000000  1.000000
 FoFCou: FMM=F IPFlag=           0 FMFlag=      100000 FMFlg1=           0
         NFxFlg=           0 DoJE=T BraDBF=F KetDBF=T FulRan=T
         wScrn=  0.000000 ICntrl=       500 IOpCl=  0 I1Cent=   200000004 NGrid=           0
         NMat0=    1 NMatS0=      1 NMatT0=    0 NMatD0=    1 NMtDS0=    0 NMtDT0=    0
 Petite list used in FoFCou.
 Requested convergence on RMS density matrix=1.00D-08 within 128 cycles.
 Requested convergence on MAX density matrix=1.00D-06.
 Requested convergence on             energy=1.00D-06.
 No special actions if energy rises.
 SCF Done:  E(RB3LYP) =  -1186.04816654     A.U. after   11 cycles
            NFock= 11  Conv=0.63D-08     -V/T= 2.0065

 **********************************************************************

            Population analysis using the SCF Density.

 **********************************************************************

 Orbital symmetries:
       Occupied  (A) (A) (A) (A) (A) (A) (A) (A) (A) (A) (A) (A)
                 (A) (A) (A) (A) (A) (A) (A) (A) (A) (A) (A) (A)
                 (A) (A) (A) (A) (A) (A) (A) (A) (A) (A) (A) (A)
                 (A) (A) (A) (A) (A) (A) (A) (A) (A) (A) (A) (A)
                 (A) (A)
       Virtual   (A) (A) (A) (A) (A) (A) (A) (A) (A) (A) (A) (A)
                 (A) (A) (A) (A) (A) (A) (A) (A) (A) (A) (A) (A)
                 (A) (A) (A) (A) (A) (A) (A) (A) (A) (A) (A) (A)
                 (A) (A) (A) (A) (A) (A) (A) (A) (A) (A) (A) (A)
                 (A) (A) (A) (A) (A) (A) (A) (A) (A) (A) (A) (A)
                 (A) (A) (A) (A) (A) (A) (A) (A) (A) (A) (A) (A)
                 (A) (A) (A) (A) (A) (A) (A) (A) (A) (A) (A) (A)
                 (A) (A) (A) (A) (A) (A) (A) (A) (A) (A) (A) (A)
                 (A) (A) (A) (A) (A) (A) (A) (A) (A) (A) (A) (A)
                 (A) (A) (A) (A) (A) (A) (A) (A) (A) (A) (A) (A)
                 (A) (A) (A) (A) (A) (A) (A) (A) (A) (A) (A) (A)
                 (A) (A) (A) (A) (A) (A) (A) (A) (A) (A) (A) (A)
                 (A) (A) (A) (A) (A) (A) (A) (A) (A) (A) (A) (A)
                 (A) (A) (A) (A) (A) (A) (A) (A) (A) (A) (A) (A)
                 (A) (A) (A) (A) (A) (A) (A) (A) (A) (A) (A) (A)
                 (A) (A) (A) (A) (A) (A) (A) (A)
 The electronic state is 1-A.
 Alpha  occ. eigenvalues --  -66.22627 -66.20925 -19.19109 -19.18016 -19.17767
 Alpha  occ. eigenvalues --  -19.17713 -19.17236 -19.16378 -19.15987 -19.15966
 Alpha  occ. eigenvalues --   -5.36230  -5.34529  -3.72234  -3.72203  -3.72135
 Alpha  occ. eigenvalues --   -3.70553  -3.70465  -3.70449  -1.06288  -1.04590
 Alpha  occ. eigenvalues --   -1.02759  -1.01983  -1.01823  -1.01056  -1.00492
 Alpha  occ. eigenvalues --   -0.99942  -0.60519  -0.58905  -0.54774  -0.54329
 Alpha  occ. eigenvalues --   -0.53986  -0.53355  -0.52212  -0.52035  -0.42711
 Alpha  occ. eigenvalues --   -0.41161  -0.40378  -0.39936  -0.39579  -0.39002
 Alpha  occ. eigenvalues --   -0.38510  -0.38002  -0.37908  -0.36774  -0.35209
 Alpha  occ. eigenvalues --   -0.35009  -0.34005  -0.33319  -0.33276  -0.30714
 Alpha virt. eigenvalues --   -0.04091  -0.01395   0.00204   0.00950   0.01621
 Alpha virt. eigenvalues --    0.02316   0.03970   0.05569   0.08669   0.09712
 Alpha virt. eigenvalues --    0.10021   0.10971   0.11279   0.11999   0.12722
 Alpha virt. eigenvalues --    0.13549   0.13965   0.14508   0.15373   0.15628
 Alpha virt. eigenvalues --    0.16279   0.16336   0.17008   0.17581   0.18184
 Alpha virt. eigenvalues --    0.18331   0.18773   0.19364   0.19780   0.20097
 Alpha virt. eigenvalues --    0.20359   0.21168   0.22070   0.23097   0.23803
 Alpha virt. eigenvalues --    0.24027   0.25377   0.25836   0.26065   0.26522
 Alpha virt. eigenvalues --    0.27072   0.27798   0.28066   0.29808   0.30031
 Alpha virt. eigenvalues --    0.30586   0.31702   0.33061   0.34040   0.34920
 Alpha virt. eigenvalues --    0.35538   0.37224   0.38197   0.40914   0.42044
 Alpha virt. eigenvalues --    0.44411   0.45314   0.46633   0.47099   0.47960
 Alpha virt. eigenvalues --    0.49095   0.51111   0.60955   0.62175   0.63283
 Alpha virt. eigenvalues --    0.64073   0.65274   0.66631   0.93779   0.94449
 Alpha virt. eigenvalues --    0.95112   0.95712   0.96483   0.97216   0.98157
 Alpha virt. eigenvalues --    0.98349   0.99560   1.01288   1.02523   1.03764
 Alpha virt. eigenvalues --    1.05688   1.07171   1.14622   1.15444   1.16265
 Alpha virt. eigenvalues --    1.17257   1.17488   1.18080   1.18777   1.19402
 Alpha virt. eigenvalues --    1.20682   1.21284   1.22694   1.23283   1.23654
 Alpha virt. eigenvalues --    1.24903   1.25328   1.25592   1.26808   1.27679
 Alpha virt. eigenvalues --    1.29748   1.30094   1.30831   1.33077   1.34593
 Alpha virt. eigenvalues --    1.35280   1.45620   1.48630   1.50343   1.54402
 Alpha virt. eigenvalues --    1.54912   1.55777   1.56573   1.56771   1.57755
 Alpha virt. eigenvalues --    1.59202   1.60644   1.62758   1.63369   1.65448
 Alpha virt. eigenvalues --    1.66836   1.68447   1.68630   1.70432   1.72504
 Alpha virt. eigenvalues --    1.74865   1.76576   1.78843   1.85838   1.86976
 Alpha virt. eigenvalues --    1.88559   1.91444   1.92468   2.00386   2.01705
 Alpha virt. eigenvalues --    2.08736   2.10346   2.15383   2.35116   2.35636
 Alpha virt. eigenvalues --    2.36792   2.36962   2.37720   2.38054   2.38572
 Alpha virt. eigenvalues --    2.40859   2.47081   2.49153   2.58591   2.58803
 Alpha virt. eigenvalues --    2.59393   2.60370   2.60695   2.61352   2.61857
 Alpha virt. eigenvalues --    2.62305   2.63958   2.64860   2.68695   2.69250
 Alpha virt. eigenvalues --    2.71019   2.71861   2.73138   2.73572   2.77226
 Alpha virt. eigenvalues --    2.78408   2.78631   2.79681   2.81643   2.82080
 Alpha virt. eigenvalues --    2.98548   3.00726   3.38667   3.39991   3.41393
 Alpha virt. eigenvalues --    3.43050   3.44278   3.45074   3.48343   3.49803
 Alpha virt. eigenvalues --    4.10252   4.14267   4.15900   4.19158   4.20307
 Alpha virt. eigenvalues --    4.20928   4.24753   4.36565
          Condensed to atoms (all electrons):
               1          2          3          4          5          6
     1  Si  11.705532  -0.017992   0.071382   0.052977   0.084062   0.032647
     2  O   -0.017992   8.599266   0.039478   0.019809   0.035574  -0.005950
     3  O    0.071382   0.039478   8.486556   0.010236  -0.015693  -0.007283
     4  O    0.052977   0.019809   0.010236   8.491320   0.066264   0.006417
     5  O    0.084062   0.035574  -0.015693   0.066264   8.452682   0.249752
     6  H    0.032647  -0.005950  -0.007283   0.006417   0.249752   0.340880
     7  H    0.036240  -0.006298   0.004485   0.241722  -0.003108   0.000073
     8  H    0.036388   0.004080   0.240286  -0.002306  -0.007084   0.000080
     9  Si  -0.000767  -0.002359   0.000989  -0.000106  -0.007345   0.000643
    10  O    0.000551  -0.000587  -0.000005  -0.000025   0.000040   0.000025
    11  O   -0.006938   0.005041  -0.000296  -0.000448   0.003442  -0.000455
    12  O    0.001144  -0.000696  -0.000008   0.000003  -0.000055  -0.000051
    13  O   -0.015618   0.009451  -0.000985  -0.000393   0.012319   0.003267
    14  H    0.004400   0.002884  -0.000202   0.000151  -0.002396   0.000044
    15  H   -0.000131   0.000037   0.000000   0.000000  -0.000008   0.000002
    16  H   -0.000094   0.000016   0.000000   0.000000   0.000001  -0.000000
    17  H    0.002236   0.004681   0.000055   0.000007  -0.000822   0.000028
    18  H    0.042201   0.225996  -0.003374  -0.008044   0.007451   0.000094
               7          8          9         10         11         12
     1  Si   0.036240   0.036388  -0.000767   0.000551  -0.006938   0.001144
     2  O   -0.006298   0.004080  -0.002359  -0.000587   0.005041  -0.000696
     3  O    0.004485   0.240286   0.000989  -0.000005  -0.000296  -0.000008
     4  O    0.241722  -0.002306  -0.000106  -0.000025  -0.000448   0.000003
     5  O   -0.003108  -0.007084  -0.007345   0.000040   0.003442  -0.000055
     6  H    0.000073   0.000080   0.000643   0.000025  -0.000455  -0.000051
     7  H    0.351726   0.000094  -0.000005  -0.000000  -0.000034  -0.000000
     8  H    0.000094   0.358050  -0.000028   0.000000   0.000003   0.000000
     9  Si  -0.000005  -0.000028  11.737455   0.016777   0.029511   0.047259
    10  O   -0.000000   0.000000   0.016777   8.517600   0.048840   0.028730
    11  O   -0.000034   0.000003   0.029511   0.048840   8.496821   0.031775
    12  O   -0.000000   0.000000   0.047259   0.028730   0.031775   8.473805
    13  O    0.000012   0.000013   0.043261   0.031546   0.027601   0.038138
    14  H   -0.000001  -0.000001   0.049369  -0.006640  -0.018085   0.007297
    15  H   -0.000000   0.000000   0.035067   0.007606  -0.007290   0.249638
    16  H   -0.000000   0.000000   0.030219   0.242092   0.001747  -0.000574
    17  H    0.000008  -0.000000   0.050636  -0.008239   0.230873   0.007334
    18  H    0.000085   0.000135   0.000398  -0.000001   0.000218  -0.000001
              13         14         15         16         17         18
     1  Si  -0.015618   0.004400  -0.000131  -0.000094   0.002236   0.042201
     2  O    0.009451   0.002884   0.000037   0.000016   0.004681   0.225996
     3  O   -0.000985  -0.000202   0.000000   0.000000   0.000055  -0.003374
     4  O   -0.000393   0.000151   0.000000   0.000000   0.000007  -0.008044
     5  O    0.012319  -0.002396  -0.000008   0.000001  -0.000822   0.007451
     6  H    0.003267   0.000044   0.000002  -0.000000   0.000028   0.000094
     7  H    0.000012  -0.000001  -0.000000  -0.000000   0.000008   0.000085
     8  H    0.000013  -0.000001   0.000000   0.000000  -0.000000   0.000135
     9  Si   0.043261   0.049369   0.035067   0.030219   0.050636   0.000398
    10  O    0.031546  -0.006640   0.007606   0.242092  -0.008239  -0.000001
    11  O    0.027601  -0.018085  -0.007290   0.001747   0.230873   0.000218
    12  O    0.038138   0.007297   0.249638  -0.000574   0.007334  -0.000001
    13  O    8.489363   0.227160  -0.007849  -0.002830  -0.016365   0.001130
    14  H    0.227160   0.356509   0.000009   0.000001   0.000428  -0.000320
    15  H   -0.007849   0.000009   0.358715   0.000065   0.000027   0.000000
    16  H   -0.002830   0.000001   0.000065   0.353970  -0.000028   0.000000
    17  H   -0.016365   0.000428   0.000027  -0.000028   0.358276  -0.000057
    18  H    0.001130  -0.000320   0.000000   0.000000  -0.000057   0.355499
 Mulliken charges:
               1
     1  Si   1.971778
     2  O   -0.912431
     3  O   -0.825623
     4  O   -0.877584
     5  O   -0.875079
     6  H    0.379783
     7  H    0.375000
     8  H    0.370288
     9  Si   1.969026
    10  O   -0.878310
    11  O   -0.842327
    12  O   -0.883737
    13  O   -0.839220
    14  H    0.379392
    15  H    0.364112
    16  H    0.375417
    17  H    0.370924
    18  H    0.378590
 Sum of Mulliken charges =  -0.00000
 Mulliken charges with hydrogens summed into heavy atoms:
               1
     1  Si   1.971778
     2  O   -0.533842
     3  O   -0.455335
     4  O   -0.502584
     5  O   -0.495296
     9  Si   1.969026
    10  O   -0.502893
    11  O   -0.471403
    12  O   -0.519624
    13  O   -0.459827
 Electronic spatial extent (au):  <R**2>=           3212.5176
 Charge=             -0.0000 electrons
 Dipole moment (field-independent basis, Debye):
    X=             -1.9952    Y=              0.0908    Z=              0.2678  Tot=              2.0151
 Quadrupole moment (field-independent basis, Debye-Ang):
   XX=            -67.1076   YY=            -66.7563   ZZ=            -75.8341
   XY=              0.3797   XZ=             -2.4705   YZ=              0.7795
 Traceless Quadrupole moment (field-independent basis, Debye-Ang):
   XX=              2.7917   YY=              3.1430   ZZ=             -5.9347
   XY=              0.3797   XZ=             -2.4705   YZ=              0.7795
 Octapole moment (field-independent basis, Debye-Ang**2):
  XXX=            -24.3660  YYY=             -4.3064  ZZZ=              5.9716  XYY=              5.3441
  XXY=              0.9877  XXZ=            -13.1733  XZZ=             -9.5139  YZZ=             -6.2931
  YYZ=              3.1404  XYZ=              2.4340
 Hexadecapole moment (field-independent basis, Debye-Ang**3):
 XXXX=          -2779.1478 YYYY=           -322.3472 ZZZZ=           -357.5275 XXXY=            135.9439
 XXXZ=             61.9105 YYYX=            -76.4006 YYYZ=              5.8952 ZZZX=            -13.3143
 ZZZY=             -2.6828 XXYY=           -545.1942 XXZZ=           -637.9329 YYZZ=           -110.3715
 XXYZ=            -16.9735 YYXZ=            -42.8623 ZZXY=             30.7575
 N-N= 7.974760614367D+02 E-N=-4.404906755381D+03  KE= 1.178402129734D+03
 Calling FoFJK, ICntrl=      2127 FMM=F ISym2X=0 I1Cent= 0 IOpClX= 0 NMat=1 NMatS=1 NMatT=0.
 ***** Axes restored to original set *****
 -------------------------------------------------------------------
 Center     Atomic                   Forces (Hartrees/Bohr)
 Number     Number              X              Y              Z
 -------------------------------------------------------------------
      1       14          -0.003819365   -0.002647084   -0.003855984
      2        8           0.014779715    0.005128358   -0.000475194
      3        8          -0.003475180    0.012415367    0.005033473
      4        8          -0.012123946   -0.007946029    0.004214283
      5        8           0.006743579   -0.008580430   -0.006416162
      6        1          -0.004330957   -0.002865914    0.002480072
      7        1           0.001223969    0.004448516    0.002846134
      8        1           0.004537804    0.000821985   -0.002164949
      9       14          -0.002246756    0.001518901    0.001622833
     10        8           0.014089896   -0.006058797   -0.003763230
     11        8          -0.004518653    0.001089348    0.012069224
     12        8          -0.005308144   -0.003648534   -0.002263907
     13        8          -0.005514182    0.014577492   -0.003070738
     14        1          -0.002588928   -0.001943378   -0.004307260
     15        1           0.004156726   -0.001585821   -0.001356154
     16        1           0.000029713    0.004411671    0.004219987
     17        1          -0.003007519   -0.004485090   -0.001216083
     18        1           0.001372229   -0.004650559   -0.003596345
 -------------------------------------------------------------------
 Cartesian Forces:  Max     0.014779715 RMS     0.005821785

 GradGradGradGradGradGradGradGradGradGradGradGradGradGradGradGradGradGrad
 Berny optimization.
 FormGI is forming the generalized inverse of G from B-inverse, IUseBI=4.
 Internal  Forces:  Max     0.014580483 RMS     0.005563946
 Search for a local minimum.
 Step number   1 out of a maximum of   81
 All quantities printed in internal units (Hartrees-Bohrs-Radians)
 Mixed Optimization -- RFO/linear search
 Second derivative matrix not updated -- first step.
 ITU=  0
     Eigenvalues ---    0.00370   0.01929   0.03379   0.03739   0.03799
     Eigenvalues ---    0.03837   0.03844   0.03851   0.03865   0.03875
     Eigenvalues ---    0.03876   0.07128   0.10703   0.10772   0.12173
     Eigenvalues ---    0.12197   0.12246   0.12480   0.14878   0.16000
     Eigenvalues ---    0.16000   0.16000   0.16000   0.16000   0.16000
     Eigenvalues ---    0.16000   0.20131   0.20260   0.20696   0.20836
     Eigenvalues ---    0.21314   0.41352   0.43803   0.44527   0.44613
     Eigenvalues ---    0.44696   0.44868   0.44990   0.45007   0.51771
     Eigenvalues ---    0.53098   0.53138   0.53337   0.53406   0.53477
     Eigenvalues ---    0.53571   0.538171000.000001000.000001000.00000
     Eigenvalues --- 1000.000001000.000001000.000001000.000001000.00000
     Eigenvalues --- 1000.000001000.000001000.000001000.000001000.00000
     Eigenvalues --- 1000.000001000.000001000.000001000.000001000.00000
     Eigenvalues --- 1000.000001000.000001000.000001000.000001000.00000
     Eigenvalues --- 1000.00000
 RFO step:  Lambda=-7.87958433D-03 EMin= 3.69736240D-03
 Linear search not attempted -- first point.
 Iteration  1 RMS(Cart)=  0.06476224 RMS(Int)=  0.00136455
 Iteration  2 RMS(Cart)=  0.00215213 RMS(Int)=  0.00021112
 Iteration  3 RMS(Cart)=  0.00000258 RMS(Int)=  0.00021112
 Iteration  4 RMS(Cart)=  0.00000000 RMS(Int)=  0.00021112
 Iteration  1 RMS(Cart)=  0.00000310 RMS(Int)=  0.00000034
 Iteration  2 RMS(Cart)=  0.00000022 RMS(Int)=  0.00000035
 Variable       Old X    -DE/DX   Delta X   Delta X   Delta X     New X
                                 (Linear)    (Quad)   (Total)
    R1        3.10932   0.01258   0.00000   0.03087   0.03086   3.14018
    R2        3.08968   0.01140   0.00000   0.02489   0.02489   3.11457
    R3        3.09129   0.01190   0.00000   0.02607   0.02607   3.11736
    R4        3.08988   0.00941   0.00000   0.02056   0.02056   3.11043
    R5        9.63760  -0.00302   0.00000   0.00000   0.00000   9.63761
    R6        4.72546  -0.00311   0.00000  -0.06693  -0.06694   4.65852
    R7        1.83562  -0.00490   0.00000  -0.00909  -0.00909   1.82654
    R8        1.83124  -0.00439   0.00000  -0.00808  -0.00808   1.82316
    R9        1.83276  -0.00441   0.00000  -0.00813  -0.00813   1.82463
   R10        1.83526  -0.00429   0.00000  -0.00795  -0.00795   1.82731
   R11        3.09427   0.01281   0.00000   0.02822   0.02822   3.12249
   R12        3.09529   0.01362   0.00000   0.03005   0.03005   3.12535
   R13        3.09331   0.00631   0.00000   0.01388   0.01388   3.10718
   R14        3.10072   0.01458   0.00000   0.03457   0.03456   3.13529
   R15        1.83211  -0.00428   0.00000  -0.00790  -0.00790   1.82421
   R16        1.83340  -0.00387   0.00000  -0.00715  -0.00715   1.82625
   R17        1.82899  -0.00283   0.00000  -0.00518  -0.00518   1.82380
   R18        1.83812  -0.00626   0.00000  -0.00986  -0.00987   1.82825
    A1        1.90027  -0.00712   0.00000  -0.03571  -0.03526   1.86500
    A2        1.91135   0.01117   0.00000   0.04956   0.04957   1.96092
    A3        1.90681  -0.00709   0.00000  -0.03742  -0.03693   1.86989
    A4        1.90999  -0.00361   0.00000  -0.01374  -0.01338   1.89661
    A5        1.92919   0.01136   0.00000   0.05830   0.05799   1.98718
    A6        1.90614  -0.00461   0.00000  -0.02061  -0.02025   1.88589
    A7        2.08325  -0.00565   0.00000  -0.02460  -0.02461   2.05864
    A8        1.95946   0.00579   0.00000   0.02880   0.02877   1.98822
    A9        2.08725  -0.00062   0.00000  -0.00971  -0.00964   2.07761
   A10        1.99270   0.00473   0.00000   0.02815   0.02815   2.02085
   A11        1.98626   0.00567   0.00000   0.03378   0.03378   2.02003
   A12        2.00160   0.00663   0.00000   0.03950   0.03950   2.04110
   A13        1.91672   0.00190   0.00000   0.01275   0.01248   1.92920
   A14        1.90914  -0.00295   0.00000  -0.01996  -0.01992   1.88922
   A15        1.90878   0.00205   0.00000   0.01457   0.01434   1.92311
   A16        1.91902  -0.00139   0.00000  -0.01146  -0.01142   1.90760
   A17        1.88955   0.00132   0.00000   0.01252   0.01231   1.90186
   A18        1.92053  -0.00086   0.00000  -0.00786  -0.00779   1.91274
   A19        1.97400   0.00796   0.00000   0.04739   0.04739   2.02138
   A20        1.98311   0.00632   0.00000   0.03767   0.03767   2.02078
   A21        1.98543   0.00675   0.00000   0.04020   0.04020   2.02563
   A22        1.96394   0.00196   0.00000   0.02404   0.02402   1.98795
   A23        2.41068  -0.00167   0.00000   0.00367   0.00365   2.41433
    D1       -1.69202  -0.00192   0.00000  -0.00338  -0.00383  -1.69585
    D2        0.88091  -0.00267   0.00000  -0.01465  -0.01521   0.86570
    D3        2.50342   0.00012   0.00000   0.00535   0.00538   2.50879
    D4       -1.20684  -0.00063   0.00000  -0.00592  -0.00600  -1.21284
    D5        0.41640   0.00330   0.00000   0.02328   0.02386   0.44026
    D6        2.98933   0.00255   0.00000   0.01201   0.01248   3.00181
    D7       -2.69128  -0.00453   0.00000  -0.02239  -0.02287  -2.71415
    D8       -0.60268   0.00262   0.00000   0.00824   0.00831  -0.59438
    D9        1.49729   0.00174   0.00000   0.01052   0.01094   1.50822
   D10       -1.74557   0.00055   0.00000   0.00974   0.00982  -1.73575
   D11        2.45585   0.00469   0.00000   0.03173   0.03164   2.48749
   D12        0.34186  -0.00416   0.00000  -0.01854  -0.01852   0.32333
   D13       -0.69349   0.00500   0.00000   0.03467   0.03528  -0.65821
   D14        1.39720  -0.00125   0.00000   0.00296   0.00261   1.39980
   D15       -2.78372  -0.00157   0.00000   0.00920   0.00894  -2.77478
   D16       -0.97284   0.00092   0.00000  -0.03198  -0.03182  -1.00466
   D17        2.77902  -0.00016   0.00000  -0.03175  -0.03189   2.74713
   D18        2.27493  -0.00199   0.00000  -0.01400  -0.01413   2.26080
   D19        0.16739   0.00039   0.00000   0.00471   0.00471   0.17210
   D20       -1.93707   0.00199   0.00000   0.01767   0.01781  -1.91926
   D21        1.11425   0.00365   0.00000   0.04230   0.04241   1.15666
   D22       -3.06737   0.00033   0.00000   0.01844   0.01844  -3.04893
   D23       -0.96874  -0.00073   0.00000   0.00973   0.00963  -0.95911
   D24        3.01248  -0.00019   0.00000  -0.00185  -0.00182   3.01066
   D25        0.90635   0.00019   0.00000   0.00216   0.00210   0.90844
   D26       -1.17342  -0.00004   0.00000  -0.00128  -0.00124  -1.17466
   D27       -1.00292  -0.00189   0.00000  -0.00642  -0.00654  -1.00946
   D28        1.08508   0.00238   0.00000   0.02484   0.02495   1.11003
   D29       -3.10042   0.00099   0.00000   0.01389   0.01390  -3.08652
   D30       -1.38888   0.00254   0.00000   0.00878   0.00880  -1.38008
         Item               Value     Threshold  Converged?
 Maximum Force            0.014731     0.000450     NO 
 RMS     Force            0.005591     0.000300     NO 
 Maximum Displacement     0.207639     0.001800     NO 
 RMS     Displacement     0.065686     0.001200     NO 
 Predicted change in Energy=-4.120755D-03
 GradGradGradGradGradGradGradGradGradGradGradGradGradGradGradGradGradGrad

                          Input orientation:                          
 ---------------------------------------------------------------------
 Center     Atomic      Atomic             Coordinates (Angstroms)
 Number     Number       Type             X           Y           Z
 ---------------------------------------------------------------------
      1         14           0       -7.020741    0.266216   -0.044223
      2          8           0       -5.382760    0.099355    0.180420
      3          8           0       -7.281735    1.822248   -0.520746
      4          8           0       -7.875309   -0.012805    1.338947
      5          8           0       -7.474202   -0.856448   -1.159219
      6          1           0       -6.861037   -1.022498   -1.888252
      7          1           0       -8.271218   -0.889947    1.417499
      8          1           0       -8.161610    2.174464   -0.340304
      9         14           0       -3.314452   -2.962605   -1.403688
     10          8           0       -1.767463   -2.571070   -0.974988
     11          8           0       -4.206625   -3.350341   -0.066173
     12          8           0       -3.256403   -4.259463   -2.412823
     13          8           0       -4.034076   -1.685189   -2.180240
     14          1           0       -4.057354   -0.871424   -1.657518
     15          1           0       -4.105856   -4.654420   -2.644951
     16          1           0       -1.068542   -3.024113   -1.462968
     17          1           0       -4.368814   -2.627858    0.554845
     18          1           0       -4.989543    0.792820    0.726982
 ---------------------------------------------------------------------
                    Distance matrix (angstroms):
                    1          2          3          4          5
     1  Si   0.000000
     2  O    1.661713   0.000000
     3  O    1.648160   2.658214   0.000000
     4  O    1.649635   2.750921   2.679218   0.000000
     5  O    1.645970   2.661263   2.760454   2.667106   0.000000
     6  H    2.255378   2.779075   3.184280   3.530303   0.966970
     7  H    2.244334   3.294279   3.477337   0.965553   2.697375
     8  H    2.242912   3.507027   0.964777   2.772362   3.213966
     9  Si   5.100001   4.020310   6.278037   6.084799   4.668959
    10  O    6.042636   4.640744   7.065039   7.014613   5.961605
    11  O    4.582490   3.653013   6.034785   5.154876   4.253389
    12  O    6.345256   5.499600   7.534618   7.310552   5.562541
    13  O    4.158210   3.252115   5.059972   5.471435   3.682901
    14  H    3.560703   2.465183   4.352557   4.928773   3.453024
    15  H    6.282755   5.675525   7.519687   7.185041   5.289400
    16  H    6.947502   5.573980   7.935917   7.953036   6.769307
    17  H    3.970801   2.933594   5.426367   4.443965   3.964763
    18  H    2.235583   0.966562   2.805475   3.057969   3.528649
                    6          7          8          9         10
     6  H    0.000000
     7  H    3.596410   0.000000
     8  H    3.782618   3.534472   0.000000
     9  Si   4.071496   6.068322   7.142493   0.000000
    10  O    5.401539   7.130848   7.987993   1.652350   0.000000
    11  O    3.973000   4.977523   6.800038   1.653862   2.717116
    12  O    4.873039   7.153557   8.351755   1.644251   2.671139
    13  O    2.918240   5.615114   5.942963   1.659122   2.715687
    14  H    2.817215   5.216581   5.278011   2.233690   2.932276
    15  H    4.621091   6.930008   8.270079   2.242608   3.549254
    16  H    6.143316   8.045514   8.865506   2.247534   0.965331
    17  H    3.841494   4.358126   6.184568   2.249353   3.018384
    18  H    3.692873   3.752054   3.620779   4.631296   4.959260
                   11         12         13         14         15
    11  O    0.000000
    12  O    2.690017   0.000000
    13  O    2.696625   2.699215   0.000000
    14  H    2.949524   3.562417   0.967467   0.000000
    15  H    2.891518   0.965114   3.006234   3.910043   0.000000
    16  H    3.450366   2.686084   3.331905   3.688485   3.644209
    17  H    0.966411   3.564639   2.912278   2.841939   3.796683
    18  H    4.290436   6.195782   3.937687   3.053608   6.467090
                   16         17         18
    16  H    0.000000
    17  H    3.888494   0.000000
    18  H    5.893989   3.480801   0.000000
 Stoichiometry    H8O8Si2
 Framework group  C1[X(H8O8Si2)]
 Deg. of freedom    48
 Full point group                 C1      NOp   1
 Largest Abelian subgroup         C1      NOp   1
 Largest concise Abelian subgroup C1      NOp   1
                         Standard orientation:                         
 ---------------------------------------------------------------------
 Center     Atomic      Atomic             Coordinates (Angstroms)
 Number     Number       Type             X           Y           Z
 ---------------------------------------------------------------------
      1         14           0       -2.545604   -0.004439   -0.014237
      2          8           0       -1.312150    0.979074    0.507859
      3          8           0       -3.590273    0.948005   -0.861555
      4          8           0       -3.363637   -0.702530    1.236677
      5          8           0       -1.862806   -1.204575   -0.910160
      6          1           0       -1.115483   -0.960179   -1.473020
      7          1           0       -3.117400   -1.613195    1.442467
      8          1           0       -4.500433    0.631863   -0.911133
      9         14           0        2.554351   -0.001985    0.007273
     10          8           0        3.313343    1.346749    0.586155
     11          8           0        1.790148   -0.808484    1.232350
     12          8           0        3.689891   -0.983496   -0.664105
     13          8           0        1.434280    0.420047   -1.141646
     14          1           0        0.761188    1.038341   -0.824388
     15          1           0        3.386075   -1.857402   -0.938748
     16          1           0        4.239192    1.449450    0.332935
     17          1           0        1.047381   -0.345038    1.641575
     18          1           0       -1.613345    1.787760    0.943233
 ---------------------------------------------------------------------
 Rotational constants (GHZ):           1.9868022           0.3372069           0.3347709
 Standard basis: 6-31+G(d,p) (6D, 7F)
 There are   238 symmetry adapted cartesian basis functions of A   symmetry.
 There are   238 symmetry adapted basis functions of A   symmetry.
   238 basis functions,   424 primitive gaussians,   238 cartesian basis functions
    50 alpha electrons       50 beta electrons
       nuclear repulsion energy       793.3099887681 Hartrees.
 NAtoms=   18 NActive=   18 NUniq=   18 SFac= 1.00D+00 NAtFMM=   60 NAOKFM=F Big=F
 Integral buffers will be    131072 words long.
 Raffenetti 2 integral format.
 Two-electron integral symmetry is turned on.
 Nuclear repulsion after empirical dispersion term =      793.2974998944 Hartrees.
 One-electron integrals computed using PRISM.
 NBasis=   238 RedAO= T EigKep=  2.76D-04  NBF=   238
 NBsUse=   238 1.00D-06 EigRej= -1.00D+00 NBFU=   238
 Initial guess from the checkpoint file:  "/localscratch/sarashs.36560089.0/Gau-19515.chk"
 B after Tr=     0.000000   -0.000000    0.000000
         Rot=    0.990323   -0.138779    0.000592   -0.000443 Ang= -15.95 deg.
 ExpMin= 3.31D-02 ExpMax= 1.61D+04 ExpMxC= 2.43D+03 IAcc=3 IRadAn=         5 AccDes= 0.00D+00
 Harris functional with IExCor=  402 and IRadAn=       5 diagonalized for initial guess.
 HarFok:  IExCor=  402 AccDes= 0.00D+00 IRadAn=         5 IDoV= 1 UseB2=F ITyADJ=14
 ICtDFT=  3500011 ScaDFX=  1.000000  1.000000  1.000000  1.000000
 FoFCou: FMM=F IPFlag=           0 FMFlag=      100000 FMFlg1=           0
         NFxFlg=           0 DoJE=T BraDBF=F KetDBF=T FulRan=T
         wScrn=  0.000000 ICntrl=       500 IOpCl=  0 I1Cent=   200000004 NGrid=           0
         NMat0=    1 NMatS0=      1 NMatT0=    0 NMatD0=    1 NMtDS0=    0 NMtDT0=    0
 Petite list used in FoFCou.
 Requested convergence on RMS density matrix=1.00D-08 within 128 cycles.
 Requested convergence on MAX density matrix=1.00D-06.
 Requested convergence on             energy=1.00D-06.
 No special actions if energy rises.
 SCF Done:  E(RB3LYP) =  -1186.05329399     A.U. after   10 cycles
            NFock= 10  Conv=0.23D-08     -V/T= 2.0067
 Calling FoFJK, ICntrl=      2127 FMM=F ISym2X=0 I1Cent= 0 IOpClX= 0 NMat=1 NMatS=1 NMatT=0.
 ***** Axes restored to original set *****
 -------------------------------------------------------------------
 Center     Atomic                   Forces (Hartrees/Bohr)
 Number     Number              X              Y              Z
 -------------------------------------------------------------------
      1       14          -0.000321754   -0.003540428   -0.003251728
      2        8           0.002651773    0.000902757   -0.000917721
      3        8           0.000496119    0.000811095    0.003822577
      4        8          -0.002970317   -0.000593298   -0.002582070
      5        8           0.002641610   -0.000092859    0.001168826
      6        1          -0.000223840   -0.001766957    0.000725125
      7        1           0.000731883    0.000695531    0.000889591
      8        1           0.000570667    0.000652754   -0.000568900
      9       14          -0.001666811    0.002822302    0.002051442
     10        8           0.000295001   -0.002827044   -0.002072779
     11        8           0.002071239    0.001020409    0.001221628
     12        8          -0.002546929    0.000630471    0.000590741
     13        8          -0.000529568    0.001047251    0.000535480
     14        1          -0.002122748    0.001450575   -0.000020656
     15        1           0.001682306   -0.000731853   -0.000675087
     16        1          -0.000211575    0.001329113    0.001161800
     17        1          -0.001972167   -0.001084671   -0.000788004
     18        1           0.001425111   -0.000725147   -0.001290264
 -------------------------------------------------------------------
 Cartesian Forces:  Max     0.003822577 RMS     0.001637219

 GradGradGradGradGradGradGradGradGradGradGradGradGradGradGradGradGradGrad
 Berny optimization.
 Using GEDIIS/GDIIS optimizer.
 FormGI is forming the generalized inverse of G from B-inverse, IUseBI=4.
 Internal  Forces:  Max     0.005483097 RMS     0.001797199
 Search for a local minimum.
 Step number   2 out of a maximum of   81
 All quantities printed in internal units (Hartrees-Bohrs-Radians)
 Mixed Optimization -- RFO/linear search
 Update second derivatives using D2CorX and points    1    2
 DE= -5.13D-03 DEPred=-4.12D-03 R= 1.24D+00
 TightC=F SS=  1.41D+00  RLast= 2.05D-01 DXNew= 5.0454D-01 6.1502D-01
 Trust test= 1.24D+00 RLast= 2.05D-01 DXMaxT set to 5.05D-01
 ITU=  1  0
 Use linear search instead of GDIIS.
     Eigenvalues ---    0.00382   0.01860   0.03391   0.03709   0.03741
     Eigenvalues ---    0.03804   0.03844   0.03851   0.03859   0.03868
     Eigenvalues ---    0.03876   0.07095   0.10633   0.10910   0.11138
     Eigenvalues ---    0.12050   0.12399   0.12421   0.13001   0.14911
     Eigenvalues ---    0.16000   0.16000   0.16000   0.16000   0.16000
     Eigenvalues ---    0.16301   0.17864   0.20611   0.20673   0.20857
     Eigenvalues ---    0.21267   0.41361   0.43800   0.44546   0.44680
     Eigenvalues ---    0.44759   0.44930   0.44986   0.49174   0.52421
     Eigenvalues ---    0.53111   0.53271   0.53319   0.53396   0.53461
     Eigenvalues ---    0.53772   0.540011000.000001000.000001000.00000
     Eigenvalues --- 1000.000001000.000001000.000001000.000001000.00000
     Eigenvalues --- 1000.000001000.000001000.000001000.000001000.00000
     Eigenvalues --- 1000.000001000.000001000.000001000.000001000.00000
     Eigenvalues --- 1000.000001000.000001000.000001000.000001000.00000
     Eigenvalues --- 1000.00000
 RFO step:  Lambda=-1.44594939D-03 EMin= 3.81742295D-03
 Quartic linear search produced a step of  0.48164.
 Iteration  1 RMS(Cart)=  0.10507654 RMS(Int)=  0.00318504
 Iteration  2 RMS(Cart)=  0.00583804 RMS(Int)=  0.00032419
 Iteration  3 RMS(Cart)=  0.00001613 RMS(Int)=  0.00032411
 Iteration  4 RMS(Cart)=  0.00000001 RMS(Int)=  0.00032411
 Iteration  1 RMS(Cart)=  0.00009823 RMS(Int)=  0.00001125
 Iteration  2 RMS(Cart)=  0.00000742 RMS(Int)=  0.00001163
 Iteration  3 RMS(Cart)=  0.00000056 RMS(Int)=  0.00001169
 Variable       Old X    -DE/DX   Delta X   Delta X   Delta X     New X
                                 (Linear)    (Quad)   (Total)
    R1        3.14018   0.00171   0.01486  -0.00358   0.01156   3.15175
    R2        3.11457   0.00027   0.01199  -0.00717   0.00482   3.11939
    R3        3.11736  -0.00028   0.01256  -0.00935   0.00321   3.12057
    R4        3.11043  -0.00068   0.00990  -0.00888   0.00102   3.11145
    R5        9.63761  -0.00407   0.00000   0.00000  -0.00000   9.63760
    R6        4.65852  -0.00221  -0.03224  -0.11318  -0.14512   4.51340
    R7        1.82654  -0.00067  -0.00438   0.00108  -0.00329   1.82325
    R8        1.82316  -0.00039  -0.00389   0.00155  -0.00234   1.82082
    R9        1.82463  -0.00086  -0.00392   0.00026  -0.00365   1.82098
   R10        1.82731  -0.00038  -0.00383   0.00151  -0.00232   1.82499
   R11        3.12249  -0.00051   0.01359  -0.01082   0.00276   3.12525
   R12        3.12535   0.00031   0.01448  -0.00869   0.00578   3.13113
   R13        3.10718   0.00010   0.00668  -0.00416   0.00252   3.10971
   R14        3.13529   0.00155   0.01665  -0.00550   0.01142   3.14671
   R15        1.82421  -0.00136  -0.00380  -0.00120  -0.00500   1.81921
   R16        1.82625  -0.00099  -0.00344  -0.00041  -0.00385   1.82240
   R17        1.82380  -0.00102  -0.00250  -0.00111  -0.00361   1.82019
   R18        1.82825  -0.00019  -0.00476   0.00312  -0.00138   1.82687
    A1        1.86500  -0.00278  -0.01698  -0.01018  -0.02650   1.83850
    A2        1.96092   0.00548   0.02387   0.02126   0.04511   2.00603
    A3        1.86989  -0.00379  -0.01779  -0.01826  -0.03535   1.83454
    A4        1.89661  -0.00224  -0.00645  -0.00997  -0.01601   1.88059
    A5        1.98718   0.00548   0.02793   0.02487   0.05241   2.03959
    A6        1.88589  -0.00182  -0.00976  -0.00635  -0.01560   1.87029
    A7        2.05864  -0.00459  -0.01185  -0.03631  -0.04798   2.01066
    A8        1.98822   0.00347   0.01386   0.01581   0.02894   2.01717
    A9        2.07761   0.00030  -0.00464  -0.00069  -0.00564   2.07197
   A10        2.02085   0.00174   0.01356   0.00687   0.02043   2.04127
   A11        2.02003   0.00126   0.01627   0.00067   0.01693   2.03697
   A12        2.04110   0.00195   0.01902   0.00512   0.02414   2.06523
   A13        1.92920   0.00045   0.00601   0.00038   0.00619   1.93539
   A14        1.88922  -0.00075  -0.00959  -0.00122  -0.01078   1.87844
   A15        1.92311   0.00045   0.00691   0.00036   0.00710   1.93022
   A16        1.90760  -0.00031  -0.00550  -0.00027  -0.00573   1.90187
   A17        1.90186   0.00021   0.00593  -0.00010   0.00568   1.90754
   A18        1.91274  -0.00007  -0.00375   0.00084  -0.00286   1.90988
   A19        2.02138   0.00205   0.02282   0.00353   0.02636   2.04774
   A20        2.02078   0.00225   0.01815   0.00848   0.02662   2.04740
   A21        2.02563   0.00304   0.01936   0.01490   0.03426   2.05989
   A22        1.98795   0.00179   0.01157   0.01201   0.02408   2.01203
   A23        2.41433   0.00043   0.00176   0.00398   0.00639   2.42072
    D1       -1.69585  -0.00080  -0.00184   0.01102   0.00870  -1.68715
    D2        0.86570  -0.00192  -0.00732  -0.02313  -0.03120   0.83450
    D3        2.50879   0.00056   0.00259   0.01750   0.02015   2.52895
    D4       -1.21284  -0.00056  -0.00289  -0.01665  -0.01975  -1.23259
    D5        0.44026   0.00204   0.01149   0.02467   0.03698   0.47724
    D6        3.00181   0.00092   0.00601  -0.00948  -0.00292   2.99889
    D7       -2.71415  -0.00241  -0.01101  -0.01158  -0.02318  -2.73733
    D8       -0.59438   0.00128   0.00400   0.00232   0.00644  -0.58794
    D9        1.50822   0.00094   0.00527   0.00335   0.00909   1.51731
   D10       -1.73575   0.00076   0.00473   0.01576   0.02054  -1.71521
   D11        2.48749   0.00234   0.01524   0.02201   0.03717   2.52466
   D12        0.32333  -0.00184  -0.00892   0.00173  -0.00717   0.31617
   D13       -0.65821   0.00288   0.01699   0.03333   0.05114  -0.60707
   D14        1.39980   0.00012   0.00126   0.02310   0.02386   1.42366
   D15       -2.77478  -0.00048   0.00431   0.02194   0.02594  -2.74884
   D16       -1.00466  -0.00012  -0.01533  -0.05947  -0.07449  -1.07915
   D17        2.74713   0.00011  -0.01536  -0.02820  -0.04425   2.70288
   D18        2.26080  -0.00037  -0.00681   0.00251  -0.00439   2.25641
   D19        0.17210   0.00020   0.00227   0.00336   0.00562   0.17772
   D20       -1.91926   0.00048   0.00858   0.00287   0.01155  -1.90772
   D21        1.15666   0.00159   0.02042   0.02971   0.05021   1.20687
   D22       -3.04893   0.00075   0.00888   0.02828   0.03715  -3.01178
   D23       -0.95911   0.00061   0.00464   0.02908   0.03365  -0.92547
   D24        3.01066  -0.00006  -0.00088  -0.00071  -0.00156   3.00910
   D25        0.90844   0.00002   0.00101  -0.00029   0.00067   0.90911
   D26       -1.17466  -0.00001  -0.00060  -0.00052  -0.00109  -1.17575
   D27       -1.00946  -0.00022  -0.00315   0.00873   0.00550  -1.00395
   D28        1.11003   0.00076   0.01202   0.00938   0.02146   1.13149
   D29       -3.08652   0.00047   0.00669   0.00950   0.01620  -3.07033
   D30       -1.38008  -0.00004   0.00424  -0.04630  -0.04264  -1.42272
         Item               Value     Threshold  Converged?
 Maximum Force            0.005483     0.000450     NO 
 RMS     Force            0.001738     0.000300     NO 
 Maximum Displacement     0.278400     0.001800     NO 
 RMS     Displacement     0.107950     0.001200     NO 
 Predicted change in Energy=-1.221304D-03
 GradGradGradGradGradGradGradGradGradGradGradGradGradGradGradGradGradGrad

                          Input orientation:                          
 ---------------------------------------------------------------------
 Center     Atomic      Atomic             Coordinates (Angstroms)
 Number     Number       Type             X           Y           Z
 ---------------------------------------------------------------------
      1         14           0       -7.029807    0.271583   -0.048829
      2          8           0       -5.398082    0.067395    0.229461
      3          8           0       -7.199312    1.845388   -0.517080
      4          8           0       -7.996178    0.031405    1.268494
      5          8           0       -7.423766   -0.880798   -1.156896
      6          1           0       -6.770941   -1.111368   -1.830182
      7          1           0       -8.418541   -0.831399    1.344280
      8          1           0       -8.066544    2.246785   -0.393819
      9         14           0       -3.317236   -2.955603   -1.394968
     10          8           0       -1.754706   -2.519338   -1.073610
     11          8           0       -4.099472   -3.414966   -0.008432
     12          8           0       -3.274849   -4.231733   -2.433069
     13          8           0       -4.144045   -1.694428   -2.101084
     14          1           0       -4.166913   -0.876274   -1.586609
     15          1           0       -4.103771   -4.679123   -2.634304
     16          1           0       -1.064210   -2.921802   -1.610264
     17          1           0       -4.290229   -2.727485    0.640412
     18          1           0       -4.979139    0.748683    0.769101
 ---------------------------------------------------------------------
                    Distance matrix (angstroms):
                    1          2          3          4          5
     1  Si   0.000000
     2  O    1.667832   0.000000
     3  O    1.650712   2.638752   0.000000
     4  O    1.651332   2.798390   2.667172   0.000000
     5  O    1.646511   2.631435   2.809241   2.653730   0.000000
     6  H    2.269975   2.741597   3.263456   3.522631   0.965742
     7  H    2.255195   3.342727   3.480858   0.963620   2.692192
     8  H    2.257269   3.501272   0.963537   2.770586   3.282868
     9  Si   5.100001   4.013379   6.236242   6.157008   4.607070
    10  O    6.055254   4.654393   7.000306   7.137767   5.901694
    11  O    4.709473   3.724220   6.126912   5.356522   4.334963
    12  O    6.329626   5.484495   7.483570   7.359814   5.483694
    13  O    4.050256   3.179320   4.937006   5.401064   3.508570
    14  H    3.446521   2.388389   4.212693   4.861972   3.285083
    15  H    6.305225   5.692612   7.525574   7.250637   5.256651
    16  H    6.944360   5.576946   7.846058   8.066031   6.694415
    17  H    4.120042   3.034398   5.541996   4.662619   4.057046
    18  H    2.258733   0.964820   2.790375   3.141084   3.512958
                    6          7          8          9         10
     6  H    0.000000
     7  H    3.587503   0.000000
     8  H    3.875425   3.552479   0.000000
     9  Si   3.939377   6.167580   7.114989   0.000000
    10  O    5.264731   7.287114   7.938346   1.653813   0.000000
    11  O    3.970148   5.211430   6.923987   1.656921   2.726661
    12  O    4.724702   7.231059   8.312044   1.645587   2.662942
    13  O    2.704428   5.557578   5.816693   1.665165   2.728574
    14  H    2.625940   5.164152   5.136474   2.254393   2.963371
    15  H    4.526509   7.017931   8.288037   2.263871   3.552259
    16  H    5.991061   8.196664   8.787872   2.263541   0.962683
    17  H    3.856112   4.597122   6.330367   2.267493   3.067584
    18  H    3.664235   3.828443   3.623363   4.600744   4.946969
                   11         12         13         14         15
    11  O    0.000000
    12  O    2.688118   0.000000
    13  O    2.709507   2.702523   0.000000
    14  H    2.990008   3.573707   0.966739   0.000000
    15  H    2.914329   0.963205   3.032219   3.945037   0.000000
    16  H    3.467259   2.698120   3.351527   3.716383   3.657289
    17  H    0.964374   3.569320   2.933322   2.898588   3.816729
    18  H    4.326007   6.161415   3.860587   2.974822   6.466105
                   16         17         18
    16  H    0.000000
    17  H    3.938337   0.000000
    18  H    5.870306   3.546110   0.000000
 Stoichiometry    H8O8Si2
 Framework group  C1[X(H8O8Si2)]
 Deg. of freedom    48
 Full point group                 C1      NOp   1
 Largest Abelian subgroup         C1      NOp   1
 Largest concise Abelian subgroup C1      NOp   1
                         Standard orientation:                         
 ---------------------------------------------------------------------
 Center     Atomic      Atomic             Coordinates (Angstroms)
 Number     Number       Type             X           Y           Z
 ---------------------------------------------------------------------
      1         14           0       -2.550684   -0.005571   -0.019094
      2          8           0       -1.312023    0.902071    0.631728
      3          8           0       -3.543108    1.081831   -0.765755
      4          8           0       -3.455586   -0.839581    1.082033
      5          8           0       -1.808743   -1.117674   -0.980213
      6          1           0       -1.007353   -0.854896   -1.450722
      7          1           0       -3.236784   -1.769687    1.206903
      8          1           0       -4.459863    0.816796   -0.898873
      9         14           0        2.549221    0.000170    0.011583
     10          8           0        3.320849    1.346524    0.583440
     11          8           0        1.897990   -0.880422    1.254903
     12          8           0        3.667344   -0.921466   -0.768381
     13          8           0        1.341575    0.425124   -1.053208
     14          1           0        0.668598    1.021188   -0.697690
     15          1           0        3.402913   -1.798629   -1.065747
     16          1           0        4.221482    1.501715    0.280892
     17          1           0        1.149563   -0.495075    1.725414
     18          1           0       -1.584467    1.682949    1.128599
 ---------------------------------------------------------------------
 Rotational constants (GHZ):           1.9959299           0.3375949           0.3337718
 Standard basis: 6-31+G(d,p) (6D, 7F)
 There are   238 symmetry adapted cartesian basis functions of A   symmetry.
 There are   238 symmetry adapted basis functions of A   symmetry.
   238 basis functions,   424 primitive gaussians,   238 cartesian basis functions
    50 alpha electrons       50 beta electrons
       nuclear repulsion energy       793.0835718668 Hartrees.
 NAtoms=   18 NActive=   18 NUniq=   18 SFac= 1.00D+00 NAtFMM=   60 NAOKFM=F Big=F
 Integral buffers will be    131072 words long.
 Raffenetti 2 integral format.
 Two-electron integral symmetry is turned on.
 Nuclear repulsion after empirical dispersion term =      793.0710016398 Hartrees.
 One-electron integrals computed using PRISM.
 NBasis=   238 RedAO= T EigKep=  2.77D-04  NBF=   238
 NBsUse=   238 1.00D-06 EigRej= -1.00D+00 NBFU=   238
 Initial guess from the checkpoint file:  "/localscratch/sarashs.36560089.0/Gau-19515.chk"
 B after Tr=    -0.000000   -0.000000   -0.000000
         Rot=    0.999300   -0.037405   -0.000481   -0.000439 Ang=  -4.29 deg.
 ExpMin= 3.31D-02 ExpMax= 1.61D+04 ExpMxC= 2.43D+03 IAcc=3 IRadAn=         5 AccDes= 0.00D+00
 Harris functional with IExCor=  402 and IRadAn=       5 diagonalized for initial guess.
 HarFok:  IExCor=  402 AccDes= 0.00D+00 IRadAn=         5 IDoV= 1 UseB2=F ITyADJ=14
 ICtDFT=  3500011 ScaDFX=  1.000000  1.000000  1.000000  1.000000
 FoFCou: FMM=F IPFlag=           0 FMFlag=      100000 FMFlg1=           0
         NFxFlg=           0 DoJE=T BraDBF=F KetDBF=T FulRan=T
         wScrn=  0.000000 ICntrl=       500 IOpCl=  0 I1Cent=   200000004 NGrid=           0
         NMat0=    1 NMatS0=      1 NMatT0=    0 NMatD0=    1 NMtDS0=    0 NMtDT0=    0
 Petite list used in FoFCou.
 Requested convergence on RMS density matrix=1.00D-08 within 128 cycles.
 Requested convergence on MAX density matrix=1.00D-06.
 Requested convergence on             energy=1.00D-06.
 No special actions if energy rises.
 SCF Done:  E(RB3LYP) =  -1186.05504951     A.U. after   10 cycles
            NFock= 10  Conv=0.35D-08     -V/T= 2.0068
 Calling FoFJK, ICntrl=      2127 FMM=F ISym2X=0 I1Cent= 0 IOpClX= 0 NMat=1 NMatS=1 NMatT=0.
 ***** Axes restored to original set *****
 -------------------------------------------------------------------
 Center     Atomic                   Forces (Hartrees/Bohr)
 Number     Number              X              Y              Z
 -------------------------------------------------------------------
      1       14           0.003248071   -0.003973909   -0.002771432
      2        8          -0.000471918   -0.000801232    0.000363811
      3        8           0.000613182   -0.002246287    0.001637650
      4        8           0.000507328    0.002105945   -0.002492599
      5        8          -0.001191003    0.002841218    0.001366325
      6        1           0.001842110   -0.001333450    0.000245494
      7        1           0.000688117   -0.001066251    0.000151403
      8        1          -0.000564077    0.000133383   -0.000006122
      9       14          -0.002781003    0.002564062    0.001268012
     10        8          -0.003425771   -0.000463000    0.000300879
     11        8           0.003340190    0.000487382   -0.001892470
     12        8          -0.000403626    0.001662133    0.000980376
     13        8           0.000536391   -0.002058823    0.000944626
     14        1          -0.001239203    0.001278534    0.001746023
     15        1           0.000027192   -0.000165299   -0.000081421
     16        1           0.000245492   -0.000268201   -0.000618680
     17        1          -0.001548106    0.000433880   -0.000539730
     18        1           0.000576634    0.000869916   -0.000602146
 -------------------------------------------------------------------
 Cartesian Forces:  Max     0.003973909 RMS     0.001586534

 GradGradGradGradGradGradGradGradGradGradGradGradGradGradGradGradGradGrad
 Berny optimization.
 Using GEDIIS/GDIIS optimizer.
 FormGI is forming the generalized inverse of G from B-inverse, IUseBI=4.
 Internal  Forces:  Max     0.004749136 RMS     0.001366183
 Search for a local minimum.
 Step number   3 out of a maximum of   81
 All quantities printed in internal units (Hartrees-Bohrs-Radians)
 Mixed Optimization -- RFO/linear search
 Update second derivatives using D2CorX and points    1    2    3
 DE= -1.76D-03 DEPred=-1.22D-03 R= 1.44D+00
 TightC=F SS=  1.41D+00  RLast= 2.48D-01 DXNew= 8.4853D-01 7.4432D-01
 Trust test= 1.44D+00 RLast= 2.48D-01 DXMaxT set to 7.44D-01
 ITU=  1  1  0
 Use linear search instead of GDIIS.
     Eigenvalues ---    0.00414   0.01203   0.02957   0.03667   0.03740
     Eigenvalues ---    0.03805   0.03844   0.03851   0.03858   0.03868
     Eigenvalues ---    0.03876   0.06892   0.10473   0.10698   0.11156
     Eigenvalues ---    0.11906   0.12351   0.12475   0.12559   0.14673
     Eigenvalues ---    0.16000   0.16000   0.16000   0.16000   0.16018
     Eigenvalues ---    0.16957   0.18386   0.20656   0.20867   0.20971
     Eigenvalues ---    0.21930   0.41341   0.43773   0.44562   0.44681
     Eigenvalues ---    0.44783   0.44934   0.45001   0.50573   0.52659
     Eigenvalues ---    0.53106   0.53259   0.53366   0.53456   0.53560
     Eigenvalues ---    0.53797   0.627381000.000001000.000001000.00000
     Eigenvalues --- 1000.000001000.000001000.000001000.000001000.00000
     Eigenvalues --- 1000.000001000.000001000.000001000.000001000.00000
     Eigenvalues --- 1000.000001000.000001000.000001000.000001000.00000
     Eigenvalues --- 1000.000001000.000001000.000001000.000001000.00000
     Eigenvalues --- 1000.00000
 RFO step:  Lambda=-1.14160984D-03 EMin= 4.14249099D-03
 Quartic linear search produced a step of  0.61703.
 Iteration  1 RMS(Cart)=  0.15788222 RMS(Int)=  0.00654155
 Iteration  2 RMS(Cart)=  0.01354947 RMS(Int)=  0.00110219
 Iteration  3 RMS(Cart)=  0.00011437 RMS(Int)=  0.00110152
 Iteration  4 RMS(Cart)=  0.00000046 RMS(Int)=  0.00110152
 Iteration  1 RMS(Cart)=  0.00070401 RMS(Int)=  0.00008577
 Iteration  2 RMS(Cart)=  0.00005852 RMS(Int)=  0.00008897
 Iteration  3 RMS(Cart)=  0.00000487 RMS(Int)=  0.00008952
 Iteration  4 RMS(Cart)=  0.00000040 RMS(Int)=  0.00008957
 Variable       Old X    -DE/DX   Delta X   Delta X   Delta X     New X
                                 (Linear)    (Quad)   (Total)
    R1        3.15175  -0.00161   0.00714   0.00081   0.00990   3.16164
    R2        3.11939  -0.00248   0.00298  -0.00286   0.00011   3.11951
    R3        3.12057  -0.00272   0.00198  -0.00306  -0.00108   3.11949
    R4        3.11145  -0.00230   0.00063  -0.00260  -0.00197   3.10949
    R5        9.63760  -0.00475  -0.00000   0.00000   0.00000   9.63760
    R6        4.51340  -0.00176  -0.08954  -0.09281  -0.18008   4.33332
    R7        1.82325   0.00053  -0.00203  -0.00016  -0.00219   1.82106
    R8        1.82082   0.00056  -0.00145  -0.00001  -0.00145   1.81937
    R9        1.82098   0.00067  -0.00225   0.00052  -0.00174   1.81924
   R10        1.82499   0.00139  -0.00143   0.00233   0.00090   1.82589
   R11        3.12525  -0.00326   0.00171  -0.00427  -0.00257   3.12269
   R12        3.13113  -0.00314   0.00357  -0.00401  -0.00045   3.13068
   R13        3.10971  -0.00174   0.00156  -0.00276  -0.00120   3.10851
   R14        3.14671  -0.00226   0.00705  -0.00035   0.00890   3.15561
   R15        1.81921   0.00063  -0.00309   0.00074  -0.00234   1.81687
   R16        1.82240   0.00025  -0.00238  -0.00034  -0.00271   1.81969
   R17        1.82019   0.00007  -0.00223  -0.00040  -0.00263   1.81757
   R18        1.82687   0.00115  -0.00085   0.00167   0.00266   1.82953
    A1        1.83850   0.00006  -0.01635  -0.00350  -0.01920   1.81930
    A2        2.00603   0.00118   0.02784   0.01229   0.04010   2.04613
    A3        1.83454  -0.00131  -0.02181  -0.01212  -0.03328   1.80126
    A4        1.88059  -0.00097  -0.00988  -0.00681  -0.01641   1.86419
    A5        2.03959   0.00104   0.03234   0.01255   0.04455   2.08414
    A6        1.87029   0.00013  -0.00962  -0.00105  -0.01016   1.86013
    A7        2.01066  -0.00457  -0.02960  -0.04262  -0.06958   1.94109
    A8        2.01717   0.00203   0.01786   0.00953   0.02385   2.04102
    A9        2.07197   0.00138  -0.00348   0.00307  -0.00285   2.06912
   A10        2.04127  -0.00014   0.01260   0.00193   0.01454   2.05581
   A11        2.03697  -0.00087   0.01045  -0.00261   0.00784   2.04481
   A12        2.06523  -0.00069   0.01489  -0.00093   0.01397   2.07920
   A13        1.93539  -0.00006   0.00382   0.00116   0.00491   1.94030
   A14        1.87844   0.00028  -0.00665  -0.00030  -0.00694   1.87150
   A15        1.93022  -0.00034   0.00438  -0.00117   0.00314   1.93336
   A16        1.90187   0.00008  -0.00354  -0.00018  -0.00370   1.89817
   A17        1.90754  -0.00001   0.00350   0.00115   0.00460   1.91214
   A18        1.90988   0.00006  -0.00176  -0.00070  -0.00244   1.90744
   A19        2.04774  -0.00051   0.01626   0.00231   0.01857   2.06631
   A20        2.04740   0.00009   0.01643   0.00526   0.02168   2.06909
   A21        2.05989   0.00030   0.02114   0.00640   0.02754   2.08743
   A22        2.01203   0.00159   0.01485   0.01948   0.03728   2.04931
   A23        2.42072   0.00170   0.00394   0.01278   0.02106   2.44178
    D1       -1.68715   0.00030   0.00537   0.02020   0.02515  -1.66201
    D2        0.83450  -0.00092  -0.01925  -0.02323  -0.04306   0.79144
    D3        2.52895   0.00079   0.01244   0.02408   0.03648   2.56543
    D4       -1.23259  -0.00043  -0.01218  -0.01935  -0.03173  -1.26432
    D5        0.47724   0.00086   0.02282   0.02671   0.05021   0.52746
    D6        2.99889  -0.00036  -0.00180  -0.01673  -0.01799   2.98090
    D7       -2.73733  -0.00071  -0.01430  -0.00868  -0.02345  -2.76078
    D8       -0.58794   0.00020   0.00398   0.00020   0.00431  -0.58363
    D9        1.51731   0.00031   0.00561   0.00196   0.00791   1.52522
   D10       -1.71521   0.00086   0.01268   0.02081   0.03348  -1.68173
   D11        2.52466   0.00074   0.02293   0.02253   0.04543   2.57008
   D12        0.31617  -0.00000  -0.00442   0.01211   0.00774   0.32391
   D13       -0.60707   0.00128   0.03155   0.03711   0.06939  -0.53768
   D14        1.42366   0.00102   0.01472   0.03120   0.04542   1.46908
   D15       -2.74884   0.00055   0.01600   0.02984   0.04562  -2.70322
   D16       -1.07915  -0.00015  -0.04596   0.09406   0.04766  -1.03149
   D17        2.70288   0.00097  -0.02730   0.13725   0.10768   2.81057
   D18        2.25641   0.00028  -0.00271   0.00332   0.00058   2.25699
   D19        0.17772   0.00004   0.00347   0.00306   0.00653   0.18424
   D20       -1.90772  -0.00001   0.00713   0.00476   0.01192  -1.89579
   D21        1.20687   0.00063   0.03098   0.03218   0.06320   1.27007
   D22       -3.01178   0.00099   0.02292   0.03240   0.05532  -2.95647
   D23       -0.92547   0.00110   0.02076   0.03213   0.05286  -0.87261
   D24        3.00910   0.00009  -0.00096   0.00020  -0.00075   3.00835
   D25        0.90911  -0.00005   0.00041  -0.00092  -0.00053   0.90859
   D26       -1.17575  -0.00012  -0.00067  -0.00179  -0.00245  -1.17820
   D27       -1.00395   0.00058   0.00340   0.01512   0.01849  -0.98546
   D28        1.13149   0.00028   0.01324   0.01658   0.02985   1.16134
   D29       -3.07033   0.00041   0.00999   0.01663   0.02662  -3.04370
   D30       -1.42272  -0.00104  -0.02631  -0.12935  -0.15936  -1.58209
         Item               Value     Threshold  Converged?
 Maximum Force            0.004085     0.000450     NO 
 RMS     Force            0.001243     0.000300     NO 
 Maximum Displacement     0.380456     0.001800     NO 
 RMS     Displacement     0.165694     0.001200     NO 
 Predicted change in Energy=-8.906366D-04
 GradGradGradGradGradGradGradGradGradGradGradGradGradGradGradGradGradGrad

                          Input orientation:                          
 ---------------------------------------------------------------------
 Center     Atomic      Atomic             Coordinates (Angstroms)
 Number     Number       Type             X           Y           Z
 ---------------------------------------------------------------------
      1         14           0       -7.034791    0.280152   -0.055820
      2          8           0       -5.421682    0.082338    0.341563
      3          8           0       -7.130964    1.835477   -0.600579
      4          8           0       -8.136966    0.132621    1.164206
      5          8           0       -7.319872   -0.960379   -1.098595
      6          1           0       -6.600131   -1.278226   -1.659423
      7          1           0       -8.563949   -0.723765    1.269491
      8          1           0       -7.992307    2.265197   -0.581819
      9         14           0       -3.323684   -2.954075   -1.389039
     10          8           0       -1.748593   -2.496399   -1.188465
     11          8           0       -3.959466   -3.544754    0.022161
     12          8           0       -3.343660   -4.149139   -2.519209
     13          8           0       -4.249255   -1.671931   -1.925607
     14          1           0       -4.251719   -0.867603   -1.386757
     15          1           0       -4.161614   -4.623919   -2.694202
     16          1           0       -1.094204   -2.824821   -1.811593
     17          1           0       -4.159103   -2.925231    0.731798
     18          1           0       -5.005779    0.791376    0.844488
 ---------------------------------------------------------------------
                    Distance matrix (angstroms):
[...]
 GradGradGradGradGradGradGradGradGradGradGradGradGradGradGradGradGradGrad

                          Input orientation:                          
 ---------------------------------------------------------------------
 Center     Atomic      Atomic             Coordinates (Angstroms)
 Number     Number       Type             X           Y           Z
 ---------------------------------------------------------------------
      1         14           0       -7.042366    0.362521   -0.163298
      2          8           0       -5.382514    0.549522   -0.142429
      3          8           0       -7.552030    1.212167   -1.480842
      4          8           0       -7.835618    1.011679    1.130115
      5          8           0       -7.299121   -1.254918   -0.160941
      6          1           0       -6.558184   -1.807409   -0.469895
      7          1           0       -7.927320    0.441088    1.901887
      8          1           0       -8.462222    1.529036   -1.465158
      9         14           0       -3.375607   -3.009578   -1.255926
     10          8           0       -2.050739   -2.429959   -0.465023
     11          8           0       -3.797710   -4.570155   -0.921282
     12          8           0       -3.018454   -2.968986   -2.865413
     13          8           0       -4.645753   -2.071066   -0.774588
     14          1           0       -4.497030   -1.127584   -0.575211
     15          1           0       -3.523116   -3.559028   -3.436723
     16          1           0       -1.193524   -2.624992   -0.860472
     17          1           0       -4.287352   -4.724411   -0.105526
     18          1           0       -5.049082    1.408991   -0.426676
 ---------------------------------------------------------------------
                    Distance matrix (angstroms):
                    1          2          3          4          5
     1  Si   0.000000
     2  O    1.670483   0.000000
     3  O    1.648508   2.633866   0.000000
     4  O    1.650324   2.801906   2.633955   0.000000
     5  O    1.637693   2.632438   2.809379   2.663103   0.000000
     6  H    2.244333   2.654159   3.335803   3.484125   0.974519
     7  H    2.248178   3.266041   3.489737   0.964165   2.743416
     8  H    2.252018   3.491942   0.963899   2.719510   3.286972
     9  Si   5.100001   4.234943   5.942746   6.461841   4.435288
    10  O    5.727593   4.481305   6.675416   6.917670   5.386901
    11  O    5.952615   5.415654   6.916883   7.188171   4.881475
    12  O    5.881516   5.038186   6.320790   7.417210   5.345681
    13  O    3.469838   2.794624   4.441268   4.827675   2.843066
    14  H    2.978057   1.945268   3.953180   4.316336   2.835410
    15  H    6.203142   5.584793   6.543845   7.768207   5.504351
    16  H    6.604562   5.304786   7.452466   7.829765   6.296408
    17  H    5.785354   5.386567   6.913217   6.857093   4.594693
    18  H    2.266639   0.964707   2.723005   3.216557   3.497099
                    6          7          8          9         10
     6  H    0.000000
     7  H    3.543392   0.000000
     8  H    3.968347   3.578651   0.000000
     9  Si   3.491683   6.526635   6.820296   0.000000
    10  O    4.550237   6.955528   7.601383   1.648260   0.000000
    11  O    3.931505   7.080715   7.697636   1.650927   2.800093
    12  O    4.429160   7.645438   7.199133   1.649138   2.643652
    13  O    1.954417   4.923730   5.291791   1.650988   2.637941
    14  H    2.172927   4.512609   4.855140   2.294092   2.773564
    15  H    4.591500   7.993666   7.360042   2.253781   3.503383
    16  H    5.440641   7.897815   8.393781   2.250728   0.963969
    17  H    3.714612   6.630343   7.640925   2.257288   3.224311
    18  H    3.553096   3.826656   3.569647   4.797074   4.871249
                   11         12         13         14         15
    11  O    0.000000
    12  O    2.636404   0.000000
    13  O    2.643131   2.797483   0.000000
    14  H    3.529887   3.289676   0.975719   0.000000
    15  H    2.724926   0.963965   3.249816   3.879262   0.000000
    16  H    3.251021   2.732854   3.497441   3.638235   3.596734
    17  H    0.963848   3.508361   2.759771   3.633418   3.610962
    18  H    6.128683   5.407177   3.520584   2.600200   6.005844
                   16         17         18
    16  H    0.000000
    17  H    3.814351   0.000000
    18  H    5.597010   6.188860   0.000000
 Stoichiometry    H8O8Si2
 Framework group  C1[X(H8O8Si2)]
 Deg. of freedom    48
 Full point group                 C1      NOp   1
 Largest Abelian subgroup         C1      NOp   1
 Largest concise Abelian subgroup C1      NOp   1
                         Standard orientation:                         
 ---------------------------------------------------------------------
 Center     Atomic      Atomic             Coordinates (Angstroms)
 Number     Number       Type             X           Y           Z
 ---------------------------------------------------------------------
      1         14           0       -2.551521   -0.011478   -0.024164
      2          8           0       -1.492660    1.009712    0.767354
      3          8           0       -3.190308    0.895987   -1.243194
      4          8           0       -3.833684   -0.525834    0.878647
      5          8           0       -1.662905   -1.321886   -0.442767
      6          1           0       -0.698513   -1.189475   -0.488617
      7          1           0       -3.690338   -1.320543    1.405433
      8          1           0       -4.055089    0.627978   -1.573991
      9         14           0        2.548363   -0.005839    0.010037
     10          8           0        2.938023    0.787578    1.401228
     11          8           0        3.207987   -1.507238   -0.180371
     12          8           0        3.130459    0.908830   -1.232621
     13          8           0        0.911465   -0.218263    0.044734
     14          1           0        0.348277    0.459151    0.464206
     15          1           0        3.286266    0.455503   -2.068952
     16          1           0        3.767504    1.278692    1.399083
     17          1           0        2.780833   -2.233985    0.286943
     18          1           0       -1.761757    1.934035    0.829595
 ---------------------------------------------------------------------
 Rotational constants (GHZ):           1.9887794           0.3370979           0.3330323

 **********************************************************************

            Population analysis using the SCF Density.

 **********************************************************************

 Orbital symmetries:
       Occupied  (A) (A) (A) (A) (A) (A) (A) (A) (A) (A) (A) (A)
                 (A) (A) (A) (A) (A) (A) (A) (A) (A) (A) (A) (A)
                 (A) (A) (A) (A) (A) (A) (A) (A) (A) (A) (A) (A)
                 (A) (A) (A) (A) (A) (A) (A) (A) (A) (A) (A) (A)
                 (A) (A)
       Virtual   (A) (A) (A) (A) (A) (A) (A) (A) (A) (A) (A) (A)
                 (A) (A) (A) (A) (A) (A) (A) (A) (A) (A) (A) (A)
                 (A) (A) (A) (A) (A) (A) (A) (A) (A) (A) (A) (A)
                 (A) (A) (A) (A) (A) (A) (A) (A) (A) (A) (A) (A)
                 (A) (A) (A) (A) (A) (A) (A) (A) (A) (A) (A) (A)
                 (A) (A) (A) (A) (A) (A) (A) (A) (A) (A) (A) (A)
                 (A) (A) (A) (A) (A) (A) (A) (A) (A) (A) (A) (A)
                 (A) (A) (A) (A) (A) (A) (A) (A) (A) (A) (A) (A)
                 (A) (A) (A) (A) (A) (A) (A) (A) (A) (A) (A) (A)
                 (A) (A) (A) (A) (A) (A) (A) (A) (A) (A) (A) (A)
                 (A) (A) (A) (A) (A) (A) (A) (A) (A) (A) (A) (A)
                 (A) (A) (A) (A) (A) (A) (A) (A) (A) (A) (A) (A)
                 (A) (A) (A) (A) (A) (A) (A) (A) (A) (A) (A) (A)
                 (A) (A) (A) (A) (A) (A) (A) (A) (A) (A) (A) (A)
                 (A) (A) (A) (A) (A) (A) (A) (A) (A) (A) (A) (A)
                 (A) (A) (A) (A) (A) (A) (A) (A)
 The electronic state is 1-A.
 Alpha  occ. eigenvalues --  -66.22351 -66.22334 -19.18184 -19.17140 -19.17106
 Alpha  occ. eigenvalues --  -19.17062 -19.17038 -19.17004 -19.16988 -19.15818
 Alpha  occ. eigenvalues --   -5.35684  -5.35680  -3.71702  -3.71659  -3.71659
 Alpha  occ. eigenvalues --   -3.71653  -3.71652  -3.71623  -1.05087  -1.04617
 Alpha  occ. eigenvalues --   -1.01819  -1.01148  -1.01093  -1.00876  -1.00553
 Alpha  occ. eigenvalues --   -0.99863  -0.60193  -0.59807  -0.54797  -0.53793
 Alpha  occ. eigenvalues --   -0.53462  -0.53311  -0.52852  -0.52516  -0.41380
 Alpha  occ. eigenvalues --   -0.40999  -0.39714  -0.39266  -0.38547  -0.38456
 Alpha  occ. eigenvalues --   -0.38181  -0.37406  -0.36452  -0.36121  -0.35628
 Alpha  occ. eigenvalues --   -0.35432  -0.33509  -0.32956  -0.32753  -0.32282
 Alpha virt. eigenvalues --   -0.03083  -0.01523   0.00968   0.01621   0.02052
 Alpha virt. eigenvalues --    0.02475   0.03988   0.06812   0.10264   0.10274
 Alpha virt. eigenvalues --    0.10468   0.11762   0.12230   0.12514   0.13071
 Alpha virt. eigenvalues --    0.13982   0.14683   0.15043   0.15293   0.15444
 Alpha virt. eigenvalues --    0.15946   0.16206   0.16739   0.17126   0.17521
 Alpha virt. eigenvalues --    0.18641   0.19049   0.19391   0.20030   0.20126
 Alpha virt. eigenvalues --    0.21415   0.21927   0.22546   0.23058   0.23541
 Alpha virt. eigenvalues --    0.24527   0.25004   0.25443   0.26418   0.26768
 Alpha virt. eigenvalues --    0.27511   0.27826   0.29135   0.30150   0.30982
 Alpha virt. eigenvalues --    0.31787   0.32591   0.33533   0.34610   0.36375
 Alpha virt. eigenvalues --    0.36673   0.38298   0.39774   0.41327   0.42299
 Alpha virt. eigenvalues --    0.43135   0.44833   0.45565   0.47184   0.47970
 Alpha virt. eigenvalues --    0.50066   0.55658   0.60509   0.61432   0.62616
 Alpha virt. eigenvalues --    0.64252   0.67328   0.70818   0.93065   0.93806
 Alpha virt. eigenvalues --    0.94277   0.94818   0.95997   0.96363   0.99050
 Alpha virt. eigenvalues --    1.00034   1.00548   1.00868   1.02242   1.03501
 Alpha virt. eigenvalues --    1.08199   1.14518   1.15242   1.15468   1.16712
 Alpha virt. eigenvalues --    1.17515   1.18608   1.18664   1.18792   1.19391
 Alpha virt. eigenvalues --    1.20134   1.20850   1.22932   1.23088   1.23964
 Alpha virt. eigenvalues --    1.24549   1.25852   1.26122   1.26922   1.29189
 Alpha virt. eigenvalues --    1.30147   1.31742   1.32664   1.33405   1.35845
 Alpha virt. eigenvalues --    1.39014   1.47353   1.48633   1.49739   1.53577
 Alpha virt. eigenvalues --    1.54681   1.55619   1.56770   1.59365   1.59753
 Alpha virt. eigenvalues --    1.61243   1.61730   1.62889   1.63140   1.64896
 Alpha virt. eigenvalues --    1.66425   1.67442   1.70901   1.72328   1.73507
 Alpha virt. eigenvalues --    1.74536   1.76869   1.79333   1.87760   1.90135
 Alpha virt. eigenvalues --    1.90481   1.91313   1.93610   1.94283   2.03104
 Alpha virt. eigenvalues --    2.04717   2.11343   2.12277   2.33631   2.35875
 Alpha virt. eigenvalues --    2.37738   2.38236   2.38625   2.39342   2.39996
 Alpha virt. eigenvalues --    2.42700   2.45750   2.46507   2.58553   2.59370
 Alpha virt. eigenvalues --    2.59909   2.60052   2.61064   2.61301   2.62036
 Alpha virt. eigenvalues --    2.62918   2.64312   2.65086   2.65878   2.66097
 Alpha virt. eigenvalues --    2.67528   2.68383   2.69974   2.71819   2.78839
 Alpha virt. eigenvalues --    2.79976   2.80810   2.82904   2.84679   2.88426
 Alpha virt. eigenvalues --    3.00520   3.02617   3.40228   3.41764   3.42279
 Alpha virt. eigenvalues --    3.42357   3.45405   3.47038   3.52957   3.62394
 Alpha virt. eigenvalues --    4.12612   4.13137   4.17974   4.19762   4.20527
 Alpha virt. eigenvalues --    4.22479   4.30088   4.32569
          Condensed to atoms (all electrons):
               1          2          3          4          5          6
     1  Si  11.591207  -0.019905   0.100893   0.040123   0.171453   0.016877
     2  O   -0.019905   8.613300   0.055157   0.038523   0.018871  -0.003232
     3  O    0.100893   0.055157   8.462016   0.012706  -0.005132  -0.005165
     4  O    0.040123   0.038523   0.012706   8.499066   0.044876   0.004621
     5  O    0.171453   0.018871  -0.005132   0.044876   8.430683   0.222828
     6  H    0.016877  -0.003232  -0.005165   0.004621   0.222828   0.298249
     7  H    0.025547  -0.006132   0.006239   0.243840  -0.001865   0.000059
     8  H    0.022297   0.004591   0.245778  -0.001652  -0.005427   0.000006
     9  Si  -0.000765  -0.009660  -0.000529   0.000327  -0.004099   0.002995
    10  O   -0.000722  -0.001940   0.000028   0.000015  -0.000361   0.000206
    11  O   -0.000168   0.000969  -0.000039   0.000020   0.000565  -0.000736
    12  O   -0.002478  -0.000144   0.000155  -0.000011  -0.000058   0.000362
    13  O   -0.014115   0.005332   0.001920  -0.006228   0.013244   0.020119
    14  H    0.008727   0.006058  -0.001312   0.000672   0.000980   0.001218
    15  H   -0.000009  -0.000027  -0.000001   0.000000  -0.000021   0.000004
    16  H    0.000040   0.000061   0.000000  -0.000000   0.000006  -0.000002
    17  H   -0.000080   0.000018  -0.000000  -0.000000   0.000028  -0.000031
    18  H    0.032522   0.234750  -0.000565  -0.006099   0.005417   0.000109
               7          8          9         10         11         12
     1  Si   0.025547   0.022297  -0.000765  -0.000722  -0.000168  -0.002478
     2  O   -0.006132   0.004591  -0.009660  -0.001940   0.000969  -0.000144
     3  O    0.006239   0.245778  -0.000529   0.000028  -0.000039   0.000155
     4  O    0.243840  -0.001652   0.000327   0.000015   0.000020  -0.000011
     5  O   -0.001865  -0.005427  -0.004099  -0.000361   0.000565  -0.000058
     6  H    0.000059   0.000006   0.002995   0.000206  -0.000736   0.000362
     7  H    0.359245   0.000082  -0.000026  -0.000000   0.000000   0.000000
     8  H    0.000082   0.358836  -0.000019  -0.000000  -0.000000  -0.000000
     9  Si  -0.000026  -0.000019  11.942665  -0.037452  -0.014762   0.053094
    10  O   -0.000000  -0.000000  -0.037452   8.584458  -0.005123   0.040429
    11  O    0.000000  -0.000000  -0.014762  -0.005123   8.500377   0.044954
    12  O    0.000000  -0.000000   0.053094   0.040429   0.044954   8.487740
    13  O    0.000031   0.000073  -0.119225   0.105880   0.117179   0.026860
    14  H   -0.000000  -0.000004  -0.009911   0.001866   0.005888  -0.003796
    15  H   -0.000000  -0.000000   0.034663   0.006411  -0.003754   0.242861
    16  H   -0.000000   0.000000   0.029875   0.231614  -0.004881  -0.002584
    17  H   -0.000000   0.000000   0.021224  -0.007225   0.248597   0.006403
    18  H    0.000062   0.000063   0.000418  -0.000052   0.000003  -0.000000
              13         14         15         16         17         18
     1  Si  -0.014115   0.008727  -0.000009   0.000040  -0.000080   0.032522
     2  O    0.005332   0.006058  -0.000027   0.000061   0.000018   0.234750
     3  O    0.001920  -0.001312  -0.000001   0.000000  -0.000000  -0.000565
     4  O   -0.006228   0.000672   0.000000  -0.000000  -0.000000  -0.006099
     5  O    0.013244   0.000980  -0.000021   0.000006   0.000028   0.005417
     6  H    0.020119   0.001218   0.000004  -0.000002  -0.000031   0.000109
     7  H    0.000031  -0.000000  -0.000000  -0.000000  -0.000000   0.000062
     8  H    0.000073  -0.000004  -0.000000   0.000000   0.000000   0.000063
     9  Si  -0.119225  -0.009911   0.034663   0.029875   0.021224   0.000418
    10  O    0.105880   0.001866   0.006411   0.231614  -0.007225  -0.000052
    11  O    0.117179   0.005888  -0.003754  -0.004881   0.248597   0.000003
    12  O    0.026860  -0.003796   0.242861  -0.002584   0.006403  -0.000000
    13  O    8.611216   0.251703  -0.009697   0.004528  -0.002036   0.000069
    14  H    0.251703   0.298702   0.000069   0.000013   0.000059  -0.000348
    15  H   -0.009697   0.000069   0.358289   0.000070   0.000077  -0.000000
    16  H    0.004528   0.000013   0.000070   0.362362   0.000071   0.000000
    17  H   -0.002036   0.000059   0.000077   0.000071   0.361842  -0.000000
    18  H    0.000069  -0.000348  -0.000000   0.000000  -0.000000   0.344277
 Mulliken charges:
               1
     1  Si   2.028557
     2  O   -0.936591
     3  O   -0.872148
     4  O   -0.870799
     5  O   -0.891987
     6  H    0.441513
     7  H    0.372917
     8  H    0.375376
     9  Si   2.111188
    10  O   -0.918029
    11  O   -0.889088
    12  O   -0.893785
    13  O   -1.006852
    14  H    0.439416
    15  H    0.371064
    16  H    0.378825
    17  H    0.371051
    18  H    0.389373
 Sum of Mulliken charges =  -0.00000
 Mulliken charges with hydrogens summed into heavy atoms:
               1
     1  Si   2.028557
     2  O   -0.547218
     3  O   -0.496772
     4  O   -0.497883
     5  O   -0.450474
     9  Si   2.111188
    10  O   -0.539203
    11  O   -0.518038
    12  O   -0.522721
    13  O   -0.567436
 Electronic spatial extent (au):  <R**2>=           3237.0013
 Charge=              0.0000 electrons
 Dipole moment (field-independent basis, Debye):
    X=             -0.0668    Y=             -0.0599    Z=              0.3842  Tot=              0.3945
 Quadrupole moment (field-independent basis, Debye-Ang):
   XX=            -66.3344   YY=            -67.6153   ZZ=            -69.6752
   XY=              0.5875   XZ=              0.0595   YZ=             -0.5785
 Traceless Quadrupole moment (field-independent basis, Debye-Ang):
   XX=              1.5405   YY=              0.2597   ZZ=             -1.8002
   XY=              0.5875   XZ=              0.0595   YZ=             -0.5785
 Octapole moment (field-independent basis, Debye-Ang**2):
  XXX=             -3.1374  YYY=             -1.0507  ZZZ=            -15.4934  XYY=             -2.4279
  XXY=              9.3210  XXZ=             -9.4271  XZZ=              1.5598  YZZ=             -6.3145
  YYZ=             22.5851  XYZ=              7.8654
 Hexadecapole moment (field-independent basis, Debye-Ang**3):
 XXXX=          -3047.6577 YYYY=           -327.4777 ZZZZ=           -313.5853 XXXY=            115.5349
 XXXZ=            158.3293 YYYX=            -34.6834 YYYZ=              1.9390 ZZZX=            -52.1674
 ZZZY=            -10.0571 XXYY=           -564.3041 XXZZ=           -489.9967 YYZZ=           -116.0065
 XXYZ=             -6.0379 YYXZ=             -1.7683 ZZXY=             18.8461
 N-N= 7.976303437993D+02 E-N=-4.405204207004D+03  KE= 1.178186659894D+03
 1\1\GINC-GRA1101\FOpt\RB3LYP\6-31+G(d,p)\H8O8Si2\SARASHS\29-Jul-2020\0
 \\#n B3LYP/6-31+G(d,p) EmpiricalDispersion=GD3 Opt=modredundant\\Title
 \\0,1\Si,-7.0423661797,0.3625211455,-0.1632977627\O,-5.3825138253,0.54
 95218479,-0.1424292143\O,-7.5520301409,1.2121668632,-1.480842267\O,-7.
 8356178039,1.0116787461,1.1301151985\O,-7.2991209092,-1.2549177965,-0.
 1609413637\H,-6.5581841574,-1.8074093497,-0.4698949287\H,-7.927319599,
 0.4410884132,1.9018872948\H,-8.4622215337,1.5290362156,-1.4651578795\S
 i,-3.3756069324,-3.0095775687,-1.2559257684\O,-2.0507390269,-2.4299587
 269,-0.46502268\O,-3.7977095035,-4.5701549033,-0.921282284\O,-3.018454
 1284,-2.9689855012,-2.8654130675\O,-4.6457526761,-2.0710658654,-0.7745
 880875\H,-4.4970297231,-1.1275844696,-0.5752106955\H,-3.52311641,-3.55
 9027781,-3.4367228246\H,-1.1935240328,-2.6249917901,-0.8604720227\H,-4
 .2873517097,-4.7244105446,-0.1055256333\H,-5.049081708,1.4089910656,-0
 .4266760139\\Version=ES64L-G16RevB.01\State=1-A\HF=-1186.0652685\RMSD=
 7.114e-09\RMSF=3.107e-04\Dipole=0.0356846,0.0290154,0.1482417\Quadrupo
 le=0.53678,0.0083646,-0.5451446,-0.7002442,-1.0291599,-0.3252485\PG=C0
 1 [X(H8O8Si2)]\\@


 QED = W**5 (WHICH WAS WHAT WE WANTED)
 Job cpu time:       0 days  1 hours 58 minutes 30.3 seconds.
 Elapsed time:       0 days  0 hours  7 minutes 29.8 seconds.
 File lengths (MBytes):  RWF=     40 Int=      0 D2E=      0 Chk=      5 Scr=      1
 Normal termination of Gaussian 16 at Wed Jul 29 17:20:25 2020.
