 Entering Gaussian System, Link 0=g16
 Initial command:
 /opt/software/gaussian/g16.b01/l1.exe "/localscratch/sarashs.37136505.0/Gau-29741.inp" -scrdir="/localscratch/sarashs.37136505.0/"
 Entering Link 1 = /opt/software/gaussian/g16.b01/l1.exe PID=     29746.
  
 Copyright (c) 1988-2017, Gaussian, Inc.  All Rights Reserved.
  
 This is part of the Gaussian(R) 16 program.  It is based on
 the Gaussian(R) 09 system (copyright 2009, Gaussian, Inc.),
 the Gaussian(R) 03 system (copyright 2003, Gaussian, Inc.),
 the Gaussian(R) 98 system (copyright 1998, Gaussian, Inc.),
 the Gaussian(R) 94 system (copyright 1995, Gaussian, Inc.),
 the Gaussian 92(TM) system (copyright 1992, Gaussian, Inc.),
 the Gaussian 90(TM) system (copyright 1990, Gaussian, Inc.),
 the Gaussian 88(TM) system (copyright 1988, Gaussian, Inc.),
 the Gaussian 86(TM) system (copyright 1986, Carnegie Mellon
 University), and the Gaussian 82(TM) system (copyright 1983,
 Carnegie Mellon University). Gaussian is a federally registered
 trademark of Gaussian, Inc.
  
 This software contains proprietary and confidential information,
 including trade secrets, belonging to Gaussian, Inc.
  
 This software is provided under written license and may be
 used, copied, transmitted, or stored only in accord with that
 written license.
  
 The following legend is applicable only to US Government
 contracts under FAR:
  
                    RESTRICTED RIGHTS LEGEND
  
 Use, reproduction and disclosure by the US Government is
 subject to restrictions as set forth in subparagraphs (a)
 and (c) of the Commercial Computer Software - Restricted
 Rights clause in FAR 52.227-19.
  
 Gaussian, Inc.
 340 Quinnipiac St., Bldg. 40, Wallingford CT 06492
  
  
 ---------------------------------------------------------------
 Warning -- This program may not be used in any manner that
 competes with the business of Gaussian, Inc. or will provide
 assistance to any competitor of Gaussian, Inc.  The licensee
 of this program is prohibited from giving any competitor of
 Gaussian, Inc. access to this program.  By using this program,
 the user acknowledges that Gaussian, Inc. is engaged in the
 business of creating and licensing software in the field of
 computational chemistry and represents and warrants to the
 licensee that it is not a competitor of Gaussian, Inc. and that
 it will not use this program in any manner prohibited above.
 ---------------------------------------------------------------
  

 Cite this work as:
 Gaussian 16, Revision B.01,
 M. J. Frisch, G. W. Trucks, H. B. Schlegel, G. E. Scuseria, 
 M. A. Robb, J. R. Cheeseman, G. Scalmani, V. Barone, 
 G. A. Petersson, H. Nakatsuji, X. Li, M. Caricato, A. V. Marenich, 
 J. Bloino, B. G. Janesko, R. Gomperts, B. Mennucci, H. P. Hratchian, 
 J. V. Ortiz, A. F. Izmaylov, J. L. Sonnenberg, D. Williams-Young, 
 F. Ding, F. Lipparini, F. Egidi, J. Goings, B. Peng, A. Petrone, 
 T. Henderson, D. Ranasinghe, V. G. Zakrzewski, J. Gao, N. Rega, 
 G. Zheng, W. Liang, M. Hada, M. Ehara, K. Toyota, R. Fukuda, 
 J. Hasegawa, M. Ishida, T. Nakajima, Y. Honda, O. Kitao, H. Nakai, 
 T. Vreven, K. Throssell, J. A. Montgomery, Jr., J. E. Peralta, 
 F. Ogliaro, M. J. Bearpark, J. J. Heyd, E. N. Brothers, K. N. Kudin, 
 V. N. Staroverov, T. A. Keith, R. Kobayashi, J. Normand, 
 K. Raghavachari, A. P. Rendell, J. C. Burant, S. S. Iyengar, 
 J. Tomasi, M. Cossi, J. M. Millam, M. Klene, C. Adamo, R. Cammi, 
 J. W. Ochterski, R. L. Martin, K. Morokuma, O. Farkas, 
 J. B. Foresman, and D. J. Fox, Gaussian, Inc., Wallingford CT, 2016.
 
 ******************************************
 Gaussian 16:  ES64L-G16RevB.01 20-Dec-2017
                11-Aug-2020 
 ******************************************
 %NProcShared=16
 Will use up to   16 processors via shared memory.
 -------------------------------------------------------------
 #n B3LYP/6-31+G(d,p) EmpiricalDispersion=GD3 Opt=modredundant
 -------------------------------------------------------------
 1/18=120,19=15,26=3,38=1/1,3;
 2/9=110,12=2,17=6,18=5,40=1/2;
 3/5=1,6=6,7=111,11=2,25=1,30=1,71=1,74=-5,124=31/1,2,3;
 4//1;
 5/5=2,38=5/2;
 6/7=2,8=2,9=2,10=2,28=1/1;
 7//1,2,3,16;
 1/18=20,19=15,26=3/3(2);
 2/9=110/2;
 99//99;
 2/9=110/2;
 3/5=1,6=6,7=111,11=2,25=1,30=1,71=1,74=-5,124=31/1,2,3;
 4/5=5,16=3,69=1/1;
 5/5=2,38=5/2;
 7//1,2,3,16;
 1/18=20,19=15,26=3/3(-5);
 2/9=110/2;
 6/7=2,8=2,9=2,10=2,19=2,28=1/1;
 99/9=1/99;
 -----
 Title
 -----
 Symbolic Z-matrix:
 Charge =  0 Multiplicity = 1
 Si                   -1.97199   0.03198   0.02178 
 O                    -1.49839  -1.04281  -1.16096 
 O                    -3.61529   0.07731   0.01517 
 O                    -1.38578   1.53664  -0.16122 
 O                    -1.32513  -0.62357   1.41007 
 H                    -1.61852  -1.51781   1.62751 
 H                    -0.41713   1.65614  -0.27249 
 H                    -4.03179   0.8972    0.30533 
 Si                    3.42678  -0.05837  -0.05033 
 O                     5.06417   0.04145  -0.12657 
 O                     2.8256    1.47523  -0.38709 
 O                     3.01942  -0.5045    1.48206 
 O                     2.83393  -1.05214  -1.20489 
 H                     1.8746   -1.19599  -1.27668 
 H                     2.06699  -0.57461   1.66811 
 H                     5.56189  -0.5882    0.40665 
 H                     3.29287   2.19738   0.05208 
 H                    -1.95012  -0.97878  -2.01163 
 
 Add virtual bond connecting atoms O11        and H7         Dist= 6.14D+00.
 Add virtual bond connecting atoms H14        and O2         Dist= 6.38D+00.
 Add virtual bond connecting atoms H15        and O5         Dist= 6.43D+00.
 The following ModRedundant input section has been read:
 B       1       9 F                                                           
 

 GradGradGradGradGradGradGradGradGradGradGradGradGradGradGradGradGradGrad
 Berny optimization.
 Initialization pass.
                           ----------------------------
                           !    Initial Parameters    !
                           ! (Angstroms and Degrees)  !
 --------------------------                            --------------------------
 ! Name  Definition              Value          Derivative Info.                !
 --------------------------------------------------------------------------------
 ! R1    R(1,2)                  1.6668         estimate D2E/DX2                !
 ! R2    R(1,3)                  1.6439         estimate D2E/DX2                !
 ! R3    R(1,4)                  1.6252         estimate D2E/DX2                !
 ! R4    R(1,5)                  1.666          estimate D2E/DX2                !
 ! R5    R(1,9)                  5.4            Frozen                          !
 ! R6    R(2,14)                 3.3784         estimate D2E/DX2                !
 ! R7    R(2,18)                 0.9653         estimate D2E/DX2                !
 ! R8    R(3,8)                  0.9643         estimate D2E/DX2                !
 ! R9    R(4,7)                  0.9823         estimate D2E/DX2                !
 ! R10   R(5,6)                  0.9659         estimate D2E/DX2                !
 ! R11   R(5,15)                 3.4023         estimate D2E/DX2                !
 ! R12   R(7,11)                 3.2498         estimate D2E/DX2                !
 ! R13   R(9,10)                 1.6422         estimate D2E/DX2                !
 ! R14   R(9,11)                 1.6813         estimate D2E/DX2                !
 ! R15   R(9,12)                 1.6472         estimate D2E/DX2                !
 ! R16   R(9,13)                 1.6346         estimate D2E/DX2                !
 ! R17   R(10,16)                0.9636         estimate D2E/DX2                !
 ! R18   R(11,17)                0.9658         estimate D2E/DX2                !
 ! R19   R(12,15)                0.973          estimate D2E/DX2                !
 ! R20   R(13,14)                0.9727         estimate D2E/DX2                !
 ! A1    A(2,1,3)              107.3944         estimate D2E/DX2                !
 ! A2    A(2,1,4)              114.4947         estimate D2E/DX2                !
 ! A3    A(2,1,5)              103.1351         estimate D2E/DX2                !
 ! A4    A(3,1,4)              109.5475         estimate D2E/DX2                !
 ! A5    A(3,1,5)              113.7235         estimate D2E/DX2                !
 ! A6    A(4,1,5)              108.5478         estimate D2E/DX2                !
 ! A7    A(1,2,14)             109.7071         estimate D2E/DX2                !
 ! A8    A(1,2,18)             116.7164         estimate D2E/DX2                !
 ! A9    A(14,2,18)            116.1062         estimate D2E/DX2                !
 ! A10   A(1,3,8)              116.9996         estimate D2E/DX2                !
 ! A11   A(1,4,7)              118.7559         estimate D2E/DX2                !
 ! A12   A(1,5,6)              115.7177         estimate D2E/DX2                !
 ! A13   A(1,5,15)             116.4012         estimate D2E/DX2                !
 ! A14   A(6,5,15)             107.4024         estimate D2E/DX2                !
 ! A15   A(10,9,11)            106.9645         estimate D2E/DX2                !
 ! A16   A(10,9,12)            107.8326         estimate D2E/DX2                !
 ! A17   A(10,9,13)            111.4555         estimate D2E/DX2                !
 ! A18   A(11,9,12)            110.1795         estimate D2E/DX2                !
 ! A19   A(11,9,13)            106.4622         estimate D2E/DX2                !
 ! A20   A(12,9,13)            113.7492         estimate D2E/DX2                !
 ! A21   A(9,10,16)            116.7183         estimate D2E/DX2                !
 ! A22   A(7,11,9)             113.6099         estimate D2E/DX2                !
 ! A23   A(7,11,17)            115.1582         estimate D2E/DX2                !
 ! A24   A(9,11,17)            114.7067         estimate D2E/DX2                !
 ! A25   A(9,12,15)            116.072          estimate D2E/DX2                !
 ! A26   A(9,13,14)            119.9818         estimate D2E/DX2                !
 ! A27   A(5,15,12)            164.2619         estimate D2E/DX2                !
 ! A28   L(4,7,11,2,-1)        171.9783         estimate D2E/DX2                !
 ! A29   L(2,14,13,15,-1)      171.6741         estimate D2E/DX2                !
 ! A30   L(4,7,11,2,-2)        188.2963         estimate D2E/DX2                !
 ! A31   L(2,14,13,15,-2)      189.6807         estimate D2E/DX2                !
 ! D1    D(3,1,2,14)           179.2525         estimate D2E/DX2                !
 ! D2    D(3,1,2,18)            44.5394         estimate D2E/DX2                !
 ! D3    D(4,1,2,14)            57.38           estimate D2E/DX2                !
 ! D4    D(4,1,2,18)           -77.3331         estimate D2E/DX2                !
 ! D5    D(5,1,2,14)           -60.3475         estimate D2E/DX2                !
 ! D6    D(5,1,2,18)           164.9394         estimate D2E/DX2                !
 ! D7    D(2,1,3,8)           -151.7167         estimate D2E/DX2                !
 ! D8    D(4,1,3,8)            -26.8074         estimate D2E/DX2                !
 ! D9    D(5,1,3,8)             94.8432         estimate D2E/DX2                !
 ! D10   D(2,1,4,7)            -52.8688         estimate D2E/DX2                !
 ! D11   D(3,1,4,7)           -173.5574         estimate D2E/DX2                !
 ! D12   D(5,1,4,7)             61.7309         estimate D2E/DX2                !
 ! D13   D(2,1,5,6)            -59.1788         estimate D2E/DX2                !
 ! D14   D(2,1,5,15)            68.3907         estimate D2E/DX2                !
 ! D15   D(3,1,5,6)             56.7888         estimate D2E/DX2                !
 ! D16   D(3,1,5,15)          -175.6416         estimate D2E/DX2                !
 ! D17   D(4,1,5,6)            178.9933         estimate D2E/DX2                !
 ! D18   D(4,1,5,15)           -53.4372         estimate D2E/DX2                !
 ! D19   D(1,2,13,9)             1.7423         estimate D2E/DX2                !
 ! D20   D(18,2,13,9)          135.1721         estimate D2E/DX2                !
 ! D21   D(1,4,11,9)            -7.8724         estimate D2E/DX2                !
 ! D22   D(1,4,11,17)         -141.8196         estimate D2E/DX2                !
 ! D23   D(1,5,15,12)          -14.1261         estimate D2E/DX2                !
 ! D24   D(6,5,15,12)          117.426          estimate D2E/DX2                !
 ! D25   D(11,9,10,16)         152.8741         estimate D2E/DX2                !
 ! D26   D(12,9,10,16)          34.385          estimate D2E/DX2                !
 ! D27   D(13,9,10,16)         -91.1352         estimate D2E/DX2                !
 ! D28   D(10,9,11,7)         -179.0342         estimate D2E/DX2                !
 ! D29   D(10,9,11,17)         -43.652          estimate D2E/DX2                !
 ! D30   D(12,9,11,7)          -62.0837         estimate D2E/DX2                !
 ! D31   D(12,9,11,17)          73.2985         estimate D2E/DX2                !
 ! D32   D(13,9,11,7)           61.697          estimate D2E/DX2                !
 ! D33   D(13,9,11,17)        -162.9209         estimate D2E/DX2                !
 ! D34   D(10,9,12,15)         178.2711         estimate D2E/DX2                !
 ! D35   D(11,9,12,15)          61.862          estimate D2E/DX2                !
 ! D36   D(13,9,12,15)         -57.581          estimate D2E/DX2                !
 ! D37   D(10,9,13,14)        -179.5273         estimate D2E/DX2                !
 ! D38   D(11,9,13,14)         -63.2294         estimate D2E/DX2                !
 ! D39   D(12,9,13,14)          58.3046         estimate D2E/DX2                !
 ! D40   D(9,12,15,5)            3.7609         estimate D2E/DX2                !
 --------------------------------------------------------------------------------
 Trust Radius=3.00D-01 FncErr=1.00D-07 GrdErr=1.00D-06 EigMax=2.50D+02 EigMin=1.00D-04
 Number of steps in this run=    101 maximum allowed number of steps=    108.
 GradGradGradGradGradGradGradGradGradGradGradGradGradGradGradGradGradGrad

                          Input orientation:                          
 ---------------------------------------------------------------------
 Center     Atomic      Atomic             Coordinates (Angstroms)
 Number     Number       Type             X           Y           Z
 ---------------------------------------------------------------------
      1         14           0       -1.971990    0.031980    0.021780
      2          8           0       -1.498390   -1.042810   -1.160960
      3          8           0       -3.615290    0.077310    0.015170
      4          8           0       -1.385780    1.536640   -0.161220
      5          8           0       -1.325130   -0.623570    1.410070
      6          1           0       -1.618520   -1.517810    1.627510
      7          1           0       -0.417130    1.656140   -0.272490
      8          1           0       -4.031790    0.897200    0.305330
      9         14           0        3.426780   -0.058370   -0.050330
     10          8           0        5.064170    0.041450   -0.126570
     11          8           0        2.825600    1.475230   -0.387090
     12          8           0        3.019420   -0.504500    1.482060
     13          8           0        2.833930   -1.052140   -1.204890
     14          1           0        1.874600   -1.195990   -1.276680
     15          1           0        2.066990   -0.574610    1.668110
     16          1           0        5.561890   -0.588200    0.406650
     17          1           0        3.292870    2.197380    0.052080
     18          1           0       -1.950120   -0.978780   -2.011630
 ---------------------------------------------------------------------
                    Distance matrix (angstroms):
                    1          2          3          4          5
     1  Si   0.000000
     2  O    1.666837   0.000000
     3  O    1.643938   2.668186   0.000000
     4  O    1.625156   2.768704   2.670482   0.000000
     5  O    1.665990   2.610743   2.771608   2.671917   0.000000
     6  H    2.259460   2.831187   3.021777   3.547307   0.965931
     7  H    2.267616   3.040203   3.578223   0.982316   2.975323
     8  H    2.252062   3.511661   0.964305   2.761869   3.295330
     9  Si   5.400007   5.143921   7.043682   5.071202   5.003286
    10  O    7.037730   6.731477   8.680691   6.621076   6.605049
    11  O    5.026631   5.063229   6.603110   4.217880   4.986312
    12  O    5.228231   5.261743   6.819798   5.125662   4.346778
    13  O    5.077096   4.332553   6.660078   5.059346   4.931477
    14  H    4.241481   3.378449   5.781787   4.397908   4.217175
    15  H    4.403602   4.575454   5.953614   4.441334   3.402273
    16  H    7.569154   7.246491   9.209603   7.287492   6.959824
    17  H    5.692857   5.909862   7.226253   4.729888   5.579231
    18  H    2.270874   0.965298   2.827726   3.173300   3.496401
                    6          7          8          9         10
     6  H    0.000000
     7  H    3.889383   0.000000
     8  H    3.661189   3.738400   0.000000
     9  Si   5.513634   4.214801   7.527940   0.000000
    10  O    7.082827   5.716045   9.146329   1.642201   0.000000
    11  O    5.724256   3.249794   6.916456   1.681295   2.671103
    12  O    4.749573   4.422294   7.284849   1.647177   2.658337
    13  O    5.297514   4.332844   7.295122   1.634643   2.707893
    14  H    4.554094   3.794083   6.462944   2.281968   3.609344
    15  H    3.804505   3.861739   6.420164   2.251348   3.547322
    16  H    7.342545   6.422381   9.708521   2.246830   0.963591
    17  H    6.356600   3.763295   7.443470   2.262041   2.795971
    18  H    3.693758   3.509625   3.636063   5.796974   7.334479
                   11         12         13         14         15
    11  O    0.000000
    12  O    2.729582   0.000000
    13  O    2.656401   2.748457   0.000000
    14  H    2.971731   3.065847   0.972708   0.000000
    15  H    3.000197   0.972961   3.011704   3.015778   0.000000
    16  H    3.517819   2.761823   3.202197   4.098672   3.715615
    17  H    0.965770   3.069165   3.514254   3.910505   3.434860
    18  H    5.609706   6.093204   4.852149   3.900745   5.462693
                   16         17         18
    16  H    0.000000
    17  H    3.610212   0.000000
    18  H    7.901324   6.468063   0.000000
 Stoichiometry    H8O8Si2
 Framework group  C1[X(H8O8Si2)]
 Deg. of freedom    48
 Full point group                 C1      NOp   1
 Largest Abelian subgroup         C1      NOp   1
 Largest concise Abelian subgroup C1      NOp   1
                         Standard orientation:                         
 ---------------------------------------------------------------------
 Center     Atomic      Atomic             Coordinates (Angstroms)
 Number     Number       Type             X           Y           Z
 ---------------------------------------------------------------------
      1         14           0       -2.697234    0.031565    0.017515
      2          8           0       -2.212554   -1.045441   -1.158702
      3          8           0       -4.340672    0.069152    0.002337
      4          8           0       -2.117136    1.538261   -0.168196
      5          8           0       -2.054441   -0.615700    1.411570
      6          1           0       -2.344757   -1.510482    1.630900
      7          1           0       -1.148498    1.661888   -0.274968
      8          1           0       -4.762484    0.888166    0.287252
      9         14           0        2.702199   -0.033702   -0.026667
     10          8           0        4.339473    0.073518   -0.094918
     11          8           0        2.095587    1.495777   -0.372311
     12          8           0        2.289078   -0.475958    1.505304
     13          8           0        2.119930   -1.034592   -1.180461
     14          1           0        1.161664   -1.183215   -1.256605
     15          1           0        1.336045   -0.549838    1.686750
     16          1           0        4.837392   -0.551772    0.443224
     17          1           0        2.557217    2.221765    0.066497
     18          1           0       -2.660212   -0.986742   -2.011906
 ---------------------------------------------------------------------
 Rotational constants (GHZ):           1.9566244           0.3062334           0.3051741
 Standard basis: 6-31+G(d,p) (6D, 7F)
 There are   238 symmetry adapted cartesian basis functions of A   symmetry.
 There are   238 symmetry adapted basis functions of A   symmetry.
   238 basis functions,   424 primitive gaussians,   238 cartesian basis functions
    50 alpha electrons       50 beta electrons
       nuclear repulsion energy       775.0595145700 Hartrees.
 NAtoms=   18 NActive=   18 NUniq=   18 SFac= 1.00D+00 NAtFMM=   60 NAOKFM=F Big=F
 Integral buffers will be    131072 words long.
 Raffenetti 2 integral format.
 Two-electron integral symmetry is turned on.
 Nuclear repulsion after empirical dispersion term =      775.0489912196 Hartrees.
 One-electron integrals computed using PRISM.
 NBasis=   238 RedAO= T EigKep=  3.52D-04  NBF=   238
 NBsUse=   238 1.00D-06 EigRej= -1.00D+00 NBFU=   238
 ExpMin= 3.31D-02 ExpMax= 1.61D+04 ExpMxC= 2.43D+03 IAcc=3 IRadAn=         5 AccDes= 0.00D+00
 Harris functional with IExCor=  402 and IRadAn=       5 diagonalized for initial guess.
 HarFok:  IExCor=  402 AccDes= 0.00D+00 IRadAn=         5 IDoV= 1 UseB2=F ITyADJ=14
 ICtDFT=  3500011 ScaDFX=  1.000000  1.000000  1.000000  1.000000
 FoFCou: FMM=F IPFlag=           0 FMFlag=      100000 FMFlg1=           0
         NFxFlg=           0 DoJE=T BraDBF=F KetDBF=T FulRan=T
         wScrn=  0.000000 ICntrl=       500 IOpCl=  0 I1Cent=   200000004 NGrid=           0
         NMat0=    1 NMatS0=      1 NMatT0=    0 NMatD0=    1 NMtDS0=    0 NMtDT0=    0
 Petite list used in FoFCou.
 Requested convergence on RMS density matrix=1.00D-08 within 128 cycles.
 Requested convergence on MAX density matrix=1.00D-06.
 Requested convergence on             energy=1.00D-06.
 No special actions if energy rises.
 SCF Done:  E(RB3LYP) =  -1186.04708165     A.U. after   11 cycles
            NFock= 11  Conv=0.69D-08     -V/T= 2.0068

 **********************************************************************

            Population analysis using the SCF Density.

 **********************************************************************

 Orbital symmetries:
       Occupied  (A) (A) (A) (A) (A) (A) (A) (A) (A) (A) (A) (A)
                 (A) (A) (A) (A) (A) (A) (A) (A) (A) (A) (A) (A)
                 (A) (A) (A) (A) (A) (A) (A) (A) (A) (A) (A) (A)
                 (A) (A) (A) (A) (A) (A) (A) (A) (A) (A) (A) (A)
                 (A) (A)
       Virtual   (A) (A) (A) (A) (A) (A) (A) (A) (A) (A) (A) (A)
                 (A) (A) (A) (A) (A) (A) (A) (A) (A) (A) (A) (A)
                 (A) (A) (A) (A) (A) (A) (A) (A) (A) (A) (A) (A)
                 (A) (A) (A) (A) (A) (A) (A) (A) (A) (A) (A) (A)
                 (A) (A) (A) (A) (A) (A) (A) (A) (A) (A) (A) (A)
                 (A) (A) (A) (A) (A) (A) (A) (A) (A) (A) (A) (A)
                 (A) (A) (A) (A) (A) (A) (A) (A) (A) (A) (A) (A)
                 (A) (A) (A) (A) (A) (A) (A) (A) (A) (A) (A) (A)
                 (A) (A) (A) (A) (A) (A) (A) (A) (A) (A) (A) (A)
                 (A) (A) (A) (A) (A) (A) (A) (A) (A) (A) (A) (A)
                 (A) (A) (A) (A) (A) (A) (A) (A) (A) (A) (A) (A)
                 (A) (A) (A) (A) (A) (A) (A) (A) (A) (A) (A) (A)
                 (A) (A) (A) (A) (A) (A) (A) (A) (A) (A) (A) (A)
                 (A) (A) (A) (A) (A) (A) (A) (A) (A) (A) (A) (A)
                 (A) (A) (A) (A) (A) (A) (A) (A) (A) (A) (A) (A)
                 (A) (A) (A) (A) (A) (A) (A) (A)
 The electronic state is 1-A.
 Alpha  occ. eigenvalues --  -66.23067 -66.22123 -19.18239 -19.18157 -19.17634
 Alpha  occ. eigenvalues --  -19.17466 -19.17064 -19.17063 -19.16872 -19.16377
 Alpha  occ. eigenvalues --   -5.36426  -5.35466  -3.72425  -3.72411  -3.72365
 Alpha  occ. eigenvalues --   -3.71470  -3.71444  -3.71410  -1.05471  -1.04466
 Alpha  occ. eigenvalues --   -1.01997  -1.01722  -1.01067  -1.01022  -1.00761
 Alpha  occ. eigenvalues --   -1.00031  -0.60737  -0.59909  -0.54985  -0.54458
 Alpha  occ. eigenvalues --   -0.53737  -0.52650  -0.52566  -0.52237  -0.41984
 Alpha  occ. eigenvalues --   -0.41537  -0.40128  -0.39467  -0.39326  -0.38651
 Alpha  occ. eigenvalues --   -0.38289  -0.37043  -0.36492  -0.36194  -0.35556
 Alpha  occ. eigenvalues --   -0.34406  -0.33893  -0.33708  -0.33523  -0.31661
 Alpha virt. eigenvalues --   -0.04316  -0.01697   0.00462   0.00712   0.01257
 Alpha virt. eigenvalues --    0.02700   0.03970   0.04327   0.08317   0.08907
 Alpha virt. eigenvalues --    0.10001   0.11112   0.11300   0.11816   0.12592
 Alpha virt. eigenvalues --    0.13527   0.14109   0.14656   0.14890   0.14913
 Alpha virt. eigenvalues --    0.15543   0.16191   0.16677   0.16982   0.17383
 Alpha virt. eigenvalues --    0.17697   0.18625   0.19255   0.19476   0.19797
 Alpha virt. eigenvalues --    0.20219   0.20831   0.21009   0.21509   0.23185
 Alpha virt. eigenvalues --    0.23761   0.24695   0.25418   0.25652   0.26140
 Alpha virt. eigenvalues --    0.26271   0.26732   0.26795   0.27862   0.28653
 Alpha virt. eigenvalues --    0.29451   0.30413   0.32154   0.33201   0.33741
 Alpha virt. eigenvalues --    0.34254   0.35459   0.38710   0.39698   0.40969
 Alpha virt. eigenvalues --    0.41317   0.43510   0.44974   0.45471   0.46576
 Alpha virt. eigenvalues --    0.48070   0.52845   0.59236   0.61057   0.61722
 Alpha virt. eigenvalues --    0.63063   0.63988   0.65844   0.92801   0.93217
 Alpha virt. eigenvalues --    0.93538   0.95013   0.95679   0.97393   0.98206
 Alpha virt. eigenvalues --    0.98898   0.99424   1.00456   1.01110   1.02612
 Alpha virt. eigenvalues --    1.03838   1.05084   1.14805   1.15348   1.16230
 Alpha virt. eigenvalues --    1.16529   1.17202   1.18194   1.18798   1.19059
 Alpha virt. eigenvalues --    1.19230   1.20425   1.21115   1.22426   1.22717
 Alpha virt. eigenvalues --    1.23064   1.23985   1.26255   1.26981   1.27564
 Alpha virt. eigenvalues --    1.27958   1.29035   1.30106   1.31121   1.32030
 Alpha virt. eigenvalues --    1.34171   1.46171   1.46903   1.50838   1.52204
 Alpha virt. eigenvalues --    1.53329   1.54896   1.55618   1.56382   1.56538
 Alpha virt. eigenvalues --    1.59270   1.60556   1.61635   1.61947   1.63137
 Alpha virt. eigenvalues --    1.65179   1.67160   1.69165   1.70091   1.73173
 Alpha virt. eigenvalues --    1.74144   1.74511   1.76498   1.83198   1.84960
 Alpha virt. eigenvalues --    1.88035   1.90845   1.93250   1.99698   2.01523
 Alpha virt. eigenvalues --    2.02347   2.08631   2.09075   2.33364   2.34773
 Alpha virt. eigenvalues --    2.35640   2.37123   2.37657   2.39555   2.39758
 Alpha virt. eigenvalues --    2.40000   2.44881   2.45413   2.57605   2.58557
 Alpha virt. eigenvalues --    2.59044   2.59579   2.59946   2.60571   2.61132
 Alpha virt. eigenvalues --    2.61923   2.63406   2.63769   2.64986   2.65511
 Alpha virt. eigenvalues --    2.66449   2.67784   2.68825   2.69714   2.76685
 Alpha virt. eigenvalues --    2.77577   2.79314   2.80472   2.82471   2.83027
 Alpha virt. eigenvalues --    2.98957   3.00365   3.39908   3.40314   3.41222
 Alpha virt. eigenvalues --    3.42101   3.43062   3.44938   3.45722   3.46875
 Alpha virt. eigenvalues --    4.10217   4.13257   4.14506   4.16930   4.19081
 Alpha virt. eigenvalues --    4.24143   4.24982   4.26926
          Condensed to atoms (all electrons):
               1          2          3          4          5          6
     1  Si  11.476895   0.099028   0.055340   0.157754   0.117131   0.036819
     2  O    0.099028   8.508830   0.038405  -0.013291   0.036035  -0.007301
     3  O    0.055340   0.038405   8.513340   0.036748  -0.011521  -0.007070
     4  O    0.157754  -0.013291   0.036748   8.386770   0.028667   0.006241
     5  O    0.117131   0.036035  -0.011521   0.028667   8.454099   0.241695
     6  H    0.036819  -0.007301  -0.007070   0.006241   0.241695   0.364631
     7  H    0.022731  -0.006026   0.007040   0.255484  -0.006026   0.000030
     8  H    0.028210   0.004236   0.242375  -0.002769  -0.004603   0.000086
     9  Si  -0.002254   0.001604  -0.000040  -0.001610   0.001899  -0.000402
    10  O    0.000004   0.000061  -0.000002   0.000050   0.000088  -0.000000
    11  O    0.000995  -0.000890   0.000089  -0.001651  -0.001006   0.000014
    12  O   -0.001077  -0.000587   0.000027  -0.000002  -0.000971   0.000001
    13  O    0.000086  -0.000976   0.000041  -0.000293  -0.001004   0.000024
    14  H    0.001549   0.002241  -0.000004  -0.000148  -0.000371   0.000001
    15  H    0.000560  -0.000009  -0.000006  -0.000165   0.002137  -0.000030
    16  H    0.000020  -0.000000   0.000000   0.000000  -0.000000   0.000000
    17  H   -0.000263   0.000008  -0.000000   0.000054   0.000009  -0.000000
    18  H    0.030354   0.238803  -0.005250  -0.007229   0.005939   0.000071
               7          8          9         10         11         12
     1  Si   0.022731   0.028210  -0.002254   0.000004   0.000995  -0.001077
     2  O   -0.006026   0.004236   0.001604   0.000061  -0.000890  -0.000587
     3  O    0.007040   0.242375  -0.000040  -0.000002   0.000089   0.000027
     4  O    0.255484  -0.002769  -0.001610   0.000050  -0.001651  -0.000002
     5  O   -0.006026  -0.004603   0.001899   0.000088  -0.001006  -0.000971
     6  H    0.000030   0.000086  -0.000402  -0.000000   0.000014   0.000001
     7  H    0.336630   0.000032   0.001450  -0.000006   0.003195  -0.000054
     8  H    0.000032   0.356581   0.000011   0.000000   0.000000  -0.000000
     9  Si   0.001450   0.000011  11.511587   0.027295   0.083367   0.145180
    10  O   -0.000006   0.000000   0.027295   8.522358   0.020995   0.050389
    11  O    0.003195   0.000000   0.083367   0.020995   8.522695   0.021554
    12  O   -0.000054  -0.000000   0.145180   0.050389   0.021554   8.415772
    13  O   -0.000337  -0.000000   0.103449   0.021469   0.032875  -0.008743
    14  H    0.000028  -0.000000   0.036938   0.005353  -0.005211  -0.009935
    15  H    0.000023  -0.000000   0.030753   0.008342  -0.008324   0.248534
    16  H   -0.000000  -0.000000   0.027352   0.244831   0.003893  -0.004201
    17  H   -0.000047   0.000000   0.033129  -0.004109   0.241619  -0.009426
    18  H    0.000146   0.000082  -0.000279  -0.000000   0.000007   0.000000
              13         14         15         16         17         18
     1  Si   0.000086   0.001549   0.000560   0.000020  -0.000263   0.030354
     2  O   -0.000976   0.002241  -0.000009  -0.000000   0.000008   0.238803
     3  O    0.000041  -0.000004  -0.000006   0.000000  -0.000000  -0.005250
     4  O   -0.000293  -0.000148  -0.000165   0.000000   0.000054  -0.007229
     5  O   -0.001004  -0.000371   0.002137  -0.000000   0.000009   0.005939
     6  H    0.000024   0.000001  -0.000030   0.000000  -0.000000   0.000071
     7  H   -0.000337   0.000028   0.000023  -0.000000  -0.000047   0.000146
     8  H   -0.000000  -0.000000  -0.000000  -0.000000   0.000000   0.000082
     9  Si   0.103449   0.036938   0.030753   0.027352   0.033129  -0.000279
    10  O    0.021469   0.005353   0.008342   0.244831  -0.004109  -0.000000
    11  O    0.032875  -0.005211  -0.008324   0.003893   0.241619   0.000007
    12  O   -0.008743  -0.009935   0.248534  -0.004201  -0.009426   0.000000
    13  O    8.441834   0.242530  -0.009084  -0.003745   0.007140   0.000029
    14  H    0.242530   0.353914   0.000218  -0.000023  -0.000027  -0.000022
    15  H   -0.009084   0.000218   0.354703   0.000046   0.000161  -0.000000
    16  H   -0.003745  -0.000023   0.000046   0.362316   0.000089   0.000000
    17  H    0.007140  -0.000027   0.000161   0.000089   0.363129  -0.000000
    18  H    0.000029  -0.000022  -0.000000   0.000000  -0.000000   0.364183
 Mulliken charges:
               1
     1  Si   1.976117
     2  O   -0.900171
     3  O   -0.869511
     4  O   -0.844608
     5  O   -0.862197
     6  H    0.365191
     7  H    0.385707
     8  H    0.375758
     9  Si   2.000572
    10  O   -0.897118
    11  O   -0.914216
    12  O   -0.846461
    13  O   -0.825294
    14  H    0.372970
    15  H    0.372141
    16  H    0.369421
    17  H    0.368533
    18  H    0.373165
 Sum of Mulliken charges =  -0.00000
 Mulliken charges with hydrogens summed into heavy atoms:
               1
     1  Si   1.976117
     2  O   -0.527006
     3  O   -0.493753
     4  O   -0.458901
     5  O   -0.497006
     9  Si   2.000572
    10  O   -0.527697
    11  O   -0.545683
    12  O   -0.474320
    13  O   -0.452324
 Electronic spatial extent (au):  <R**2>=           3507.7150
 Charge=              0.0000 electrons
 Dipole moment (field-independent basis, Debye):
    X=             -2.1763    Y=             -0.0157    Z=              1.0194  Tot=              2.4033
 Quadrupole moment (field-independent basis, Debye-Ang):
   XX=            -68.2465   YY=            -68.5019   ZZ=            -72.9300
   XY=             -0.7630   XZ=              6.4332   YZ=             -0.4263
 Traceless Quadrupole moment (field-independent basis, Debye-Ang):
   XX=              1.6463   YY=              1.3909   ZZ=             -3.0372
   XY=             -0.7630   XZ=              6.4332   YZ=             -0.4263
 Octapole moment (field-independent basis, Debye-Ang**2):
  XXX=            -11.1815  YYY=              6.2601  ZZZ=            -13.7470  XYY=              3.0731
  XXY=              8.4179  XXZ=             30.2960  XZZ=            -27.3777  YZZ=             -7.5567
  YYZ=             12.1660  XYZ=              0.2346
 Hexadecapole moment (field-independent basis, Debye-Ang**3):
 XXXX=          -3228.2601 YYYY=           -342.7926 ZZZZ=           -345.1192 XXXY=           -227.5652
 XXXZ=             86.3381 YYYX=             60.2612 YYYZ=             -6.5265 ZZZX=             31.8399
 ZZZY=              3.5885 XXYY=           -579.6058 XXZZ=           -642.5642 YYZZ=           -113.5153
 XXYZ=              2.6305 YYXZ=             -4.5996 ZZXY=             30.7276
 N-N= 7.750489912196D+02 E-N=-4.359733852112D+03  KE= 1.178094473090D+03
 Calling FoFJK, ICntrl=      2127 FMM=F ISym2X=0 I1Cent= 0 IOpClX= 0 NMat=1 NMatS=1 NMatT=0.
 ***** Axes restored to original set *****
 -------------------------------------------------------------------
 Center     Atomic                   Forces (Hartrees/Bohr)
 Number     Number              X              Y              Z
 -------------------------------------------------------------------
      1       14           0.006681018   -0.024780669    0.002677207
      2        8          -0.001401341    0.004925293    0.001036335
      3        8          -0.001157197    0.004314263   -0.000425517
      4        8           0.018695954    0.012135585   -0.003227726
      5        8          -0.001847642    0.004429068   -0.003084954
      6        1           0.000789449    0.001263483   -0.000816624
      7        1          -0.015524744   -0.001288067    0.002469396
      8        1          -0.000839069   -0.000309682    0.000295205
      9       14          -0.003180729    0.023300539   -0.004849800
     10        8          -0.000444325   -0.003413759    0.001344514
     11        8           0.001663374   -0.009441206    0.001555167
     12        8          -0.009233995   -0.004508461    0.004926175
     13        8          -0.010269315   -0.006664968   -0.003089794
     14        1           0.008410749    0.001508545    0.000183668
     15        1           0.007412168   -0.000070397    0.000902900
     16        1           0.000988170   -0.000330970   -0.000270956
     17        1          -0.000913806   -0.000845590   -0.000335252
     18        1           0.000171283   -0.000223005    0.000710056
 -------------------------------------------------------------------
 Cartesian Forces:  Max     0.024780669 RMS     0.006954449

 GradGradGradGradGradGradGradGradGradGradGradGradGradGradGradGradGradGrad
 Berny optimization.
 FormGI is forming the generalized inverse of G from B-inverse, IUseBI=4.
 Internal  Forces:  Max     0.014870810 RMS     0.003056817
 Search for a local minimum.
 Step number   1 out of a maximum of  101
 All quantities printed in internal units (Hartrees-Bohrs-Radians)
 Mixed Optimization -- RFO/linear search
 Second derivative matrix not updated -- first step.
 ITU=  0
     Eigenvalues ---    0.00619   0.01121   0.01311   0.01637   0.02716
     Eigenvalues ---    0.02969   0.03135   0.03294   0.03649   0.03758
     Eigenvalues ---    0.03781   0.04137   0.05458   0.05626   0.07058
     Eigenvalues ---    0.07747   0.08851   0.09553   0.10817   0.10966
     Eigenvalues ---    0.11557   0.12251   0.12726   0.12952   0.15158
     Eigenvalues ---    0.15849   0.16000   0.16000   0.16877   0.17321
     Eigenvalues ---    0.20861   0.36207   0.38297   0.39189   0.41898
     Eigenvalues ---    0.43066   0.43581   0.43853   0.44287   0.46922
     Eigenvalues ---    0.48082   0.49290   0.54217   0.54251   0.54349
     Eigenvalues ---    0.54558   0.547081000.000001000.000001000.00000
     Eigenvalues --- 1000.000001000.000001000.000001000.000001000.00000
     Eigenvalues --- 1000.000001000.000001000.000001000.000001000.00000
     Eigenvalues --- 1000.000001000.000001000.000001000.000001000.00000
     Eigenvalues --- 1000.000001000.000001000.000001000.000001000.00000
     Eigenvalues --- 1000.000001000.000001000.000001000.000001000.00000
     Eigenvalues --- 1000.000001000.000001000.000001000.000001000.00000
     Eigenvalues --- 1000.000001000.000001000.000001000.000001000.00000
     Eigenvalues --- 1000.000001000.000001000.000001000.000001000.00000
     Eigenvalues --- 1000.00000
 RFO step:  Lambda=-2.49534040D-03 EMin= 6.19320713D-03
 Linear search not attempted -- first point.
 Iteration  1 RMS(Cart)=  0.01081969 RMS(Int)=  0.00015805
 Iteration  2 RMS(Cart)=  0.00020116 RMS(Int)=  0.00008382
 Iteration  3 RMS(Cart)=  0.00000002 RMS(Int)=  0.00008382
 Iteration  1 RMS(Cart)=  0.00000135 RMS(Int)=  0.00000098
 Iteration  2 RMS(Cart)=  0.00000052 RMS(Int)=  0.00000108
 Variable       Old X    -DE/DX   Delta X   Delta X   Delta X     New X
                                 (Linear)    (Quad)   (Total)
    R1        3.14986  -0.00451   0.00000  -0.01152  -0.01153   3.13834
    R2        3.10659   0.00211   0.00000   0.00481   0.00481   3.11140
    R3        3.07110   0.01107   0.00000   0.02349   0.02351   3.09461
    R4        3.14826  -0.00518   0.00000  -0.01335  -0.01336   3.13490
    R5       10.20454  -0.00720   0.00000   0.00000  -0.00000  10.20453
    R6        6.38434   0.00040   0.00000   0.01970   0.01968   6.40402
    R7        1.82415  -0.00072   0.00000  -0.00132  -0.00132   1.82283
    R8        1.82227   0.00019   0.00000   0.00034   0.00034   1.82262
    R9        1.85631  -0.01487   0.00000  -0.03074  -0.03068   1.82562
   R10        1.82535  -0.00159   0.00000  -0.00293  -0.00293   1.82242
   R11        6.42936   0.00033   0.00000   0.00989   0.00988   6.43924
   R12        6.14122   0.00098   0.00000   0.00467   0.00473   6.14595
   R13        3.10331   0.00026   0.00000   0.00060   0.00060   3.10391
   R14        3.17719  -0.00904   0.00000  -0.02503  -0.02501   3.15218
   R15        3.11271   0.00655   0.00000   0.01543   0.01542   3.12814
   R16        3.08903   0.00600   0.00000   0.01332   0.01331   3.10234
   R17        1.82092   0.00058   0.00000   0.00105   0.00105   1.82197
   R18        1.82504  -0.00123   0.00000  -0.00225  -0.00225   1.82279
   R19        1.83863  -0.00693   0.00000  -0.01339  -0.01341   1.82522
   R20        1.83815  -0.00811   0.00000  -0.01565  -0.01566   1.82249
    A1        1.87439   0.00087   0.00000   0.01127   0.01099   1.88538
    A2        1.99831  -0.00103   0.00000  -0.00591  -0.00583   1.99248
    A3        1.80005   0.00236   0.00000   0.01925   0.01910   1.81915
    A4        1.91196  -0.00117   0.00000  -0.01897  -0.01890   1.89306
    A5        1.98485   0.00099   0.00000   0.01006   0.00973   1.99458
    A6        1.89452  -0.00179   0.00000  -0.01297  -0.01295   1.88157
    A7        1.91475  -0.00021   0.00000  -0.00346  -0.00348   1.91127
    A8        2.03709   0.00049   0.00000   0.00151   0.00153   2.03861
    A9        2.02644  -0.00035   0.00000   0.00146   0.00145   2.02788
   A10        2.04203   0.00152   0.00000   0.00936   0.00936   2.05139
   A11        2.07268  -0.00022   0.00000   0.00315   0.00313   2.07581
   A12        2.01966  -0.00112   0.00000  -0.00548  -0.00547   2.01419
   A13        2.03158   0.00152   0.00000   0.00363   0.00358   2.03516
   A14        1.87453  -0.00023   0.00000  -0.00427  -0.00424   1.87029
   A15        1.86688   0.00418   0.00000   0.02920   0.02922   1.89611
   A16        1.88203  -0.00120   0.00000  -0.00816  -0.00852   1.87351
   A17        1.94527  -0.00107   0.00000  -0.00922  -0.00945   1.93581
   A18        1.92300   0.00051   0.00000   0.00873   0.00866   1.93166
   A19        1.85812  -0.00056   0.00000   0.00062   0.00065   1.85876
   A20        1.98530  -0.00143   0.00000  -0.01766  -0.01774   1.96756
   A21        2.03712   0.00146   0.00000   0.00901   0.00901   2.04613
   A22        1.98287   0.00227   0.00000   0.00583   0.00580   1.98866
   A23        2.00989  -0.00116   0.00000  -0.00587  -0.00585   2.00404
   A24        2.00201  -0.00077   0.00000  -0.00249  -0.00248   1.99953
   A25        2.02584   0.00088   0.00000   0.00885   0.00881   2.03464
   A26        2.09408   0.00014   0.00000   0.00287   0.00283   2.09691
   A27        2.86691  -0.00210   0.00000  -0.00813  -0.00817   2.85874
   A28        3.00159  -0.00008   0.00000  -0.00369  -0.00370   2.99789
   A29        2.99628  -0.00022   0.00000  -0.00266  -0.00266   2.99362
   A30        3.28639  -0.00017   0.00000  -0.00788  -0.00786   3.27853
   A31        3.31055  -0.00042   0.00000  -0.00400  -0.00393   3.30662
    D1        3.12855  -0.00205   0.00000  -0.01802  -0.01813   3.11041
    D2        0.77736  -0.00179   0.00000  -0.01805  -0.01813   0.75922
    D3        1.00147  -0.00052   0.00000   0.00183   0.00179   1.00326
    D4       -1.34972  -0.00026   0.00000   0.00181   0.00179  -1.34793
    D5       -1.05326   0.00065   0.00000   0.00821   0.00827  -1.04499
    D6        2.87874   0.00091   0.00000   0.00819   0.00827   2.88701
    D7       -2.64796   0.00158   0.00000   0.01054   0.01061  -2.63735
    D8       -0.46788   0.00013   0.00000  -0.00135  -0.00135  -0.46923
    D9        1.65533  -0.00235   0.00000  -0.02512  -0.02518   1.63014
   D10       -0.92273  -0.00083   0.00000  -0.01197  -0.01196  -0.93469
   D11       -3.02915  -0.00038   0.00000  -0.00846  -0.00841  -3.03756
   D12        1.07741   0.00034   0.00000   0.00002  -0.00008   1.07732
   D13       -1.03287  -0.00082   0.00000  -0.00637  -0.00646  -1.03932
   D14        1.19364  -0.00078   0.00000  -0.01460  -0.01467   1.17897
   D15        0.99115   0.00210   0.00000   0.02341   0.02349   1.01464
   D16       -3.06553   0.00214   0.00000   0.01517   0.01528  -3.05025
   D17        3.12402  -0.00004   0.00000  -0.00364  -0.00360   3.12042
   D18       -0.93265   0.00000   0.00000  -0.01187  -0.01182  -0.94447
   D19        0.03041  -0.00114   0.00000  -0.01526  -0.01526   0.01515
   D20        2.35920  -0.00079   0.00000  -0.01436  -0.01439   2.34481
   D21       -0.13740  -0.00004   0.00000  -0.00334  -0.00338  -0.14078
   D22       -2.47522  -0.00027   0.00000  -0.00164  -0.00166  -2.47687
   D23       -0.24655   0.00126   0.00000   0.02556   0.02556  -0.22098
   D24        2.04947   0.00077   0.00000   0.01694   0.01696   2.06643
   D25        2.66816   0.00056   0.00000   0.00855   0.00855   2.67671
   D26        0.60013  -0.00163   0.00000  -0.01296  -0.01287   0.58726
   D27       -1.59061   0.00176   0.00000   0.02151   0.02142  -1.56919
   D28       -3.12474  -0.00009   0.00000   0.00310   0.00303  -3.12171
   D29       -0.76187  -0.00022   0.00000  -0.00230  -0.00236  -0.76424
   D30       -1.08356   0.00112   0.00000   0.01458   0.01466  -1.06890
   D31        1.27930   0.00099   0.00000   0.00918   0.00927   1.28857
   D32        1.07682  -0.00068   0.00000  -0.00138  -0.00145   1.07537
   D33       -2.84351  -0.00081   0.00000  -0.00679  -0.00684  -2.85035
   D34        3.11142   0.00237   0.00000   0.01584   0.01566   3.12708
   D35        1.07969  -0.00221   0.00000  -0.01914  -0.01921   1.06048
   D36       -1.00498  -0.00090   0.00000  -0.01432  -0.01426  -1.01924
   D37       -3.13334  -0.00261   0.00000  -0.01522  -0.01511   3.13473
   D38       -1.10356   0.00149   0.00000   0.01522   0.01522  -1.08834
   D39        1.01761   0.00085   0.00000   0.01571   0.01564   1.03325
   D40        0.06564   0.00166   0.00000   0.00538   0.00535   0.07099
         Item               Value     Threshold  Converged?
 Maximum Force            0.013376     0.000450     NO 
 RMS     Force            0.002918     0.000300     NO 
 Maximum Displacement     0.040619     0.001800     NO 
 RMS     Displacement     0.010800     0.001200     NO 
 Predicted change in Energy=-1.266382D-03
 GradGradGradGradGradGradGradGradGradGradGradGradGradGradGradGradGradGrad

                          Input orientation:                          
 ---------------------------------------------------------------------
 Center     Atomic      Atomic             Coordinates (Angstroms)
 Number     Number       Type             X           Y           Z
 ---------------------------------------------------------------------
      1         14           0       -1.970747    0.011410    0.021387
      2          8           0       -1.499180   -1.049464   -1.166139
      3          8           0       -3.615470    0.087044    0.013163
      4          8           0       -1.380879    1.528046   -0.161905
      5          8           0       -1.323837   -0.619827    1.412452
      6          1           0       -1.615300   -1.511302    1.636852
      7          1           0       -0.428101    1.649640   -0.265531
      8          1           0       -4.025425    0.910339    0.303605
      9         14           0        3.428526   -0.036875   -0.053334
     10          8           0        5.068204    0.031512   -0.121493
     11          8           0        2.817323    1.478382   -0.389273
     12          8           0        3.017506   -0.506130    1.479966
     13          8           0        2.835624   -1.044764   -1.205619
     14          1           0        1.884897   -1.187999   -1.281151
     15          1           0        2.073541   -0.577827    1.671497
     16          1           0        5.558860   -0.607783    0.407786
     17          1           0        3.278117    2.203058    0.049958
     18          1           0       -1.951548   -0.980909   -2.015323
 ---------------------------------------------------------------------
                    Distance matrix (angstroms):
                    1          2          3          4          5
     1  Si   0.000000
     2  O    1.660737   0.000000
     3  O    1.646482   2.676021   0.000000
     4  O    1.637597   2.768761   2.664682   0.000000
     5  O    1.658920   2.620013   2.776555   2.663684   0.000000
     6  H    2.248271   2.843156   3.031791   3.539507   0.964383
     7  H    2.268452   3.040307   3.560715   0.966079   2.961157
     8  H    2.260403   3.518933   0.964487   2.755338   3.296897
     9  Si   5.400006   5.152277   7.045400   5.058769   5.007327
    10  O    7.040430   6.737234   8.684896   6.620568   6.605712
    11  O    5.024566   5.062186   6.593831   4.204648   4.979749
    12  O    5.222832   5.262845   6.819072   5.116581   4.343357
    13  O    5.071711   4.334987   6.662060   5.048524   4.933152
    14  H    4.242780   3.388864   5.792670   4.392597   4.227800
    15  H    4.407531   4.586824   5.962966   4.441743   3.407499
    16  H    7.564899   7.244878   9.209064   7.283289   6.955647
    17  H    5.688121   5.905960   7.211132   4.712407   5.568039
    18  H    2.265669   0.964599   2.832652   3.171069   3.503433
                    6          7          8          9         10
     6  H    0.000000
     7  H    3.875572   0.000000
     8  H    3.667505   3.716345   0.000000
     9  Si   5.520041   4.214610   7.522368   0.000000
    10  O    7.081051   5.731358   9.145881   1.642518   0.000000
    11  O    5.717652   3.252295   6.901156   1.668061   2.689164
    12  O    4.743193   4.423383   7.279636   1.655338   2.656895
    13  O    5.301701   4.335376   7.292063   1.641687   2.705201
    14  H    4.568441   3.799163   6.468878   2.283728   3.600758
    15  H    3.805276   3.869354   6.425197   2.259127   3.543179
    16  H    7.334544   6.433741   9.704333   2.253196   0.964147
    17  H    6.345096   3.760567   7.421401   2.247353   2.819471
    18  H    3.705774   3.507484   3.640771   5.803947   7.340879
                   11         12         13         14         15
    11  O    0.000000
    12  O    2.733572   0.000000
    13  O    2.651985   2.745101   0.000000
    14  H    2.962170   3.061293   0.964419   0.000000
    15  H    3.004660   0.965865   3.012740   3.020931   0.000000
    16  H    3.536017   2.760142   3.195316   4.084993   3.707468
    17  H    0.964579   3.074498   3.510075   3.900280   3.437109
    18  H    5.606628   6.093764   4.855586   3.911548   5.473249
                   16         17         18
    16  H    0.000000
    17  H    3.637397   0.000000
    18  H    7.900438   6.461613   0.000000
 Stoichiometry    H8O8Si2
 Framework group  C1[X(H8O8Si2)]
 Deg. of freedom    48
 Full point group                 C1      NOp   1
 Largest Abelian subgroup         C1      NOp   1
 Largest concise Abelian subgroup C1      NOp   1
                         Standard orientation:                         
 ---------------------------------------------------------------------
 Center     Atomic      Atomic             Coordinates (Angstroms)
 Number     Number       Type             X           Y           Z
 ---------------------------------------------------------------------
      1         14           0       -2.696318    0.014938    0.018365
      2          8           0       -2.215380   -1.055024   -1.157190
      3          8           0       -4.341219    0.085023    0.001338
      4          8           0       -2.110527    1.531813   -0.175701
      5          8           0       -2.054258   -0.601579    1.418250
      6          1           0       -2.343905   -1.491960    1.649250
      7          1           0       -1.157651    1.655636   -0.275717
      8          1           0       -4.755311    0.909535    0.282306
      9         14           0        2.703389   -0.016060   -0.029260
     10          8           0        4.343152    0.057164   -0.089938
     11          8           0        2.088893    1.494066   -0.381883
     12          8           0        2.286301   -0.472838    1.506167
     13          8           0        2.119529   -1.036262   -1.175310
     14          1           0        1.169663   -1.183333   -1.254237
     15          1           0        1.341636   -0.545946    1.693675
     16          1           0        4.833269   -0.575699    0.447509
     17          1           0        2.545120    2.224201    0.053057
     18          1           0       -2.663747   -0.995631   -2.009182
 ---------------------------------------------------------------------
 Rotational constants (GHZ):           1.9571024           0.3062530           0.3053176
 Standard basis: 6-31+G(d,p) (6D, 7F)
 There are   238 symmetry adapted cartesian basis functions of A   symmetry.
 There are   238 symmetry adapted basis functions of A   symmetry.
   238 basis functions,   424 primitive gaussians,   238 cartesian basis functions
    50 alpha electrons       50 beta electrons
       nuclear repulsion energy       775.0932913027 Hartrees.
 NAtoms=   18 NActive=   18 NUniq=   18 SFac= 1.00D+00 NAtFMM=   60 NAOKFM=F Big=F
 Integral buffers will be    131072 words long.
 Raffenetti 2 integral format.
 Two-electron integral symmetry is turned on.
 Nuclear repulsion after empirical dispersion term =      775.0827743378 Hartrees.
 One-electron integrals computed using PRISM.
 NBasis=   238 RedAO= T EigKep=  3.53D-04  NBF=   238
 NBsUse=   238 1.00D-06 EigRej= -1.00D+00 NBFU=   238
 Initial guess from the checkpoint file:  "/localscratch/sarashs.37136505.0/Gau-29746.chk"
 B after Tr=    -0.000000   -0.000000    0.000000
         Rot=    0.999997    0.002607   -0.000019   -0.000005 Ang=   0.30 deg.
 ExpMin= 3.31D-02 ExpMax= 1.61D+04 ExpMxC= 2.43D+03 IAcc=3 IRadAn=         5 AccDes= 0.00D+00
 Harris functional with IExCor=  402 and IRadAn=       5 diagonalized for initial guess.
 HarFok:  IExCor=  402 AccDes= 0.00D+00 IRadAn=         5 IDoV= 1 UseB2=F ITyADJ=14
 ICtDFT=  3500011 ScaDFX=  1.000000  1.000000  1.000000  1.000000
 FoFCou: FMM=F IPFlag=           0 FMFlag=      100000 FMFlg1=           0
         NFxFlg=           0 DoJE=T BraDBF=F KetDBF=T FulRan=T
         wScrn=  0.000000 ICntrl=       500 IOpCl=  0 I1Cent=   200000004 NGrid=           0
         NMat0=    1 NMatS0=      1 NMatT0=    0 NMatD0=    1 NMtDS0=    0 NMtDT0=    0
 Petite list used in FoFCou.
 Requested convergence on RMS density matrix=1.00D-08 within 128 cycles.
 Requested convergence on MAX density matrix=1.00D-06.
 Requested convergence on             energy=1.00D-06.
 No special actions if energy rises.
 SCF Done:  E(RB3LYP) =  -1186.04868669     A.U. after    9 cycles
            NFock=  9  Conv=0.95D-08     -V/T= 2.0067
 Calling FoFJK, ICntrl=      2127 FMM=F ISym2X=0 I1Cent= 0 IOpClX= 0 NMat=1 NMatS=1 NMatT=0.
 ***** Axes restored to original set *****
 -------------------------------------------------------------------
 Center     Atomic                   Forces (Hartrees/Bohr)
 Number     Number              X              Y              Z
 -------------------------------------------------------------------
      1       14           0.005619697   -0.009485671    0.000782050
      2        8          -0.001008515    0.002494186    0.000938159
      3        8           0.000156891    0.002014401   -0.000562561
      4        8           0.001412356    0.003713287   -0.001116587
      5        8          -0.001171650    0.002489260   -0.001852711
      6        1           0.000733602   -0.000549866    0.000371842
      7        1          -0.000526108    0.000413921    0.000723272
      8        1           0.000196786   -0.000439512    0.000229124
      9       14          -0.004375488    0.008640455   -0.001884689
     10        8          -0.000936112   -0.001184359    0.000835835
     11        8           0.001659528   -0.004924400    0.000723159
     12        8          -0.001152648   -0.001453395    0.000267497
     13        8          -0.000745506   -0.002646947   -0.000586418
     14        1           0.000480327    0.000523729   -0.000278565
     15        1           0.000776271   -0.000392686    0.001666749
     16        1          -0.000213122    0.000092403   -0.000457563
     17        1          -0.000772367    0.000917783    0.000063147
     18        1          -0.000133942   -0.000222589    0.000138261
 -------------------------------------------------------------------
 Cartesian Forces:  Max     0.009485671 RMS     0.002396530

 GradGradGradGradGradGradGradGradGradGradGradGradGradGradGradGradGradGrad
 Berny optimization.
 Using GEDIIS/GDIIS optimizer.
 FormGI is forming the generalized inverse of G from B-inverse, IUseBI=4.
 Internal  Forces:  Max     0.004082179 RMS     0.001019871
 Search for a local minimum.
 Step number   2 out of a maximum of  101
 All quantities printed in internal units (Hartrees-Bohrs-Radians)
 Mixed Optimization -- En-DIIS/RFO-DIIS
 Update second derivatives using D2CorX and points    1    2
 DE= -1.61D-03 DEPred=-1.27D-03 R= 1.27D+00
 TightC=F SS=  1.41D+00  RLast= 1.18D-01 DXNew= 5.0454D-01 3.5383D-01
 Trust test= 1.27D+00 RLast= 1.18D-01 DXMaxT set to 3.54D-01
 ITU=  1  0
 Use linear search instead of GDIIS.
     Eigenvalues ---    0.00620   0.01124   0.01311   0.01639   0.02708
     Eigenvalues ---    0.02950   0.03136   0.03261   0.03639   0.03743
     Eigenvalues ---    0.03776   0.04144   0.05439   0.05525   0.07073
     Eigenvalues ---    0.07450   0.08147   0.09032   0.10664   0.10906
     Eigenvalues ---    0.11632   0.12178   0.12483   0.13197   0.15197
     Eigenvalues ---    0.15841   0.16000   0.16085   0.16801   0.17307
     Eigenvalues ---    0.20393   0.33306   0.38292   0.39241   0.40601
     Eigenvalues ---    0.43193   0.43643   0.43828   0.44376   0.48057
     Eigenvalues ---    0.49137   0.49719   0.54236   0.54344   0.54448
     Eigenvalues ---    0.54613   0.550011000.000001000.000001000.00000
     Eigenvalues --- 1000.000001000.000001000.000001000.000001000.00000
     Eigenvalues --- 1000.000001000.000001000.000001000.000001000.00000
     Eigenvalues --- 1000.000001000.000001000.000001000.000001000.00000
     Eigenvalues --- 1000.000001000.000001000.000001000.000001000.00000
     Eigenvalues --- 1000.000001000.000001000.000001000.000001000.00000
     Eigenvalues --- 1000.000001000.000001000.000001000.000001000.00000
     Eigenvalues --- 1000.000001000.000001000.000001000.000001000.00000
     Eigenvalues --- 1000.000001000.000001000.000001000.000001000.00000
     Eigenvalues --- 1000.00000
 RFO step:  Lambda=-2.31134180D-04 EMin= 6.20313005D-03
 Quartic linear search produced a step of  0.38765.
 Iteration  1 RMS(Cart)=  0.00867394 RMS(Int)=  0.00010529
 Iteration  2 RMS(Cart)=  0.00008719 RMS(Int)=  0.00006586
 Iteration  3 RMS(Cart)=  0.00000001 RMS(Int)=  0.00006586
 Iteration  1 RMS(Cart)=  0.00000378 RMS(Int)=  0.00000273
 Iteration  2 RMS(Cart)=  0.00000145 RMS(Int)=  0.00000303
 Iteration  3 RMS(Cart)=  0.00000055 RMS(Int)=  0.00000329
 Variable       Old X    -DE/DX   Delta X   Delta X   Delta X     New X
                                 (Linear)    (Quad)   (Total)
    R1        3.13834  -0.00267  -0.00447  -0.00543  -0.00990   3.12844
    R2        3.11140  -0.00028   0.00186  -0.00233  -0.00047   3.11093
    R3        3.09461   0.00369   0.00911   0.00471   0.01385   3.10846
    R4        3.13490  -0.00194  -0.00518  -0.00195  -0.00713   3.12778
    R5       10.20453  -0.00378  -0.00000   0.00000  -0.00000  10.20453
    R6        6.40402  -0.00039   0.00763   0.01609   0.02372   6.42775
    R7        1.82283  -0.00008  -0.00051   0.00020  -0.00031   1.82252
    R8        1.82262  -0.00039   0.00013  -0.00109  -0.00096   1.82166
    R9        1.82562  -0.00117  -0.01189   0.00756  -0.00428   1.82134
   R10        1.82242   0.00037  -0.00113   0.00183   0.00069   1.82311
   R11        6.43924  -0.00049   0.00383   0.00475   0.00859   6.44783
   R12        6.14595  -0.00059   0.00183  -0.00656  -0.00468   6.14127
   R13        3.10391  -0.00121   0.00023  -0.00400  -0.00377   3.10014
   R14        3.15218  -0.00408  -0.00969  -0.00675  -0.01642   3.13576
   R15        3.12814   0.00186   0.00598   0.00186   0.00783   3.13597
   R16        3.10234   0.00188   0.00516   0.00259   0.00775   3.11009
   R17        1.82197  -0.00042   0.00041  -0.00138  -0.00097   1.82100
   R18        1.82279   0.00035  -0.00087   0.00157   0.00069   1.82348
   R19        1.82522  -0.00100  -0.00520   0.00281  -0.00238   1.82284
   R20        1.82249  -0.00090  -0.00607   0.00374  -0.00233   1.82016
    A1        1.88538  -0.00011   0.00426   0.00068   0.00471   1.89009
    A2        1.99248   0.00013  -0.00226  -0.00012  -0.00234   1.99014
    A3        1.81915   0.00109   0.00740   0.00574   0.01302   1.83217
    A4        1.89306  -0.00109  -0.00733  -0.00788  -0.01515   1.87791
    A5        1.99458   0.00027   0.00377   0.00334   0.00687   2.00144
    A6        1.88157  -0.00020  -0.00502  -0.00108  -0.00609   1.87548
    A7        1.91127  -0.00023  -0.00135  -0.00262  -0.00399   1.90727
    A8        2.03861   0.00030   0.00059   0.00185   0.00246   2.04108
    A9        2.02788   0.00001   0.00056   0.00165   0.00220   2.03008
   A10        2.05139  -0.00008   0.00363  -0.00355   0.00008   2.05147
   A11        2.07581  -0.00028   0.00121   0.00215   0.00334   2.07915
   A12        2.01419   0.00033  -0.00212   0.00679   0.00468   2.01886
   A13        2.03516   0.00059   0.00139   0.00199   0.00336   2.03852
   A14        1.87029  -0.00071  -0.00164  -0.00745  -0.00908   1.86121
   A15        1.89611   0.00086   0.01133   0.00317   0.01453   1.91064
   A16        1.87351  -0.00089  -0.00330  -0.00359  -0.00715   1.86636
   A17        1.93581  -0.00072  -0.00366  -0.00290  -0.00675   1.92907
   A18        1.93166   0.00068   0.00336   0.00310   0.00643   1.93808
   A19        1.85876   0.00045   0.00025   0.00368   0.00395   1.86271
   A20        1.96756  -0.00031  -0.00688  -0.00314  -0.01012   1.95744
   A21        2.04613   0.00001   0.00349  -0.00273   0.00077   2.04690
   A22        1.98866   0.00038   0.00225   0.00206   0.00428   1.99295
   A23        2.00404  -0.00097  -0.00227  -0.00877  -0.01104   1.99301
   A24        1.99953   0.00081  -0.00096   0.00988   0.00894   2.00846
   A25        2.03464   0.00087   0.00341   0.00435   0.00771   2.04236
   A26        2.09691  -0.00024   0.00110  -0.00086   0.00019   2.09711
   A27        2.85874  -0.00186  -0.00317  -0.00733  -0.01053   2.84821
   A28        2.99789  -0.00066  -0.00143  -0.00575  -0.00718   2.99071
   A29        2.99362  -0.00041  -0.00103  -0.00494  -0.00598   2.98763
   A30        3.27853   0.00022  -0.00305  -0.00289  -0.00591   3.27262
   A31        3.30662  -0.00016  -0.00152  -0.00361  -0.00507   3.30155
    D1        3.11041  -0.00088  -0.00703  -0.00737  -0.01448   3.09593
    D2        0.75922  -0.00095  -0.00703  -0.00891  -0.01600   0.74322
    D3        1.00326   0.00050   0.00070   0.00225   0.00290   1.00617
    D4       -1.34793   0.00043   0.00069   0.00071   0.00138  -1.34654
    D5       -1.04499  -0.00003   0.00321  -0.00003   0.00322  -1.04177
    D6        2.88701  -0.00009   0.00321  -0.00157   0.00170   2.88871
    D7       -2.63735   0.00048   0.00411  -0.00060   0.00355  -2.63380
    D8       -0.46923  -0.00010  -0.00053  -0.00522  -0.00573  -0.47496
    D9        1.63014  -0.00096  -0.00976  -0.01008  -0.01989   1.61026
   D10       -0.93469  -0.00099  -0.00463  -0.01121  -0.01582  -0.95051
   D11       -3.03756  -0.00016  -0.00326  -0.00634  -0.00956  -3.04712
   D12        1.07732   0.00031  -0.00003  -0.00490  -0.00503   1.07229
   D13       -1.03932   0.00026  -0.00250   0.00100  -0.00158  -1.04091
   D14        1.17897   0.00011  -0.00569  -0.00141  -0.00717   1.17181
   D15        1.01464   0.00098   0.00911   0.00726   0.01644   1.03108
   D16       -3.05025   0.00082   0.00592   0.00485   0.01085  -3.03939
   D17        3.12042  -0.00038  -0.00140  -0.00138  -0.00276   3.11766
   D18       -0.94447  -0.00053  -0.00458  -0.00380  -0.00834  -0.95281
   D19        0.01515  -0.00049  -0.00592  -0.00327  -0.00918   0.00596
   D20        2.34481  -0.00024  -0.00558  -0.00098  -0.00658   2.33823
   D21       -0.14078   0.00012  -0.00131   0.00384   0.00250  -0.13828
   D22       -2.47687  -0.00052  -0.00064  -0.00521  -0.00583  -2.48270
   D23       -0.22098   0.00035   0.00991   0.00776   0.01767  -0.20331
   D24        2.06643   0.00065   0.00657   0.01201   0.01859   2.08501
   D25        2.67671   0.00020   0.00331   0.00337   0.00669   2.68340
   D26        0.58726  -0.00058  -0.00499  -0.00003  -0.00494   0.58231
   D27       -1.56919   0.00085   0.00830   0.00808   0.01630  -1.55288
   D28       -3.12171   0.00005   0.00117   0.00122   0.00235  -3.11935
   D29       -0.76424  -0.00015  -0.00092   0.00065  -0.00029  -0.76453
   D30       -1.06890  -0.00012   0.00568   0.00055   0.00630  -1.06260
   D31        1.28857  -0.00032   0.00359  -0.00001   0.00366   1.29223
   D32        1.07537   0.00019  -0.00056   0.00091   0.00029   1.07566
   D33       -2.85035  -0.00001  -0.00265   0.00035  -0.00235  -2.85270
   D34        3.12708   0.00071   0.00607  -0.00085   0.00509   3.13218
   D35        1.06048  -0.00017  -0.00745  -0.00426  -0.01176   1.04872
   D36       -1.01924  -0.00101  -0.00553  -0.00899  -0.01444  -1.03368
   D37        3.13473  -0.00081  -0.00586   0.00310  -0.00267   3.13206
   D38       -1.08834   0.00010   0.00590   0.00751   0.01343  -1.07491
   D39        1.03325   0.00106   0.00606   0.01193   0.01791   1.05116
   D40        0.07099   0.00083   0.00207   0.00190   0.00395   0.07494
         Item               Value     Threshold  Converged?
 Maximum Force            0.003946     0.000450     NO 
 RMS     Force            0.000892     0.000300     NO 
 Maximum Displacement     0.025621     0.001800     NO 
 RMS     Displacement     0.008671     0.001200     NO 
 Predicted change in Energy=-2.581403D-04
 GradGradGradGradGradGradGradGradGradGradGradGradGradGradGradGradGradGrad

                          Input orientation:                          
 ---------------------------------------------------------------------
 Center     Atomic      Atomic             Coordinates (Angstroms)
 Number     Number       Type             X           Y           Z
 ---------------------------------------------------------------------
      1         14           0       -1.970237   -0.002148    0.019895
      2          8           0       -1.504605   -1.054802   -1.169973
      3          8           0       -3.613538    0.095516    0.009389
      4          8           0       -1.380301    1.522072   -0.165860
      5          8           0       -1.323586   -0.618467    1.413275
      6          1           0       -1.609997   -1.509130    1.648712
      7          1           0       -0.429696    1.648700   -0.262045
      8          1           0       -4.012790    0.922353    0.302978
      9         14           0        3.429204   -0.024575   -0.054949
     10          8           0        5.067677    0.029371   -0.116704
     11          8           0        2.813306    1.479911   -0.387668
     12          8           0        3.018998   -0.510779    1.477768
     13          8           0        2.841466   -1.042360   -1.207032
     14          1           0        1.892276   -1.184031   -1.288845
     15          1           0        2.078075   -0.584321    1.677059
     16          1           0        5.550996   -0.617628    0.409016
     17          1           0        3.264601    2.212371    0.049314
     18          1           0       -1.959740   -0.985501   -2.017432
 ---------------------------------------------------------------------
                    Distance matrix (angstroms):
                    1          2          3          4          5
     1  Si   0.000000
     2  O    1.655500   0.000000
     3  O    1.646234   2.676140   0.000000
     4  O    1.644924   2.768388   2.655771   0.000000
     5  O    1.655148   2.626086   2.779307   2.660600   0.000000
     6  H    2.248068   2.857010   3.045725   3.540284   0.964750
     7  H    2.275534   3.047735   3.552873   0.963814   2.957326
     8  H    2.259836   3.517061   0.963979   2.740341   3.292218
     9  Si   5.400006   5.162085   7.044059   5.053291   5.009730
    10  O    7.039311   6.743864   8.682383   6.618685   6.603694
    11  O    5.024429   5.067655   6.586238   4.199680   4.975988
    12  O    5.222698   5.269676   6.820137   5.117405   4.344397
    13  O    5.073449   4.346247   6.666448   5.048135   4.938963
    14  H    4.246016   3.401416   5.799710   4.392476   4.238288
    15  H    4.412930   4.600276   5.969737   4.449001   3.412043
    16  H    7.556400   7.243330   9.200922   7.276790   6.947547
    17  H    5.684056   5.908165   7.196629   4.700844   5.561069
    18  H    2.262254   0.964435   2.830486   3.170487   3.508441
                    6          7          8          9         10
     6  H    0.000000
     7  H    3.875047   0.000000
     8  H    3.673760   3.699377   0.000000
     9  Si   5.522672   4.211157   7.510529   0.000000
    10  O    7.076370   5.732753   9.133916   1.640524   0.000000
    11  O    5.713739   3.249820   6.883563   1.659370   2.694379
    12  O    4.738515   4.425357   7.271866   1.659484   2.651639
    13  O    5.309300   4.339966   7.288419   1.645787   2.700637
    14  H    4.582668   3.803976   6.468427   2.286697   3.595752
    15  H    3.802361   3.877553   6.423145   2.266874   3.540046
    16  H    7.321984   6.430804   9.687558   2.251439   0.963632
    17  H    6.337930   3.750000   7.395195   2.245416   2.836218
    18  H    3.719827   3.515883   3.638574   5.815103   7.350328
                   11         12         13         14         15
    11  O    0.000000
    12  O    2.735874   0.000000
    13  O    2.652169   2.742672   0.000000
    14  H    2.959223   3.062175   0.963185   0.000000
    15  H    3.010767   0.964605   3.018368   3.031626   0.000000
    16  H    3.539678   2.750393   3.183325   4.073055   3.697327
    17  H    0.964945   3.084858   3.514360   3.899935   3.446576
    18  H    5.613942   6.101607   4.869451   3.925338   5.487636
                   16         17         18
    16  H    0.000000
    17  H    3.655938   0.000000
    18  H    7.901527   6.464640   0.000000
 Stoichiometry    H8O8Si2
 Framework group  C1[X(H8O8Si2)]
 Deg. of freedom    48
 Full point group                 C1      NOp   1
 Largest Abelian subgroup         C1      NOp   1
 Largest concise Abelian subgroup C1      NOp   1
                         Standard orientation:                         
 ---------------------------------------------------------------------
 Center     Atomic      Atomic             Coordinates (Angstroms)
 Number     Number       Type             X           Y           Z
 ---------------------------------------------------------------------
      1         14           0       -2.695913    0.004080    0.019447
      2          8           0       -2.222473   -1.055366   -1.161277
      3          8           0       -4.339385    0.097613    0.001069
      4          8           0       -2.108885    1.528474   -0.173934
      5          8           0       -2.053908   -0.601295    1.419757
      6          1           0       -2.339181   -1.491066    1.659902
      7          1           0       -1.158176    1.656802   -0.266790
      8          1           0       -4.741943    0.925408    0.287349
      9         14           0        2.703844   -0.005513   -0.031529
     10          8           0        4.342438    0.052065   -0.086447
     11          8           0        2.085750    1.495186   -0.377033
     12          8           0        2.288073   -0.482453    1.502599
     13          8           0        2.123677   -1.032438   -1.179329
     14          1           0        1.175205   -1.176997   -1.264358
     15          1           0        1.346462   -0.556983    1.698244
     16          1           0        4.825011   -0.590203    0.445718
     17          1           0        2.533326    2.231668    0.057004
     18          1           0       -2.674034   -0.992865   -2.011172
 ---------------------------------------------------------------------
 Rotational constants (GHZ):           1.9554894           0.3062116           0.3053134
 Standard basis: 6-31+G(d,p) (6D, 7F)
 There are   238 symmetry adapted cartesian basis functions of A   symmetry.
 There are   238 symmetry adapted basis functions of A   symmetry.
   238 basis functions,   424 primitive gaussians,   238 cartesian basis functions
    50 alpha electrons       50 beta electrons
       nuclear repulsion energy       775.1602709991 Hartrees.
 NAtoms=   18 NActive=   18 NUniq=   18 SFac= 1.00D+00 NAtFMM=   60 NAOKFM=F Big=F
 Integral buffers will be    131072 words long.
 Raffenetti 2 integral format.
 Two-electron integral symmetry is turned on.
 Nuclear repulsion after empirical dispersion term =      775.1497696723 Hartrees.
 One-electron integrals computed using PRISM.
 NBasis=   238 RedAO= T EigKep=  3.52D-04  NBF=   238
 NBsUse=   238 1.00D-06 EigRej= -1.00D+00 NBFU=   238
 Initial guess from the checkpoint file:  "/localscratch/sarashs.37136505.0/Gau-29746.chk"
 B after Tr=     0.000000    0.000000    0.000000
         Rot=    0.999999   -0.001272   -0.000103   -0.000018 Ang=  -0.15 deg.
 ExpMin= 3.31D-02 ExpMax= 1.61D+04 ExpMxC= 2.43D+03 IAcc=3 IRadAn=         5 AccDes= 0.00D+00
 Harris functional with IExCor=  402 and IRadAn=       5 diagonalized for initial guess.
 HarFok:  IExCor=  402 AccDes= 0.00D+00 IRadAn=         5 IDoV= 1 UseB2=F ITyADJ=14
 ICtDFT=  3500011 ScaDFX=  1.000000  1.000000  1.000000  1.000000
 FoFCou: FMM=F IPFlag=           0 FMFlag=      100000 FMFlg1=           0
         NFxFlg=           0 DoJE=T BraDBF=F KetDBF=T FulRan=T
         wScrn=  0.000000 ICntrl=       500 IOpCl=  0 I1Cent=   200000004 NGrid=           0
         NMat0=    1 NMatS0=      1 NMatT0=    0 NMatD0=    1 NMtDS0=    0 NMtDT0=    0
 Petite list used in FoFCou.
 Requested convergence on RMS density matrix=1.00D-08 within 128 cycles.
 Requested convergence on MAX density matrix=1.00D-06.
 Requested convergence on             energy=1.00D-06.
 No special actions if energy rises.
 SCF Done:  E(RB3LYP) =  -1186.04899805     A.U. after    9 cycles
            NFock=  9  Conv=0.43D-08     -V/T= 2.0067
 Calling FoFJK, ICntrl=      2127 FMM=F ISym2X=0 I1Cent= 0 IOpClX= 0 NMat=1 NMatS=1 NMatT=0.
 ***** Axes restored to original set *****
 -------------------------------------------------------------------
 Center     Atomic                   Forces (Hartrees/Bohr)
 Number     Number              X              Y              Z
 -------------------------------------------------------------------
      1       14           0.005518759   -0.000723486    0.000165019
      2        8          -0.000366360    0.000338557   -0.000010832
      3        8          -0.000026136    0.000270407   -0.000569825
      4        8          -0.001704248    0.000060187   -0.000561057
      5        8          -0.000861654    0.000427063   -0.000728897
      6        1           0.000906197   -0.000215480    0.000377532
      7        1           0.001601953    0.000399878    0.000517678
      8        1           0.000238730   -0.000000402    0.000357595
      9       14          -0.005410164    0.000196789   -0.000006161
     10        8          -0.000081617    0.000378271    0.000124903
     11        8           0.001047961   -0.000761363    0.000224437
     12        8           0.000462881    0.000016122   -0.001334294
     13        8           0.001052493   -0.000670785    0.000437215
     14        1          -0.000710527    0.000455424   -0.000288694
     15        1          -0.000315709   -0.000366363    0.001454501
     16        1          -0.000164540   -0.000173871   -0.000142782
     17        1          -0.001000848    0.000532633   -0.000132745
     18        1          -0.000187171   -0.000163581    0.000116405
 -------------------------------------------------------------------
 Cartesian Forces:  Max     0.005518759 RMS     0.001217694

 GradGradGradGradGradGradGradGradGradGradGradGradGradGradGradGradGradGrad
 Berny optimization.
 Using GEDIIS/GDIIS optimizer.
 FormGI is forming the generalized inverse of G from B-inverse, IUseBI=4.
 Internal  Forces:  Max     0.003031970 RMS     0.000528382
 Search for a local minimum.
 Step number   3 out of a maximum of  101
 All quantities printed in internal units (Hartrees-Bohrs-Radians)
 Mixed Optimization -- En-DIIS/RFO-DIIS
 Swapping is turned off.
 Update second derivatives using D2CorX and points    1    2    3
 DE= -3.11D-04 DEPred=-2.58D-04 R= 1.21D+00
 TightC=F SS=  1.41D+00  RLast= 8.39D-02 DXNew= 5.9507D-01 2.5181D-01
 Trust test= 1.21D+00 RLast= 8.39D-02 DXMaxT set to 3.54D-01
 ITU=  1  1  0
     Eigenvalues ---    0.00619   0.01127   0.01294   0.01645   0.02510
     Eigenvalues ---    0.02913   0.03107   0.03141   0.03591   0.03706
     Eigenvalues ---    0.03774   0.04138   0.05221   0.05539   0.06838
     Eigenvalues ---    0.07112   0.08210   0.08993   0.10616   0.10866
     Eigenvalues ---    0.11675   0.12087   0.12423   0.13753   0.15235
     Eigenvalues ---    0.15834   0.16001   0.16197   0.16787   0.17293
     Eigenvalues ---    0.19802   0.36001   0.38423   0.39241   0.40408
     Eigenvalues ---    0.43124   0.43639   0.43869   0.44295   0.48069
     Eigenvalues ---    0.49317   0.53128   0.54257   0.54343   0.54493
     Eigenvalues ---    0.54622   0.553691000.000001000.000001000.00000
     Eigenvalues --- 1000.000001000.000001000.000001000.000001000.00000
     Eigenvalues --- 1000.000001000.000001000.000001000.000001000.00000
     Eigenvalues --- 1000.000001000.000001000.000001000.000001000.00000
     Eigenvalues --- 1000.000001000.000001000.000001000.000001000.00000
     Eigenvalues --- 1000.000001000.000001000.000001000.000001000.00000
     Eigenvalues --- 1000.000001000.000001000.000001000.000001000.00000
     Eigenvalues --- 1000.000001000.000001000.000001000.000001000.00000
     Eigenvalues --- 1000.000001000.000001000.000001000.000001000.00000
     Eigenvalues --- 1000.00000
 En-DIIS/RFO-DIIS/Sim-DIIS IScMMF=       -3 using points:     3    2
 RFO step:  Lambda=-1.10071038D-04.
 DidBck=F Rises=F RFO-DIIS coefs:    1.58703   -0.58703
 Iteration  1 RMS(Cart)=  0.00646066 RMS(Int)=  0.00005394
 Iteration  2 RMS(Cart)=  0.00003015 RMS(Int)=  0.00002738
 Iteration  3 RMS(Cart)=  0.00000000 RMS(Int)=  0.00002738
 Iteration  1 RMS(Cart)=  0.00000486 RMS(Int)=  0.00000350
 Iteration  2 RMS(Cart)=  0.00000186 RMS(Int)=  0.00000389
 Iteration  3 RMS(Cart)=  0.00000071 RMS(Int)=  0.00000421
 Variable       Old X    -DE/DX   Delta X   Delta X   Delta X     New X
                                 (Linear)    (Quad)   (Total)
    R1        3.12844  -0.00055  -0.00581   0.00240  -0.00340   3.12504
    R2        3.11093  -0.00019  -0.00027  -0.00000  -0.00028   3.11065
    R3        3.10846  -0.00007   0.00813  -0.00406   0.00407   3.11253
    R4        3.12778  -0.00029  -0.00418   0.00225  -0.00192   3.12586
    R5       10.20453  -0.00303  -0.00000   0.00000  -0.00000  10.20453
    R6        6.42775  -0.00054   0.01392   0.00629   0.02024   6.44799
    R7        1.82252  -0.00003  -0.00018  -0.00002  -0.00020   1.82232
    R8        1.82166   0.00001  -0.00056   0.00047  -0.00009   1.82157
    R9        1.82134   0.00067  -0.00251   0.00327   0.00079   1.82213
   R10        1.82311   0.00002   0.00041  -0.00047  -0.00006   1.82305
   R11        6.44783  -0.00062   0.00504   0.00290   0.00797   6.45580
   R12        6.14127  -0.00090  -0.00275  -0.01047  -0.01319   6.12808
   R13        3.10014  -0.00024  -0.00221   0.00105  -0.00117   3.09897
   R14        3.13576  -0.00046  -0.00964   0.00521  -0.00442   3.13134
   R15        3.13597  -0.00029   0.00460  -0.00291   0.00169   3.13766
   R16        3.11009  -0.00023   0.00455  -0.00246   0.00209   3.11218
   R17        1.82100  -0.00004  -0.00057   0.00041  -0.00016   1.82084
   R18        1.82348  -0.00012   0.00041  -0.00075  -0.00035   1.82314
   R19        1.82284  -0.00006  -0.00140   0.00145   0.00008   1.82291
   R20        1.82016   0.00013  -0.00137   0.00174   0.00040   1.82055
    A1        1.89009  -0.00034   0.00277  -0.00167   0.00102   1.89111
    A2        1.99014   0.00051  -0.00138   0.00190   0.00052   1.99066
    A3        1.83217   0.00022   0.00765  -0.00304   0.00455   1.83672
    A4        1.87791  -0.00064  -0.00889   0.00217  -0.00670   1.87121
    A5        2.00144  -0.00002   0.00403  -0.00072   0.00323   2.00467
    A6        1.87548   0.00032  -0.00358   0.00134  -0.00225   1.87323
[...]
 ---------------------------------------------------------------------
 Center     Atomic      Atomic             Coordinates (Angstroms)
 Number     Number       Type             X           Y           Z
 ---------------------------------------------------------------------
      1         14           0       -1.987071   -0.010766   -0.431840
      2          8           0       -2.577065   -0.215072   -1.956409
      3          8           0       -3.306955    0.042980    0.556966
      4          8           0       -1.087275    1.336672   -0.146524
      5          8           0       -0.927708   -1.269828   -0.169316
      6          1           0       -1.185945   -2.125667   -0.532109
      7          1           0       -0.121211    1.267063   -0.193876
      8          1           0       -3.183651    0.477106    1.409021
      9         14           0        3.345702   -0.020763    0.417582
     10          8           0        4.381603   -0.199605   -0.850902
     11          8           0        2.309741    1.216136    0.001567
     12          8           0        4.296192    0.244546    1.740074
     13          8           0        2.347364   -1.283131    0.758851
     14          1           0        1.445335   -1.268995    0.403177
     15          1           0        3.900861    0.042844    2.596036
     16          1           0        5.247151   -0.573446   -0.650024
     17          1           0        2.701200    1.954981   -0.479700
     18          1           0       -3.446157    0.161494   -2.135673
 ---------------------------------------------------------------------
                    Distance matrix (angstroms):
                    1          2          3          4          5
     1  Si   0.000000
     2  O    1.647466   0.000000
     3  O    1.650066   2.629901   0.000000
     4  O    1.645184   2.811240   2.663741   0.000000
     5  O    1.666255   2.650772   2.812786   2.611480   0.000000
     6  H    2.263772   2.759388   3.223011   3.485141   0.964762
     7  H    2.273963   3.366670   3.494440   0.969726   2.662115
     8  H    2.249131   3.489008   0.964193   2.748339   3.260706
     9  Si   5.400008   6.383789   6.654422   4.670346   4.490729
    10  O    6.385240   7.045953   7.820158   5.724065   5.458821
    11  O    4.489512   5.455538   5.764723   3.402378   4.085376
    12  O    6.652954   7.817730   7.697287   5.808073   5.764394
    13  O    4.671615   5.723931   5.811252   4.413594   3.404081
    14  H    3.749907   4.781015   4.932463   3.675022   2.441123
    15  H    6.621076   7.921793   7.490689   5.837562   5.717111
    16  H    7.259351   7.940619   8.660805   6.635286   6.232569
    17  H    5.083929   5.894903   6.389706   3.853031   4.864638
    18  H    2.249812   0.963980   2.698838   3.301830   3.501118
                    6          7          8          9         10
     6  H    0.000000
     7  H    3.571929   0.000000
     8  H    3.812249   3.545680   0.000000
     9  Si   5.086095   3.748581   6.622935   0.000000
    10  O    5.899910   4.781018   7.924535   1.647462   0.000000
    11  O    4.865416   2.439327   5.718780   1.666194   2.650215
    12  O    6.390192   4.929417   7.490776   1.650092   2.630157
    13  O    3.854960   3.674920   5.840657   1.645210   2.811311
    14  H    2.921007   3.040087   5.048574   2.273694   3.367192
    15  H    6.353214   5.045729   7.196380   2.248979   3.488736
    16  H    6.618762   5.693404   8.741953   2.249611   0.963993
    17  H    5.635985   2.919063   6.354750   2.263639   2.757496
    18  H    3.593200   4.006011   3.568386   7.258214   7.940709
                   11         12         13         14         15
    11  O    0.000000
    12  O    2.812896   0.000000
    13  O    2.611749   2.663556   0.000000
    14  H    2.661647   3.493635   0.969722   0.000000
    15  H    3.261832   0.964179   2.747146   3.543891   0.000000
    16  H    3.500793   2.699260   3.301113   4.005849   3.567803
    17  H    0.964754   3.224435   3.484907   3.570810   3.815181
    18  H    6.229801   8.658653   6.635517   5.693746   8.739669
                   16         17         18
    16  H    0.000000
    17  H    3.592189   0.000000
    18  H    8.849909   6.614290   0.000000
 Stoichiometry    H8O8Si2
 Framework group  C1[X(H8O8Si2)]
 Deg. of freedom    48
 Full point group                 C1      NOp   1
 Largest Abelian subgroup         C1      NOp   1
 Largest concise Abelian subgroup C1      NOp   1
                         Standard orientation:                         
 ---------------------------------------------------------------------
 Center     Atomic      Atomic             Coordinates (Angstroms)
 Number     Number       Type             X           Y           Z
 ---------------------------------------------------------------------
      1         14           0       -2.699955    0.004194    0.013351
      2          8           0       -3.522103    1.431752   -0.003856
      3          8           0       -3.848482   -1.176618   -0.083027
      4          8           0       -1.762476   -0.309470    1.328409
      5          8           0       -1.616384    0.075005   -1.250479
      6          1           0       -1.930866    0.500826   -2.057041
      7          1           0       -0.815972   -0.103657    1.282164
      8          1           0       -3.591908   -2.048004    0.240271
      9         14           0        2.699987    0.004070   -0.013322
     10          8           0        3.523848    1.430735   -0.010018
     11          8           0        1.615417    0.090083    1.248627
     12          8           0        3.846709   -1.177354    0.096533
     13          8           0        1.763594   -0.322227   -1.326111
     14          1           0        0.817034   -0.116211   -1.282063
     15          1           0        3.589730   -2.051046   -0.220116
     16          1           0        4.409035    1.417179   -0.391518
     17          1           0        1.928902    0.526726    2.049763
     18          1           0       -4.407395    1.423238    0.377511
 ---------------------------------------------------------------------
 Rotational constants (GHZ):           2.0616171           0.3054991           0.3041100

 **********************************************************************

            Population analysis using the SCF Density.

 **********************************************************************

 Orbital symmetries:
       Occupied  (A) (A) (A) (A) (A) (A) (A) (A) (A) (A) (A) (A)
                 (A) (A) (A) (A) (A) (A) (A) (A) (A) (A) (A) (A)
                 (A) (A) (A) (A) (A) (A) (A) (A) (A) (A) (A) (A)
                 (A) (A) (A) (A) (A) (A) (A) (A) (A) (A) (A) (A)
                 (A) (A)
       Virtual   (A) (A) (A) (A) (A) (A) (A) (A) (A) (A) (A) (A)
                 (A) (A) (A) (A) (A) (A) (A) (A) (A) (A) (A) (A)
                 (A) (A) (A) (A) (A) (A) (A) (A) (A) (A) (A) (A)
                 (A) (A) (A) (A) (A) (A) (A) (A) (A) (A) (A) (A)
                 (A) (A) (A) (A) (A) (A) (A) (A) (A) (A) (A) (A)
                 (A) (A) (A) (A) (A) (A) (A) (A) (A) (A) (A) (A)
                 (A) (A) (A) (A) (A) (A) (A) (A) (A) (A) (A) (A)
                 (A) (A) (A) (A) (A) (A) (A) (A) (A) (A) (A) (A)
                 (A) (A) (A) (A) (A) (A) (A) (A) (A) (A) (A) (A)
                 (A) (A) (A) (A) (A) (A) (A) (A) (A) (A) (A) (A)
                 (A) (A) (A) (A) (A) (A) (A) (A) (A) (A) (A) (A)
                 (A) (A) (A) (A) (A) (A) (A) (A) (A) (A) (A) (A)
                 (A) (A) (A) (A) (A) (A) (A) (A) (A) (A) (A) (A)
                 (A) (A) (A) (A) (A) (A) (A) (A) (A) (A) (A) (A)
                 (A) (A) (A) (A) (A) (A) (A) (A) (A) (A) (A) (A)
                 (A) (A) (A) (A) (A) (A) (A) (A)
 The electronic state is 1-A.
 Alpha  occ. eigenvalues --  -66.22436 -66.22434 -19.17709 -19.17706 -19.17267
 Alpha  occ. eigenvalues --  -19.17267 -19.17154 -19.17151 -19.16314 -19.16309
 Alpha  occ. eigenvalues --   -5.35758  -5.35756  -3.71769  -3.71767  -3.71731
 Alpha  occ. eigenvalues --   -3.71730  -3.71704  -3.71702  -1.04839  -1.04751
 Alpha  occ. eigenvalues --   -1.01489  -1.01460  -1.01039  -1.01017  -1.00258
 Alpha  occ. eigenvalues --   -1.00137  -0.60011  -0.59835  -0.53969  -0.53889
 Alpha  occ. eigenvalues --   -0.53431  -0.53312  -0.53005  -0.52898  -0.41185
 Alpha  occ. eigenvalues --   -0.40990  -0.39339  -0.38963  -0.38657  -0.38596
 Alpha  occ. eigenvalues --   -0.37779  -0.37737  -0.36260  -0.36210  -0.35607
 Alpha  occ. eigenvalues --   -0.35570  -0.33377  -0.33332  -0.32487  -0.32398
 Alpha virt. eigenvalues --   -0.03310  -0.01674   0.01067   0.01459   0.01890
 Alpha virt. eigenvalues --    0.02282   0.03879   0.06392   0.09635   0.09653
 Alpha virt. eigenvalues --    0.10882   0.11032   0.11086   0.12722   0.12973
 Alpha virt. eigenvalues --    0.13998   0.14745   0.14761   0.15201   0.15331
 Alpha virt. eigenvalues --    0.16029   0.16355   0.16545   0.16728   0.16742
 Alpha virt. eigenvalues --    0.18567   0.18935   0.19032   0.19474   0.20057
 Alpha virt. eigenvalues --    0.20098   0.22052   0.22262   0.22417   0.22648
 Alpha virt. eigenvalues --    0.24658   0.24960   0.25669   0.26711   0.26909
 Alpha virt. eigenvalues --    0.27535   0.27951   0.28630   0.28854   0.30083
 Alpha virt. eigenvalues --    0.31123   0.34103   0.34469   0.35708   0.35918
 Alpha virt. eigenvalues --    0.36466   0.36573   0.40045   0.40558   0.41288
 Alpha virt. eigenvalues --    0.42952   0.45264   0.45478   0.46252   0.46623
 Alpha virt. eigenvalues --    0.48391   0.49436   0.60304   0.60474   0.62108
 Alpha virt. eigenvalues --    0.62608   0.67891   0.71070   0.92916   0.93201
 Alpha virt. eigenvalues --    0.94276   0.94761   0.95227   0.96414   0.98374
 Alpha virt. eigenvalues --    0.98444   0.99964   1.00188   1.01483   1.02261
 Alpha virt. eigenvalues --    1.08697   1.08892   1.15506   1.16025   1.16369
 Alpha virt. eigenvalues --    1.16732   1.16857   1.17643   1.18589   1.18655
 Alpha virt. eigenvalues --    1.19482   1.20002   1.21764   1.22828   1.23390
 Alpha virt. eigenvalues --    1.23610   1.25622   1.26023   1.27569   1.27752
 Alpha virt. eigenvalues --    1.30541   1.31237   1.32489   1.33607   1.35828
 Alpha virt. eigenvalues --    1.36402   1.45982   1.47703   1.48202   1.53091
 Alpha virt. eigenvalues --    1.53727   1.54796   1.55772   1.58337   1.60169
 Alpha virt. eigenvalues --    1.60680   1.61027   1.61276   1.62642   1.64088
 Alpha virt. eigenvalues --    1.65245   1.66530   1.70779   1.71715   1.73488
 Alpha virt. eigenvalues --    1.74301   1.74956   1.75076   1.87443   1.89106
 Alpha virt. eigenvalues --    1.89434   1.89608   1.92452   1.92686   2.03389
 Alpha virt. eigenvalues --    2.03460   2.10936   2.11227   2.33941   2.35868
 Alpha virt. eigenvalues --    2.37851   2.37961   2.38712   2.39328   2.40310
 Alpha virt. eigenvalues --    2.40582   2.45511   2.46812   2.58537   2.58901
 Alpha virt. eigenvalues --    2.59681   2.59742   2.60571   2.60756   2.62112
 Alpha virt. eigenvalues --    2.62202   2.64369   2.64604   2.65072   2.65216
 Alpha virt. eigenvalues --    2.66127   2.66952   2.69769   2.69943   2.79042
 Alpha virt. eigenvalues --    2.79336   2.80690   2.80799   2.83198   2.83940
 Alpha virt. eigenvalues --    3.00055   3.00749   3.38093   3.41796   3.42435
 Alpha virt. eigenvalues --    3.42607   3.44483   3.46090   3.54197   3.58874
 Alpha virt. eigenvalues --    4.11560   4.11596   4.16009   4.17096   4.18041
 Alpha virt. eigenvalues --    4.21999   4.23027   4.30049
          Condensed to atoms (all electrons):
               1          2          3          4          5          6
     1  Si  11.584024   0.076597   0.062514   0.105516   0.002259   0.024916
     2  O    0.076597   8.489113   0.031522  -0.013842   0.048718  -0.001431
     3  O    0.062514   0.031522   8.489968   0.034315   0.018291  -0.006236
     4  O    0.105516  -0.013842   0.034315   8.489935   0.052443   0.007862
     5  O    0.002259   0.048718   0.018291   0.052443   8.603685   0.238003
     6  H    0.024916  -0.001431  -0.006236   0.007862   0.238003   0.356368
     7  H    0.012430  -0.003556   0.004115   0.250341  -0.000573   0.000054
     8  H    0.024307   0.006302   0.244954  -0.001583  -0.006307   0.000068
     9  Si  -0.006172   0.000085   0.000034  -0.005635   0.000664  -0.000414
    10  O    0.000082  -0.000021   0.000002  -0.000087  -0.000204   0.000012
    11  O    0.000646  -0.000206   0.000089   0.000118   0.000195   0.000132
    12  O    0.000036   0.000002  -0.000011   0.000027   0.000086  -0.000005
    13  O   -0.005606  -0.000087   0.000027   0.002193   0.000106   0.000676
    14  H    0.001175   0.000049   0.000143  -0.001083   0.008192  -0.000481
    15  H   -0.000039  -0.000000   0.000000   0.000000   0.000011   0.000000
    16  H    0.000007   0.000000   0.000000   0.000001  -0.000003  -0.000000
    17  H   -0.000413   0.000012  -0.000005   0.000677   0.000132   0.000000
    18  H    0.026831   0.238959  -0.001838  -0.004863   0.004362   0.000093
               7          8          9         10         11         12
     1  Si   0.012430   0.024307  -0.006172   0.000082   0.000646   0.000036
     2  O   -0.003556   0.006302   0.000085  -0.000021  -0.000206   0.000002
     3  O    0.004115   0.244954   0.000034   0.000002   0.000089  -0.000011
     4  O    0.250341  -0.001583  -0.005635  -0.000087   0.000118   0.000027
     5  O   -0.000573  -0.006307   0.000664  -0.000204   0.000195   0.000086
     6  H    0.000054   0.000068  -0.000414   0.000012   0.000132  -0.000005
     7  H    0.314029   0.000055   0.001183   0.000050   0.008201   0.000143
     8  H    0.000055   0.358374  -0.000038  -0.000000   0.000011   0.000000
     9  Si   0.001183  -0.000038  11.585255   0.076226   0.001295   0.062497
    10  O    0.000050  -0.000000   0.076226   8.489573   0.049144   0.031230
    11  O    0.008201   0.000011   0.001295   0.049144   8.604397   0.018373
    12  O    0.000143   0.000000   0.062497   0.031230   0.018373   8.489927
    13  O   -0.001084   0.000000   0.105311  -0.013770   0.052552   0.034254
    14  H   -0.000143  -0.000000   0.012403  -0.003561  -0.000554   0.004107
    15  H   -0.000000  -0.000000   0.024275   0.006283  -0.006283   0.244923
    16  H   -0.000000   0.000000   0.026833   0.238920   0.004376  -0.001824
    17  H   -0.000481   0.000000   0.024881  -0.001405   0.238036  -0.006213
    18  H    0.000020   0.000073   0.000007   0.000000  -0.000003   0.000000
              13         14         15         16         17         18
     1  Si  -0.005606   0.001175  -0.000039   0.000007  -0.000413   0.026831
     2  O   -0.000087   0.000049  -0.000000   0.000000   0.000012   0.238959
     3  O    0.000027   0.000143   0.000000   0.000000  -0.000005  -0.001838
     4  O    0.002193  -0.001083   0.000000   0.000001   0.000677  -0.004863
     5  O    0.000106   0.008192   0.000011  -0.000003   0.000132   0.004362
     6  H    0.000676  -0.000481   0.000000  -0.000000   0.000000   0.000093
     7  H   -0.001084  -0.000143  -0.000000  -0.000000  -0.000481   0.000020
     8  H    0.000000  -0.000000  -0.000000   0.000000   0.000000   0.000073
     9  Si   0.105311   0.012403   0.024275   0.026833   0.024881   0.000007
    10  O   -0.013770  -0.003561   0.006283   0.238920  -0.001405   0.000000
    11  O    0.052552  -0.000554  -0.006283   0.004376   0.238036  -0.000003
    12  O    0.034254   0.004107   0.244923  -0.001824  -0.006213   0.000000
    13  O    8.490123   0.250397  -0.001544  -0.004874   0.007842   0.000001
    14  H    0.250397   0.314048   0.000055   0.000020   0.000055  -0.000000
    15  H   -0.001544   0.000055   0.358369   0.000073   0.000067   0.000000
    16  H   -0.004874   0.000020   0.000073   0.360132   0.000093  -0.000000
    17  H    0.007842   0.000055   0.000067   0.000093   0.356241  -0.000000
    18  H    0.000001  -0.000000   0.000000  -0.000000  -0.000000   0.360101
 Mulliken charges:
               1
     1  Si   2.090889
     2  O   -0.872218
     3  O   -0.877883
     4  O   -0.916335
     5  O   -0.970061
     6  H    0.380381
     7  H    0.415215
     8  H    0.373784
     9  Si   2.091310
    10  O   -0.872472
    11  O   -0.970520
    12  O   -0.877552
    13  O   -0.916517
    14  H    0.415179
    15  H    0.373811
    16  H    0.376247
    17  H    0.380482
    18  H    0.376258
 Sum of Mulliken charges =  -0.00000
 Mulliken charges with hydrogens summed into heavy atoms:
               1
     1  Si   2.090889
     2  O   -0.495959
     3  O   -0.504099
     4  O   -0.501120
     5  O   -0.589679
     9  Si   2.091310
    10  O   -0.496225
    11  O   -0.590038
    12  O   -0.503741
    13  O   -0.501338
 Electronic spatial extent (au):  <R**2>=           3506.2507
 Charge=             -0.0000 electrons
 Dipole moment (field-independent basis, Debye):
    X=             -0.0017    Y=             -0.7970    Z=             -0.0017  Tot=              0.7970
 Quadrupole moment (field-independent basis, Debye-Ang):
   XX=            -64.5717   YY=            -68.8869   ZZ=            -69.6306
   XY=              0.0112   XZ=              0.5639   YZ=              0.0175
 Traceless Quadrupole moment (field-independent basis, Debye-Ang):
   XX=              3.1247   YY=             -1.1905   ZZ=             -1.9342
   XY=              0.0112   XZ=              0.5639   YZ=              0.0175
 Octapole moment (field-independent basis, Debye-Ang**2):
  XXX=              0.0441  YYY=            -35.6981  ZZZ=             -0.2352  XYY=             -0.0147
  XXY=             20.2190  XXZ=             -0.1996  XZZ=             -0.0809  YZZ=             13.1149
  YYZ=              0.3211  XYZ=              3.6340
 Hexadecapole moment (field-independent basis, Debye-Ang**3):
 XXXX=          -3262.5119 YYYY=           -315.4403 ZZZZ=           -302.5340 XXXY=             -0.8282
 XXXZ=           -165.9613 YYYX=             -0.4308 YYYZ=             -0.1660 ZZZX=             73.3183
 ZZZY=              0.2768 XXYY=           -568.7538 XXZZ=           -625.5073 YYZZ=           -117.4870
 XXYZ=             -0.1394 YYXZ=            -29.7764 ZZXY=              0.7106
 N-N= 7.805929348376D+02 E-N=-4.371052303007D+03  KE= 1.178111596777D+03
 1\1\GINC-GRA782\FOpt\RB3LYP\6-31+G(d,p)\H8O8Si2\SARASHS\11-Aug-2020\0\
 \#n B3LYP/6-31+G(d,p) EmpiricalDispersion=GD3 Opt=modredundant\\Title\
 \0,1\Si,-1.9870711631,-0.0107662312,-0.4318400429\O,-2.5770653921,-0.2
 150715306,-1.956409049\O,-3.3069551859,0.0429802056,0.5569655029\O,-1.
 0872748124,1.3366724991,-0.1465243485\O,-0.9277084396,-1.2698279915,-0
 .1693158519\H,-1.1859449373,-2.1256673134,-0.5321086786\H,-0.121210673
 1,1.2670629345,-0.1938756375\H,-3.1836507413,0.4771061199,1.4090207632
 \Si,3.3457018945,-0.0207627864,0.4175824153\O,4.3816034665,-0.19960450
 86,-0.8509024226\O,2.309740631,1.2161359461,0.0015669547\O,4.296191926
 4,0.2445462839,1.740074175\O,2.3473635762,-1.2831309763,0.7588513807\H
 ,1.4453350582,-1.2689948939,0.4031765836\H,3.9008606615,0.0428437557,2
 .5960363438\H,5.2471508654,-0.5734462224,-0.650024267\H,2.7011998425,1
 .9549805776,-0.4797003302\H,-3.4461565777,0.1614941321,-2.1356734909\\
 Version=ES64L-G16RevB.01\State=1-A\HF=-1186.060868\RMSD=5.572e-09\RMSF
 =1.684e-03\Dipole=-0.0495039,0.0399191,0.307046\Quadrupole=2.2611675,-
 1.429536,-0.8316315,0.4116654,0.4372738,0.1241979\PG=C01 [X(H8O8Si2)]\
 \@


 MARY HAD A LITTLE LAMB
      HIS FEET WERE BLACK AS SOOT,
           AND EVERYWHERE THAT MARY WENT
                HIS SOOTY FOOT HE PUT.

                    -- NONAME
 Job cpu time:       0 days  5 hours 42 minutes 52.8 seconds.
 Elapsed time:       0 days  0 hours 22 minutes 55.2 seconds.
 File lengths (MBytes):  RWF=     40 Int=      0 D2E=      0 Chk=      5 Scr=      1
 Normal termination of Gaussian 16 at Tue Aug 11 13:45:44 2020.
