 Entering Gaussian System, Link 0=g16
 Initial command:
 /opt/software/gaussian/g16.b01/l1.exe "/localscratch/sarashs.37136501.0/Gau-14045.inp" -scrdir="/localscratch/sarashs.37136501.0/"
 Entering Link 1 = /opt/software/gaussian/g16.b01/l1.exe PID=     14046.
  
 Copyright (c) 1988-2017, Gaussian, Inc.  All Rights Reserved.
  
 This is part of the Gaussian(R) 16 program.  It is based on
 the Gaussian(R) 09 system (copyright 2009, Gaussian, Inc.),
 the Gaussian(R) 03 system (copyright 2003, Gaussian, Inc.),
 the Gaussian(R) 98 system (copyright 1998, Gaussian, Inc.),
 the Gaussian(R) 94 system (copyright 1995, Gaussian, Inc.),
 the Gaussian 92(TM) system (copyright 1992, Gaussian, Inc.),
 the Gaussian 90(TM) system (copyright 1990, Gaussian, Inc.),
 the Gaussian 88(TM) system (copyright 1988, Gaussian, Inc.),
 the Gaussian 86(TM) system (copyright 1986, Carnegie Mellon
 University), and the Gaussian 82(TM) system (copyright 1983,
 Carnegie Mellon University). Gaussian is a federally registered
 trademark of Gaussian, Inc.
  
 This software contains proprietary and confidential information,
 including trade secrets, belonging to Gaussian, Inc.
  
 This software is provided under written license and may be
 used, copied, transmitted, or stored only in accord with that
 written license.
  
 The following legend is applicable only to US Government
 contracts under FAR:
  
                    RESTRICTED RIGHTS LEGEND
  
 Use, reproduction and disclosure by the US Government is
 subject to restrictions as set forth in subparagraphs (a)
 and (c) of the Commercial Computer Software - Restricted
 Rights clause in FAR 52.227-19.
  
 Gaussian, Inc.
 340 Quinnipiac St., Bldg. 40, Wallingford CT 06492
  
  
 ---------------------------------------------------------------
 Warning -- This program may not be used in any manner that
 competes with the business of Gaussian, Inc. or will provide
 assistance to any competitor of Gaussian, Inc.  The licensee
 of this program is prohibited from giving any competitor of
 Gaussian, Inc. access to this program.  By using this program,
 the user acknowledges that Gaussian, Inc. is engaged in the
 business of creating and licensing software in the field of
 computational chemistry and represents and warrants to the
 licensee that it is not a competitor of Gaussian, Inc. and that
 it will not use this program in any manner prohibited above.
 ---------------------------------------------------------------
  

 Cite this work as:
 Gaussian 16, Revision B.01,
 M. J. Frisch, G. W. Trucks, H. B. Schlegel, G. E. Scuseria, 
 M. A. Robb, J. R. Cheeseman, G. Scalmani, V. Barone, 
 G. A. Petersson, H. Nakatsuji, X. Li, M. Caricato, A. V. Marenich, 
 J. Bloino, B. G. Janesko, R. Gomperts, B. Mennucci, H. P. Hratchian, 
 J. V. Ortiz, A. F. Izmaylov, J. L. Sonnenberg, D. Williams-Young, 
 F. Ding, F. Lipparini, F. Egidi, J. Goings, B. Peng, A. Petrone, 
 T. Henderson, D. Ranasinghe, V. G. Zakrzewski, J. Gao, N. Rega, 
 G. Zheng, W. Liang, M. Hada, M. Ehara, K. Toyota, R. Fukuda, 
 J. Hasegawa, M. Ishida, T. Nakajima, Y. Honda, O. Kitao, H. Nakai, 
 T. Vreven, K. Throssell, J. A. Montgomery, Jr., J. E. Peralta, 
 F. Ogliaro, M. J. Bearpark, J. J. Heyd, E. N. Brothers, K. N. Kudin, 
 V. N. Staroverov, T. A. Keith, R. Kobayashi, J. Normand, 
 K. Raghavachari, A. P. Rendell, J. C. Burant, S. S. Iyengar, 
 J. Tomasi, M. Cossi, J. M. Millam, M. Klene, C. Adamo, R. Cammi, 
 J. W. Ochterski, R. L. Martin, K. Morokuma, O. Farkas, 
 J. B. Foresman, and D. J. Fox, Gaussian, Inc., Wallingford CT, 2016.
 
 ******************************************
 Gaussian 16:  ES64L-G16RevB.01 20-Dec-2017
                11-Aug-2020 
 ******************************************
 %NProcShared=16
 Will use up to   16 processors via shared memory.
 -------------------------------------------------------------
 #n B3LYP/6-31+G(d,p) EmpiricalDispersion=GD3 Opt=modredundant
 -------------------------------------------------------------
 1/18=120,19=15,26=3,38=1/1,3;
 2/9=110,12=2,17=6,18=5,40=1/2;
 3/5=1,6=6,7=111,11=2,25=1,30=1,71=1,74=-5,124=31/1,2,3;
 4//1;
 5/5=2,38=5/2;
 6/7=2,8=2,9=2,10=2,28=1/1;
 7//1,2,3,16;
 1/18=20,19=15,26=3/3(2);
 2/9=110/2;
 99//99;
 2/9=110/2;
 3/5=1,6=6,7=111,11=2,25=1,30=1,71=1,74=-5,124=31/1,2,3;
 4/5=5,16=3,69=1/1;
 5/5=2,38=5/2;
 7//1,2,3,16;
 1/18=20,19=15,26=3/3(-5);
 2/9=110/2;
 6/7=2,8=2,9=2,10=2,19=2,28=1/1;
 99/9=1/99;
 -----
 Title
 -----
 Symbolic Z-matrix:
 Charge =  0 Multiplicity = 1
 Si                   -1.97199   0.03198   0.02178 
 O                    -1.49839  -1.04281  -1.16096 
 O                    -3.61529   0.07731   0.01517 
 O                    -1.38578   1.53664  -0.16122 
 O                    -1.32513  -0.62357   1.41007 
 H                    -1.61852  -1.51781   1.62751 
 H                    -0.41713   1.65614  -0.27249 
 H                    -4.03179   0.8972    0.30533 
 Si                    2.22705  -0.03829  -0.0343 
 O                     3.86445   0.06153  -0.11055 
 O                     1.62587   1.49531  -0.37107 
 O                     1.8197   -0.48443   1.49808 
 O                     1.6342   -1.03206  -1.18886 
 H                     0.67488  -1.17592  -1.26065 
 H                     0.86727  -0.55454   1.68413 
 H                     4.36216  -0.56813   0.42268 
 H                     2.09315   2.21745   0.06811 
 H                    -1.95012  -0.97878  -2.01163 
 
 Add virtual bond connecting atoms O11        and H7         Dist= 3.88D+00.
 Add virtual bond connecting atoms H14        and O2         Dist= 4.12D+00.
 The following ModRedundant input section has been read:
 B       1       9 F                                                           
 

 GradGradGradGradGradGradGradGradGradGradGradGradGradGradGradGradGradGrad
 Berny optimization.
 Initialization pass.
                           ----------------------------
                           !    Initial Parameters    !
                           ! (Angstroms and Degrees)  !
 --------------------------                            --------------------------
 ! Name  Definition              Value          Derivative Info.                !
 --------------------------------------------------------------------------------
 ! R1    R(1,2)                  1.6668         estimate D2E/DX2                !
 ! R2    R(1,3)                  1.6439         estimate D2E/DX2                !
 ! R3    R(1,4)                  1.6252         estimate D2E/DX2                !
 ! R4    R(1,5)                  1.666          estimate D2E/DX2                !
 ! R5    R(1,9)                  4.2            Frozen                          !
 ! R6    R(2,14)                 2.1796         estimate D2E/DX2                !
 ! R7    R(2,18)                 0.9653         estimate D2E/DX2                !
 ! R8    R(3,8)                  0.9643         estimate D2E/DX2                !
 ! R9    R(4,7)                  0.9823         estimate D2E/DX2                !
 ! R10   R(5,6)                  0.9659         estimate D2E/DX2                !
 ! R11   R(7,11)                 2.0517         estimate D2E/DX2                !
 ! R12   R(9,10)                 1.6422         estimate D2E/DX2                !
 ! R13   R(9,11)                 1.6813         estimate D2E/DX2                !
 ! R14   R(9,12)                 1.6472         estimate D2E/DX2                !
 ! R15   R(9,13)                 1.6346         estimate D2E/DX2                !
 ! R16   R(10,16)                0.9636         estimate D2E/DX2                !
 ! R17   R(11,17)                0.9658         estimate D2E/DX2                !
 ! R18   R(12,15)                0.973          estimate D2E/DX2                !
 ! R19   R(13,14)                0.9727         estimate D2E/DX2                !
 ! A1    A(2,1,3)              107.3944         estimate D2E/DX2                !
 ! A2    A(2,1,4)              114.4947         estimate D2E/DX2                !
 ! A3    A(2,1,5)              103.1351         estimate D2E/DX2                !
 ! A4    A(3,1,4)              109.5475         estimate D2E/DX2                !
 ! A5    A(3,1,5)              113.7235         estimate D2E/DX2                !
 ! A6    A(4,1,5)              108.5478         estimate D2E/DX2                !
 ! A7    A(1,2,14)             110.8017         estimate D2E/DX2                !
 ! A8    A(1,2,18)             116.7164         estimate D2E/DX2                !
 ! A9    A(14,2,18)            115.4898         estimate D2E/DX2                !
 ! A10   A(1,3,8)              116.9996         estimate D2E/DX2                !
 ! A11   A(1,4,7)              118.7559         estimate D2E/DX2                !
 ! A12   A(1,5,6)              115.7177         estimate D2E/DX2                !
 ! A13   A(10,9,11)            106.9644         estimate D2E/DX2                !
 ! A14   A(10,9,12)            107.8326         estimate D2E/DX2                !
 ! A15   A(10,9,13)            111.4552         estimate D2E/DX2                !
 ! A16   A(11,9,12)            110.1803         estimate D2E/DX2                !
 ! A17   A(11,9,13)            106.4619         estimate D2E/DX2                !
 ! A18   A(12,9,13)            113.749          estimate D2E/DX2                !
 ! A19   A(9,10,16)            116.7171         estimate D2E/DX2                !
 ! A20   A(7,11,9)             114.7042         estimate D2E/DX2                !
 ! A21   A(7,11,17)            113.6612         estimate D2E/DX2                !
 ! A22   A(9,11,17)            114.7054         estimate D2E/DX2                !
 ! A23   A(9,12,15)            116.0718         estimate D2E/DX2                !
 ! A24   A(9,13,14)            119.9823         estimate D2E/DX2                !
 ! A25   L(4,7,11,15,-1)       168.9935         estimate D2E/DX2                !
 ! A26   L(2,14,13,15,-1)      170.8408         estimate D2E/DX2                !
 ! A27   L(4,7,11,15,-2)       174.682          estimate D2E/DX2                !
 ! A28   L(2,14,13,15,-2)      190.4276         estimate D2E/DX2                !
 ! D1    D(3,1,2,14)           179.4971         estimate D2E/DX2                !
 ! D2    D(3,1,2,18)            44.5394         estimate D2E/DX2                !
 ! D3    D(4,1,2,14)            57.6246         estimate D2E/DX2                !
 ! D4    D(4,1,2,18)           -77.3331         estimate D2E/DX2                !
 ! D5    D(5,1,2,14)           -60.1028         estimate D2E/DX2                !
 ! D6    D(5,1,2,18)           164.9394         estimate D2E/DX2                !
 ! D7    D(2,1,3,8)           -151.7167         estimate D2E/DX2                !
 ! D8    D(4,1,3,8)            -26.8074         estimate D2E/DX2                !
 ! D9    D(5,1,3,8)             94.8432         estimate D2E/DX2                !
 ! D10   D(2,1,4,7)            -52.8688         estimate D2E/DX2                !
 ! D11   D(3,1,4,7)           -173.5574         estimate D2E/DX2                !
 ! D12   D(5,1,4,7)             61.7309         estimate D2E/DX2                !
 ! D13   D(2,1,5,6)            -59.1788         estimate D2E/DX2                !
 ! D14   D(3,1,5,6)             56.7888         estimate D2E/DX2                !
 ! D15   D(4,1,5,6)            178.9933         estimate D2E/DX2                !
 ! D16   D(1,2,13,9)             1.8748         estimate D2E/DX2                !
 ! D17   D(18,2,13,9)          135.0794         estimate D2E/DX2                !
 ! D18   D(1,4,11,9)            -8.5516         estimate D2E/DX2                !
 ! D19   D(1,4,11,17)         -141.766          estimate D2E/DX2                !
 ! D20   D(11,9,10,16)         152.8744         estimate D2E/DX2                !
 ! D21   D(12,9,10,16)          34.3843         estimate D2E/DX2                !
 ! D22   D(13,9,10,16)         -91.1355         estimate D2E/DX2                !
 ! D23   D(10,9,11,7)         -177.9126         estimate D2E/DX2                !
 ! D24   D(10,9,11,17)         -43.6527         estimate D2E/DX2                !
 ! D25   D(12,9,11,7)          -60.9616         estimate D2E/DX2                !
 ! D26   D(12,9,11,17)          73.2982         estimate D2E/DX2                !
 ! D27   D(13,9,11,7)           62.8191         estimate D2E/DX2                !
 ! D28   D(13,9,11,17)        -162.9211         estimate D2E/DX2                !
 ! D29   D(10,9,12,15)         178.2712         estimate D2E/DX2                !
 ! D30   D(11,9,12,15)          61.8616         estimate D2E/DX2                !
 ! D31   D(13,9,12,15)         -57.5814         estimate D2E/DX2                !
 ! D32   D(10,9,13,14)        -179.5277         estimate D2E/DX2                !
 ! D33   D(11,9,13,14)         -63.2301         estimate D2E/DX2                !
 ! D34   D(12,9,13,14)          58.3046         estimate D2E/DX2                !
 --------------------------------------------------------------------------------
 Trust Radius=3.00D-01 FncErr=1.00D-07 GrdErr=1.00D-06 EigMax=2.50D+02 EigMin=1.00D-04
 Number of steps in this run=     91 maximum allowed number of steps=    108.
 GradGradGradGradGradGradGradGradGradGradGradGradGradGradGradGradGradGrad

                          Input orientation:                          
 ---------------------------------------------------------------------
 Center     Atomic      Atomic             Coordinates (Angstroms)
 Number     Number       Type             X           Y           Z
 ---------------------------------------------------------------------
      1         14           0       -1.971990    0.031980    0.021780
      2          8           0       -1.498390   -1.042810   -1.160960
      3          8           0       -3.615290    0.077310    0.015170
      4          8           0       -1.385780    1.536640   -0.161220
      5          8           0       -1.325130   -0.623570    1.410070
      6          1           0       -1.618520   -1.517810    1.627510
      7          1           0       -0.417130    1.656140   -0.272490
      8          1           0       -4.031790    0.897200    0.305330
      9         14           0        2.227050   -0.038290   -0.034300
     10          8           0        3.864450    0.061530   -0.110550
     11          8           0        1.625870    1.495310   -0.371070
     12          8           0        1.819700   -0.484430    1.498080
     13          8           0        1.634200   -1.032060   -1.188860
     14          1           0        0.674880   -1.175920   -1.260650
     15          1           0        0.867270   -0.554540    1.684130
     16          1           0        4.362160   -0.568130    0.422680
     17          1           0        2.093150    2.217450    0.068110
     18          1           0       -1.950120   -0.978780   -2.011630
 ---------------------------------------------------------------------
                    Distance matrix (angstroms):
                    1          2          3          4          5
     1  Si   0.000000
     2  O    1.666837   0.000000
     3  O    1.643938   2.668186   0.000000
     4  O    1.625156   2.768704   2.670482   0.000000
     5  O    1.665990   2.610743   2.771608   2.671917   0.000000
     6  H    2.259460   2.831187   3.021777   3.547307   0.965931
     7  H    2.267616   3.040203   3.578223   0.982316   2.975323
     8  H    2.252062   3.511661   0.964305   2.761869   3.295330
     9  Si   4.200002   4.019618   5.843693   3.943229   3.879013
    10  O    5.838015   5.575211   7.480813   5.453754   5.450999
    11  O    3.903878   4.102070   5.443314   3.019235   4.046049
    12  O    4.101592   4.288590   5.661598   4.136799   3.149137
    13  O    3.949992   3.132733   5.498867   4.095674   3.959664
    14  H    3.179555   2.179624   4.647995   3.579532   3.381993
    15  H    3.341977   3.732197   4.824729   3.585329   2.210541
    16  H    6.375132   6.089276   8.013886   6.148968   5.772632
    17  H    4.615603   5.003905   6.096662   3.552330   4.642940
    18  H    2.270874   0.965298   2.827726   3.173300   3.496401
                    6          7          8          9         10
     6  H    0.000000
     7  H    3.889383   0.000000
     8  H    3.661189   3.738400   0.000000
     9  Si   4.442859   3.149526   6.337473   0.000000
    10  O    5.964740   4.571754   7.951220   1.642211   0.000000
    11  O    4.857909   2.051690   5.729256   1.681297   2.671111
    12  O    3.592490   3.566562   6.129559   1.647168   2.658339
    13  O    4.329905   3.503442   6.169124   1.634643   2.707897
    14  H    3.703787   3.192101   5.376138   2.281966   3.609345
    15  H    2.666505   3.219495   5.292393   2.251337   3.547324
    16  H    6.174305   5.317166   8.521699   2.246832   0.963598
    17  H    5.491848   2.594722   6.270106   2.262030   2.795964
    18  H    3.693758   3.509625   3.636063   4.716260   6.205286
                   11         12         13         14         15
    11  O    0.000000
    12  O    2.729590   0.000000
    13  O    2.656398   2.748446   0.000000
    14  H    2.971734   3.065838   0.972700   0.000000
    15  H    3.000201   0.972961   3.011690   3.015768   0.000000
    16  H    3.517827   2.761810   3.202196   4.098663   3.715602
    17  H    0.965772   3.069160   3.514246   3.910505   3.434855
    18  H    4.647608   5.174359   3.677926   2.737419   4.666509
                   16         17         18
    16  H    0.000000
    17  H    3.610205   0.000000
    18  H    6.777859   5.557809   0.000000
 Stoichiometry    H8O8Si2
 Framework group  C1[X(H8O8Si2)]
 Deg. of freedom    48
 Full point group                 C1      NOp   1
 Largest Abelian subgroup         C1      NOp   1
 Largest concise Abelian subgroup C1      NOp   1
                         Standard orientation:                         
 ---------------------------------------------------------------------
 Center     Atomic      Atomic             Coordinates (Angstroms)
 Number     Number       Type             X           Y           Z
 ---------------------------------------------------------------------
      1         14           0       -2.097130    0.031891    0.020840
      2          8           0       -1.620946   -1.043370   -1.160433
      3          8           0       -3.740467    0.075491    0.012170
      4          8           0       -1.512273    1.537015   -0.162674
      5          8           0       -1.451294   -0.621841    1.410463
      6          1           0       -1.744013   -1.516209    1.628276
      7          1           0       -0.543612    1.657441   -0.272849
      8          1           0       -4.158184    0.895181    0.301143
      9         14           0        2.102048   -0.034016   -0.030012
     10          8           0        3.739435    0.067460   -0.104328
     11          8           0        1.499675    1.498675   -0.368781
     12          8           0        1.693278   -0.479327    1.502231
     13          8           0        1.511663   -1.029355   -1.184485
     14          1           0        0.552584   -1.174280   -1.257338
     15          1           0        0.740694   -0.550284    1.687166
     16          1           0        4.237147   -0.561240    0.430031
     17          1           0        1.965656    2.221665    0.070380
     18          1           0       -2.071694   -0.980512   -2.011711
 ---------------------------------------------------------------------
 Rotational constants (GHZ):           1.9567662           0.4598465           0.4574526
 Standard basis: 6-31+G(d,p) (6D, 7F)
 There are   238 symmetry adapted cartesian basis functions of A   symmetry.
 There are   238 symmetry adapted basis functions of A   symmetry.
   238 basis functions,   424 primitive gaussians,   238 cartesian basis functions
    50 alpha electrons       50 beta electrons
       nuclear repulsion energy       839.7668054044 Hartrees.
 NAtoms=   18 NActive=   18 NUniq=   18 SFac= 1.00D+00 NAtFMM=   60 NAOKFM=F Big=F
 Integral buffers will be    131072 words long.
 Raffenetti 2 integral format.
 Two-electron integral symmetry is turned on.
 Nuclear repulsion after empirical dispersion term =      839.7514503357 Hartrees.
 One-electron integrals computed using PRISM.
 NBasis=   238 RedAO= T EigKep=  2.69D-04  NBF=   238
 NBsUse=   238 1.00D-06 EigRej= -1.00D+00 NBFU=   238
 ExpMin= 3.31D-02 ExpMax= 1.61D+04 ExpMxC= 2.43D+03 IAcc=3 IRadAn=         5 AccDes= 0.00D+00
 Harris functional with IExCor=  402 and IRadAn=       5 diagonalized for initial guess.
 HarFok:  IExCor=  402 AccDes= 0.00D+00 IRadAn=         5 IDoV= 1 UseB2=F ITyADJ=14
 ICtDFT=  3500011 ScaDFX=  1.000000  1.000000  1.000000  1.000000
 FoFCou: FMM=F IPFlag=           0 FMFlag=      100000 FMFlg1=           0
         NFxFlg=           0 DoJE=T BraDBF=F KetDBF=T FulRan=T
         wScrn=  0.000000 ICntrl=       500 IOpCl=  0 I1Cent=   200000004 NGrid=           0
         NMat0=    1 NMatS0=      1 NMatT0=    0 NMatD0=    1 NMtDS0=    0 NMtDT0=    0
 Petite list used in FoFCou.
 Requested convergence on RMS density matrix=1.00D-08 within 128 cycles.
 Requested convergence on MAX density matrix=1.00D-06.
 Requested convergence on             energy=1.00D-06.
 No special actions if energy rises.
 SCF Done:  E(RB3LYP) =  -1186.07097228     A.U. after   12 cycles
            NFock= 12  Conv=0.24D-08     -V/T= 2.0067

 **********************************************************************

            Population analysis using the SCF Density.

 **********************************************************************

 Orbital symmetries:
       Occupied  (A) (A) (A) (A) (A) (A) (A) (A) (A) (A) (A) (A)
                 (A) (A) (A) (A) (A) (A) (A) (A) (A) (A) (A) (A)
                 (A) (A) (A) (A) (A) (A) (A) (A) (A) (A) (A) (A)
                 (A) (A) (A) (A) (A) (A) (A) (A) (A) (A) (A) (A)
                 (A) (A)
       Virtual   (A) (A) (A) (A) (A) (A) (A) (A) (A) (A) (A) (A)
                 (A) (A) (A) (A) (A) (A) (A) (A) (A) (A) (A) (A)
                 (A) (A) (A) (A) (A) (A) (A) (A) (A) (A) (A) (A)
                 (A) (A) (A) (A) (A) (A) (A) (A) (A) (A) (A) (A)
                 (A) (A) (A) (A) (A) (A) (A) (A) (A) (A) (A) (A)
                 (A) (A) (A) (A) (A) (A) (A) (A) (A) (A) (A) (A)
                 (A) (A) (A) (A) (A) (A) (A) (A) (A) (A) (A) (A)
                 (A) (A) (A) (A) (A) (A) (A) (A) (A) (A) (A) (A)
                 (A) (A) (A) (A) (A) (A) (A) (A) (A) (A) (A) (A)
                 (A) (A) (A) (A) (A) (A) (A) (A) (A) (A) (A) (A)
                 (A) (A) (A) (A) (A) (A) (A) (A) (A) (A) (A) (A)
                 (A) (A) (A) (A) (A) (A) (A) (A) (A) (A) (A) (A)
                 (A) (A) (A) (A) (A) (A) (A) (A) (A) (A) (A) (A)
                 (A) (A) (A) (A) (A) (A) (A) (A) (A) (A) (A) (A)
                 (A) (A) (A) (A) (A) (A) (A) (A) (A) (A) (A) (A)
                 (A) (A) (A) (A) (A) (A) (A) (A)
 The electronic state is 1-A.
 Alpha  occ. eigenvalues --  -66.23621 -66.21875 -19.18906 -19.18843 -19.18506
 Alpha  occ. eigenvalues --  -19.17521 -19.17300 -19.16835 -19.15962 -19.15802
 Alpha  occ. eigenvalues --   -5.36968  -5.35202  -3.72963  -3.72954  -3.72912
 Alpha  occ. eigenvalues --   -3.71223  -3.71175  -3.71139  -1.06087  -1.04247
 Alpha  occ. eigenvalues --   -1.02629  -1.02442  -1.01503  -1.00846  -1.00274
 Alpha  occ. eigenvalues --   -0.99722  -0.61281  -0.59609  -0.55355  -0.55133
 Alpha  occ. eigenvalues --   -0.53677  -0.53005  -0.52716  -0.51906  -0.42808
 Alpha  occ. eigenvalues --   -0.41904  -0.40503  -0.40404  -0.39610  -0.38886
 Alpha  occ. eigenvalues --   -0.38019  -0.37425  -0.37214  -0.36183  -0.35271
 Alpha  occ. eigenvalues --   -0.34609  -0.34213  -0.33975  -0.33614  -0.31346
 Alpha virt. eigenvalues --   -0.03816  -0.01073   0.00509   0.00742   0.01913
 Alpha virt. eigenvalues --    0.04212   0.05124   0.06071   0.09001   0.09570
 Alpha virt. eigenvalues --    0.09665   0.10839   0.12041   0.13013   0.13152
 Alpha virt. eigenvalues --    0.14319   0.14642   0.14704   0.15026   0.15265
 Alpha virt. eigenvalues --    0.15924   0.16260   0.16711   0.17348   0.17990
 Alpha virt. eigenvalues --    0.18316   0.19190   0.20580   0.20833   0.21048
 Alpha virt. eigenvalues --    0.21171   0.21441   0.22474   0.23434   0.24285
 Alpha virt. eigenvalues --    0.24487   0.25217   0.26059   0.26260   0.27396
 Alpha virt. eigenvalues --    0.27787   0.28086   0.28985   0.29551   0.29867
 Alpha virt. eigenvalues --    0.31219   0.32614   0.33609   0.35587   0.36900
 Alpha virt. eigenvalues --    0.37540   0.38483   0.40736   0.41182   0.43112
 Alpha virt. eigenvalues --    0.44757   0.45727   0.46683   0.49201   0.49537
 Alpha virt. eigenvalues --    0.51076   0.58385   0.61057   0.62297   0.62841
 Alpha virt. eigenvalues --    0.63305   0.64709   0.74130   0.92598   0.93119
 Alpha virt. eigenvalues --    0.94364   0.96105   0.97166   0.97599   0.98985
 Alpha virt. eigenvalues --    0.99957   1.00216   1.01624   1.01906   1.07113
 Alpha virt. eigenvalues --    1.08223   1.08708   1.15722   1.16165   1.17062
 Alpha virt. eigenvalues --    1.17517   1.17888   1.18597   1.19077   1.19586
 Alpha virt. eigenvalues --    1.20835   1.21177   1.22684   1.23609   1.24284
 Alpha virt. eigenvalues --    1.25871   1.26663   1.26866   1.27642   1.29527
 Alpha virt. eigenvalues --    1.30491   1.31373   1.33291   1.34667   1.36138
 Alpha virt. eigenvalues --    1.37752   1.48868   1.50405   1.53658   1.54410
 Alpha virt. eigenvalues --    1.55486   1.55596   1.57650   1.58615   1.60055
 Alpha virt. eigenvalues --    1.61502   1.62530   1.63396   1.65734   1.67333
 Alpha virt. eigenvalues --    1.68963   1.71222   1.72737   1.74334   1.76727
 Alpha virt. eigenvalues --    1.77870   1.79041   1.81440   1.85028   1.88399
 Alpha virt. eigenvalues --    1.89626   1.91164   1.97464   2.00479   2.02693
 Alpha virt. eigenvalues --    2.03370   2.09607   2.10627   2.33959   2.35777
 Alpha virt. eigenvalues --    2.36903   2.38726   2.39837   2.41979   2.42444
 Alpha virt. eigenvalues --    2.43888   2.45678   2.47173   2.57801   2.59150
 Alpha virt. eigenvalues --    2.59628   2.60488   2.61222   2.61492   2.61626
 Alpha virt. eigenvalues --    2.63080   2.63661   2.65105   2.65860   2.66459
 Alpha virt. eigenvalues --    2.67501   2.68336   2.69783   2.71750   2.76016
 Alpha virt. eigenvalues --    2.77286   2.79218   2.82000   2.84017   2.84590
 Alpha virt. eigenvalues --    2.98949   3.01604   3.40534   3.42395   3.42957
 Alpha virt. eigenvalues --    3.43327   3.43989   3.53806   3.56137   3.58857
 Alpha virt. eigenvalues --    4.14776   4.19071   4.21983   4.23676   4.26106
 Alpha virt. eigenvalues --    4.26543   4.31134   4.37162
          Condensed to atoms (all electrons):
               1          2          3          4          5          6
     1  Si  11.592940   0.023013   0.040188   0.146103   0.003826   0.041794
     2  O    0.023013   8.623364  -0.001039   0.018662   0.084921  -0.008911
     3  O    0.040188  -0.001039   8.608310  -0.018311  -0.051929  -0.003832
     4  O    0.146103   0.018662  -0.018311   8.466312   0.068041   0.005677
     5  O    0.003826   0.084921  -0.051929   0.068041   8.586365   0.239577
     6  H    0.041794  -0.008911  -0.003832   0.005677   0.239577   0.356039
     7  H    0.025035  -0.004946   0.007215   0.240616  -0.004922  -0.000011
     8  H    0.033112   0.004244   0.236260  -0.001439  -0.003833   0.000046
     9  Si  -0.075433   0.040980  -0.004318   0.025088   0.055103  -0.002799
    10  O   -0.003342   0.001389  -0.000095   0.001542   0.001980  -0.000013
    11  O    0.046126  -0.017091   0.002011  -0.030454  -0.018763   0.000232
    12  O    0.014213  -0.014775   0.001117  -0.010063  -0.015455   0.000452
    13  O    0.037100  -0.019903   0.001920  -0.018329  -0.024684   0.000321
    14  H    0.003459   0.010021   0.000027   0.000468  -0.000741   0.000015
    15  H   -0.003147   0.000944   0.000044   0.000689   0.010705  -0.001093
    16  H    0.000201  -0.000005   0.000000  -0.000003  -0.000013  -0.000000
    17  H   -0.002253   0.000179  -0.000019   0.001772   0.000242  -0.000000
    18  H    0.027170   0.240124  -0.002258  -0.007177   0.005272   0.000059
               7          8          9         10         11         12
     1  Si   0.025035   0.033112  -0.075433  -0.003342   0.046126   0.014213
     2  O   -0.004946   0.004244   0.040980   0.001389  -0.017091  -0.014775
     3  O    0.007215   0.236260  -0.004318  -0.000095   0.002011   0.001117
     4  O    0.240616  -0.001439   0.025088   0.001542  -0.030454  -0.010063
     5  O   -0.004922  -0.003833   0.055103   0.001980  -0.018763  -0.015455
     6  H   -0.000011   0.000046  -0.002799  -0.000013   0.000232   0.000452
     7  H    0.293711   0.000026   0.002632   0.000040   0.015465   0.000886
     8  H    0.000026   0.353520   0.000111   0.000000  -0.000004  -0.000004
     9  Si   0.002632   0.000111  11.590781   0.025728  -0.028397   0.131380
    10  O    0.000040   0.000000   0.025728   8.589413   0.001266   0.002575
    11  O    0.015465  -0.000004  -0.028397   0.001266   8.667913   0.060928
    12  O    0.000886  -0.000004   0.131380   0.002575   0.060928   8.470397
    13  O   -0.000286  -0.000002   0.062365  -0.020367   0.071384   0.026380
    14  H   -0.000006  -0.000001   0.032933   0.005513  -0.003426  -0.007144
    15  H    0.000047  -0.000001   0.032070   0.008680  -0.007244   0.240353
    16  H   -0.000001  -0.000000   0.033868   0.237784   0.003303  -0.002619
    17  H   -0.001691  -0.000000   0.032743   0.000945   0.237725  -0.010741
    18  H    0.000153   0.000057  -0.001552  -0.000004   0.000110   0.000037
              13         14         15         16         17         18
     1  Si   0.037100   0.003459  -0.003147   0.000201  -0.002253   0.027170
     2  O   -0.019903   0.010021   0.000944  -0.000005   0.000179   0.240124
     3  O    0.001920   0.000027   0.000044   0.000000  -0.000019  -0.002258
     4  O   -0.018329   0.000468   0.000689  -0.000003   0.001772  -0.007177
     5  O   -0.024684  -0.000741   0.010705  -0.000013   0.000242   0.005272
     6  H    0.000321   0.000015  -0.001093  -0.000000  -0.000000   0.000059
     7  H   -0.000286  -0.000006   0.000047  -0.000001  -0.001691   0.000153
     8  H   -0.000002  -0.000001  -0.000001  -0.000000  -0.000000   0.000057
     9  Si   0.062365   0.032933   0.032070   0.033868   0.032743  -0.001552
    10  O   -0.020367   0.005513   0.008680   0.237784   0.000945  -0.000004
    11  O    0.071384  -0.003426  -0.007244   0.003303   0.237725   0.000110
    12  O    0.026380  -0.007144   0.240353  -0.002619  -0.010741   0.000037
    13  O    8.517517   0.236834  -0.007881  -0.003805   0.006191   0.000574
    14  H    0.236834   0.317215   0.000103  -0.000024  -0.000051  -0.000682
    15  H   -0.007881   0.000103   0.317815   0.000041   0.000177  -0.000009
    16  H   -0.003805  -0.000024   0.000041   0.360602   0.000084   0.000000
    17  H    0.006191  -0.000051   0.000177   0.000084   0.352380  -0.000000
    18  H    0.000574  -0.000682  -0.000009   0.000000  -0.000000   0.348509
 Mulliken charges:
               1
     1  Si   2.049895
     2  O   -0.981170
     3  O   -0.815293
     4  O   -0.889192
     5  O   -0.935693
     6  H    0.372446
     7  H    0.426038
     8  H    0.377907
     9  Si   2.046716
    10  O   -0.853033
    11  O   -1.001086
    12  O   -0.887919
    13  O   -0.865329
    14  H    0.405485
    15  H    0.407708
    16  H    0.370586
    17  H    0.382318
    18  H    0.389616
 Sum of Mulliken charges =  -0.00000
 Mulliken charges with hydrogens summed into heavy atoms:
               1
     1  Si   2.049895
     2  O   -0.591554
     3  O   -0.437386
     4  O   -0.463154
     5  O   -0.563247
     9  Si   2.046716
    10  O   -0.482447
    11  O   -0.618768
    12  O   -0.480211
    13  O   -0.459844
 Electronic spatial extent (au):  <R**2>=           2482.5636
 Charge=             -0.0000 electrons
 Dipole moment (field-independent basis, Debye):
    X=             -2.3752    Y=             -0.0082    Z=              1.0025  Tot=              2.5781
 Quadrupole moment (field-independent basis, Debye-Ang):
   XX=            -66.9596   YY=            -68.3191   ZZ=            -72.7134
   XY=              0.3837   XZ=              4.8104   YZ=             -0.4389
 Traceless Quadrupole moment (field-independent basis, Debye-Ang):
   XX=              2.3711   YY=              1.0116   ZZ=             -3.3827
   XY=              0.3837   XZ=              4.8104   YZ=             -0.4389
 Octapole moment (field-independent basis, Debye-Ang**2):
  XXX=             -3.7246  YYY=              6.2302  ZZZ=            -13.6741  XYY=              2.8377
  XXY=              6.7192  XXZ=             23.5862  XZZ=            -24.9308  YZZ=             -7.4347
  YYZ=             12.1576  XYZ=             -1.5832
 Hexadecapole moment (field-independent basis, Debye-Ang**3):
 XXXX=          -2078.6989 YYYY=           -341.4151 ZZZZ=           -343.4092 XXXY=           -179.0812
 XXXZ=             54.0962 YYYX=             50.4408 YYYZ=             -6.6797 ZZZX=             23.5920
 ZZZY=              3.4658 XXYY=           -384.7930 XXZZ=           -431.2720 YYZZ=           -113.2044
 XXYZ=              3.5345 YYXZ=             -3.2383 ZZXY=             26.3295
 N-N= 8.397514503357D+02 E-N=-4.489040882889D+03  KE= 1.178141005847D+03
 Calling FoFJK, ICntrl=      2127 FMM=F ISym2X=0 I1Cent= 0 IOpClX= 0 NMat=1 NMatS=1 NMatT=0.
 ***** Axes restored to original set *****
 -------------------------------------------------------------------
 Center     Atomic                   Forces (Hartrees/Bohr)
 Number     Number              X              Y              Z
 -------------------------------------------------------------------
      1       14           0.002921352   -0.008416500    0.000640819
      2        8           0.001757502    0.001708269    0.000579816
      3        8          -0.000129533    0.001507767   -0.000077855
      4        8           0.009403544    0.004238101   -0.001296934
      5        8           0.001866473    0.001498560   -0.001077504
      6        1           0.000340965    0.000453404   -0.000222578
      7        1          -0.004691601   -0.000261879    0.000875711
      8        1          -0.000338573   -0.000112105    0.000094148
      9       14          -0.002123331    0.007773209   -0.001464617
     10        8          -0.000256435   -0.001159792    0.000456926
     11        8          -0.002861738   -0.003260981    0.000641099
     12        8          -0.004528558   -0.001549781    0.001619242
     13        8          -0.005069199   -0.002243637   -0.001327385
     14        1           0.002156128    0.000475049    0.000212015
     15        1           0.001566077   -0.000142159    0.000342490
     16        1           0.000333144   -0.000112372   -0.000106313
     17        1          -0.000632625   -0.000295596   -0.000094967
     18        1           0.000286407   -0.000099556    0.000205888
 -------------------------------------------------------------------
 Cartesian Forces:  Max     0.009403544 RMS     0.002656114

 GradGradGradGradGradGradGradGradGradGradGradGradGradGradGradGradGradGrad
 Berny optimization.
 FormGI is forming the generalized inverse of G from B-inverse, IUseBI=4.
 Internal  Forces:  Max     0.007576083 RMS     0.001690873
 Search for a local minimum.
 Step number   1 out of a maximum of   91
 All quantities printed in internal units (Hartrees-Bohrs-Radians)
 Mixed Optimization -- RFO/linear search
 Second derivative matrix not updated -- first step.
 ITU=  0
     Eigenvalues ---    0.01186   0.02499   0.02859   0.03168   0.03266
     Eigenvalues ---    0.03443   0.03466   0.03717   0.03758   0.03781
     Eigenvalues ---    0.03891   0.04665   0.06558   0.07486   0.08058
     Eigenvalues ---    0.08264   0.10865   0.11275   0.11505   0.11612
     Eigenvalues ---    0.11912   0.12797   0.14217   0.15980   0.16000
     Eigenvalues ---    0.16000   0.16000   0.17011   0.17669   0.18366
     Eigenvalues ---    0.19812   0.36814   0.38837   0.40316   0.43055
     Eigenvalues ---    0.43581   0.43781   0.43851   0.45028   0.47548
     Eigenvalues ---    0.49942   0.52776   0.54217   0.54250   0.54349
     Eigenvalues ---    0.54558   0.547071000.000001000.000001000.00000
     Eigenvalues --- 1000.000001000.000001000.000001000.000001000.00000
     Eigenvalues --- 1000.000001000.000001000.000001000.000001000.00000
     Eigenvalues --- 1000.000001000.000001000.000001000.000001000.00000
     Eigenvalues --- 1000.000001000.000001000.000001000.000001000.00000
     Eigenvalues --- 1000.000001000.000001000.000001000.000001000.00000
     Eigenvalues --- 1000.000001000.000001000.000001000.000001000.00000
     Eigenvalues --- 1000.00000
 RFO step:  Lambda=-8.94469360D-04 EMin= 1.18626415D-02
 Linear search not attempted -- first point.
 Iteration  1 RMS(Cart)=  0.03302500 RMS(Int)=  0.00037924
 Iteration  2 RMS(Cart)=  0.00046786 RMS(Int)=  0.00008753
 Iteration  3 RMS(Cart)=  0.00000009 RMS(Int)=  0.00008753
 Iteration  1 RMS(Cart)=  0.00003540 RMS(Int)=  0.00000848
 Iteration  2 RMS(Cart)=  0.00000749 RMS(Int)=  0.00000916
 Iteration  3 RMS(Cart)=  0.00000159 RMS(Int)=  0.00000946
 Iteration  4 RMS(Cart)=  0.00000034 RMS(Int)=  0.00000953
 Variable       Old X    -DE/DX   Delta X   Delta X   Delta X     New X
                                 (Linear)    (Quad)   (Total)
    R1        3.14986  -0.00146   0.00000  -0.00219  -0.00217   3.14770
    R2        3.10659   0.00051   0.00000   0.00116   0.00116   3.10775
    R3        3.07110   0.00406   0.00000   0.00945   0.00952   3.08062
    R4        3.14826  -0.00099   0.00000  -0.00246  -0.00246   3.14580
    R5        7.93685  -0.00758   0.00000   0.00000  -0.00000   7.93685
    R6        4.11889  -0.00139   0.00000   0.00100   0.00106   4.11995
    R7        1.82415  -0.00032   0.00000  -0.00059  -0.00059   1.82356
    R8        1.82227   0.00008   0.00000   0.00014   0.00014   1.82242
    R9        1.85631  -0.00724   0.00000  -0.01166  -0.01151   1.84480
   R10        1.82535  -0.00057   0.00000  -0.00106  -0.00106   1.82429
   R11        3.87713  -0.00239   0.00000  -0.02608  -0.02594   3.85120
   R12        3.10333  -0.00002   0.00000  -0.00004  -0.00004   3.10329
   R13        3.17719  -0.00254   0.00000  -0.00487  -0.00483   3.17236
   R14        3.11270   0.00308   0.00000   0.00700   0.00700   3.11970
   R15        3.08903   0.00244   0.00000   0.00620   0.00623   3.09525
   R16        1.82094   0.00019   0.00000   0.00034   0.00034   1.82128
   R17        1.82504  -0.00057   0.00000  -0.00105  -0.00105   1.82399
   R18        1.83863  -0.00146   0.00000  -0.00276  -0.00276   1.83587
   R19        1.83814  -0.00359   0.00000  -0.00417  -0.00411   1.83403
    A1        1.87439   0.00106   0.00000   0.01526   0.01530   1.88968
    A2        1.99831  -0.00035   0.00000  -0.01301  -0.01322   1.98509
    A3        1.80005  -0.00031   0.00000  -0.00344  -0.00376   1.79629
    A4        1.91196  -0.00025   0.00000   0.00491   0.00506   1.91702
    A5        1.98485   0.00191   0.00000   0.01527   0.01525   2.00010
    A6        1.89452  -0.00195   0.00000  -0.01892  -0.01906   1.87546
    A7        1.93386  -0.00019   0.00000   0.00255   0.00247   1.93632
    A8        2.03709   0.00000   0.00000   0.00068   0.00069   2.03777
    A9        2.01568   0.00040   0.00000  -0.00100  -0.00098   2.01469
   A10        2.04203   0.00061   0.00000   0.00380   0.00380   2.04583
   A11        2.07268  -0.00017   0.00000  -0.00237  -0.00220   2.07048
   A12        2.01966   0.00004   0.00000   0.00022   0.00022   2.01988
   A13        1.86688   0.00171   0.00000   0.01857   0.01864   1.88552
   A14        1.88203   0.00057   0.00000   0.00688   0.00686   1.88889
   A15        1.94526  -0.00004   0.00000   0.00748   0.00759   1.95285
   A16        1.92301  -0.00036   0.00000  -0.00353  -0.00377   1.91924
   A17        1.85811  -0.00032   0.00000  -0.01084  -0.01112   1.84699
   A18        1.98530  -0.00139   0.00000  -0.01665  -0.01673   1.96856
   A19        2.03710   0.00050   0.00000   0.00312   0.00312   2.04022
   A20        2.00197   0.00120   0.00000   0.01425   0.01433   2.01629
   A21        1.98376  -0.00123   0.00000  -0.00549  -0.00556   1.97820
   A22        2.00199   0.00010   0.00000  -0.00074  -0.00075   2.00124
   A23        2.02583   0.00137   0.00000   0.00786   0.00785   2.03368
   A24        2.09409  -0.00027   0.00000  -0.00302  -0.00310   2.09099
   A25        2.94949  -0.00147   0.00000  -0.01795  -0.01768   2.93181
   A26        2.98174  -0.00115   0.00000  -0.00972  -0.00968   2.97206
   A27        3.04878   0.00144   0.00000   0.03282   0.03276   3.08154
   A28        3.32359  -0.00097   0.00000  -0.01913  -0.01893   3.30466
    D1        3.13282  -0.00008   0.00000  -0.00206  -0.00212   3.13070
    D2        0.77736  -0.00050   0.00000  -0.00402  -0.00403   0.77333
    D3        1.00574  -0.00031   0.00000  -0.01101  -0.01103   0.99471
    D4       -1.34972  -0.00073   0.00000  -0.01297  -0.01294  -1.36266
    D5       -1.04899   0.00242   0.00000   0.02060   0.02055  -1.02844
    D6        2.87874   0.00201   0.00000   0.01864   0.01864   2.89737
    D7       -2.64796   0.00033   0.00000   0.00363   0.00368  -2.64428
    D8       -0.46788   0.00043   0.00000   0.00061   0.00062  -0.46726
    D9        1.65533  -0.00096   0.00000  -0.00970  -0.00977   1.64556
   D10       -0.92273   0.00033   0.00000   0.00608   0.00606  -0.91667
   D11       -3.02915  -0.00062   0.00000  -0.00842  -0.00837  -3.03752
   D12        1.07741  -0.00154   0.00000  -0.01810  -0.01795   1.05946
   D13       -1.03287  -0.00105   0.00000  -0.01332  -0.01332  -1.04619
   D14        0.99115   0.00092   0.00000   0.01001   0.01006   1.00121
   D15        3.12402   0.00047   0.00000   0.01277   0.01271   3.13674
   D16        0.03272   0.00017   0.00000   0.01959   0.01959   0.05231
   D17        2.35758   0.00065   0.00000   0.02767   0.02767   2.38525
   D18       -0.14925   0.00038   0.00000   0.02675   0.02680  -0.12246
   D19       -2.47428   0.00064   0.00000   0.02677   0.02681  -2.44747
   D20        2.66816   0.00015   0.00000   0.00464   0.00467   2.67283
   D21        0.60012  -0.00064   0.00000  -0.00467  -0.00471   0.59541
   D22       -1.59061   0.00074   0.00000   0.00650   0.00651  -1.58411
   D23       -3.10516   0.00043   0.00000  -0.00700  -0.00707  -3.11223
   D24       -0.76188  -0.00005   0.00000  -0.00078  -0.00078  -0.76266
   D25       -1.06398   0.00189   0.00000   0.00984   0.00980  -1.05418
   D26        1.27930   0.00141   0.00000   0.01606   0.01610   1.29539
   D27        1.09640  -0.00023   0.00000  -0.01958  -0.01962   1.07678
   D28       -2.84351  -0.00071   0.00000  -0.01336  -0.01332  -2.85683
   D29        3.11142   0.00095   0.00000   0.00802   0.00803   3.11945
   D30        1.07969  -0.00122   0.00000  -0.01617  -0.01620   1.06349
   D31       -1.00498   0.00037   0.00000   0.01140   0.01141  -0.99358
   D32       -3.13335  -0.00097   0.00000  -0.00718  -0.00713  -3.14047
   D33       -1.10357   0.00086   0.00000   0.01260   0.01260  -1.09097
   D34        1.01761  -0.00067   0.00000  -0.00966  -0.00952   1.00808
         Item               Value     Threshold  Converged?
 Maximum Force            0.006231     0.000450     NO 
 RMS     Force            0.001408     0.000300     NO 
 Maximum Displacement     0.133599     0.001800     NO 
 RMS     Displacement     0.032987     0.001200     NO 
 Predicted change in Energy=-4.480355D-04
 GradGradGradGradGradGradGradGradGradGradGradGradGradGradGradGradGradGrad

                          Input orientation:                          
 ---------------------------------------------------------------------
 Center     Atomic      Atomic             Coordinates (Angstroms)
 Number     Number       Type             X           Y           Z
 ---------------------------------------------------------------------
      1         14           0       -1.971688    0.032152    0.019411
      2          8           0       -1.494962   -1.044594   -1.158670
      3          8           0       -3.615484    0.076058    0.043078
      4          8           0       -1.381032    1.537174   -0.189293
      5          8           0       -1.275278   -0.591012    1.397040
      6          1           0       -1.547822   -1.485594    1.636589
      7          1           0       -0.418953    1.649366   -0.311094
      8          1           0       -4.030674    0.897094    0.332127
      9         14           0        2.227439   -0.035627   -0.033049
     10          8           0        3.866411    0.055774   -0.080031
     11          8           0        1.612150    1.490840   -0.363942
     12          8           0        1.779885   -0.506968    1.484486
     13          8           0        1.636846   -1.018446   -1.202710
     14          1           0        0.679052   -1.154643   -1.280178
     15          1           0        0.825823   -0.581616    1.651851
     16          1           0        4.354111   -0.582505    0.452527
     17          1           0        2.064096    2.213965    0.088248
     18          1           0       -1.955329   -0.994198   -2.005261
 ---------------------------------------------------------------------
                    Distance matrix (angstroms):
                    1          2          3          4          5
     1  Si   0.000000
     2  O    1.665690   0.000000
     3  O    1.644552   2.682662   0.000000
     4  O    1.630192   2.760109   2.679857   0.000000
     5  O    1.664687   2.604929   2.784737   2.656466   0.000000
     6  H    2.257982   2.830327   3.041917   3.535364   0.965372
     7  H    2.266187   3.022185   3.580300   0.976226   2.944539
     8  H    2.255069   3.524551   0.964382   2.775281   3.307674
     9  Si   4.200002   4.017625   5.844486   3.939439   3.823955
    10  O    5.838994   5.578404   7.482935   5.453635   5.388602
    11  O    3.888268   4.088296   5.430969   2.998630   3.971448
    12  O    4.063422   4.242633   5.614942   4.119641   3.057569
    13  O    3.952070   3.132227   5.507894   4.082376   3.927069
    14  H    3.181798   2.180186   4.659256   3.560879   3.362229
    15  H    3.296611   3.674156   4.769265   3.570615   2.116516
    16  H    6.370332   6.084500   8.007234   6.147913   5.708081
    17  H    4.588312   4.983965   6.068798   3.521928   4.553268
    18  H    2.270013   0.964984   2.845568   3.167870   3.492948
                    6          7          8          9         10
     6  H    0.000000
     7  H    3.859507   0.000000
     8  H    3.680132   3.744886   0.000000
     9  Si   4.375237   3.149588   6.337768   0.000000
    10  O    5.885280   4.577911   7.952461   1.642190   0.000000
    11  O    4.779823   2.037965   5.716511   1.678741   2.687324
    12  O    3.471956   3.564936   6.087849   1.650872   2.667955
    13  O    4.292081   3.484037   6.176229   1.637938   2.717594
    14  H    3.684566   3.163417   5.384298   2.281454   3.614515
    15  H    2.540000   3.221786   5.245361   2.258654   3.556804
    16  H    6.086903   5.324144   8.515182   2.248909   0.963779
    17  H    5.397227   2.577553   6.240180   2.258774   2.816815
    18  H    3.697379   3.495581   3.653413   4.722714   6.221061
                   11         12         13         14         15
    11  O    0.000000
    12  O    2.726913   0.000000
    13  O    2.645875   2.739178   0.000000
    14  H    2.951057   3.045437   0.970526   0.000000
    15  H    2.996132   0.971502   2.999517   2.991103   0.000000
    16  H    3.533232   2.774398   3.211446   4.103129   3.726552
    17  H    0.965216   3.071438   3.506793   3.890818   3.434159
    18  H    4.647176   5.134934   3.680815   2.737051   4.612971
                   16         17         18
    16  H    0.000000
    17  H    3.632784   0.000000
    18  H    6.783749   5.552555   0.000000
 Stoichiometry    H8O8Si2
 Framework group  C1[X(H8O8Si2)]
 Deg. of freedom    48
 Full point group                 C1      NOp   1
 Largest Abelian subgroup         C1      NOp   1
 Largest concise Abelian subgroup C1      NOp   1
                         Standard orientation:                         
 ---------------------------------------------------------------------
 Center     Atomic      Atomic             Coordinates (Angstroms)
 Number     Number       Type             X           Y           Z
 ---------------------------------------------------------------------
      1         14           0       -2.097586    0.025665    0.021055
      2          8           0       -1.616915   -1.049114   -1.157218
      3          8           0       -3.741529    0.063733    0.044555
      4          8           0       -1.512251    1.532822   -0.187242
      5          8           0       -1.399116   -0.595336    1.398619
      6          1           0       -1.668511   -1.490935    1.637935
      7          1           0       -0.550564    1.648455   -0.308914
      8          1           0       -4.159661    0.883225    0.333746
      9         14           0        2.101761   -0.027200   -0.030964
     10          8           0        3.740403    0.070027   -0.077748
     11          8           0        1.481095    1.497149   -0.361578
     12          8           0        1.655719   -0.500471    1.486415
     13          8           0        1.514785   -1.011843   -1.200913
     14          1           0        0.557489   -1.151420   -1.278516
     15          1           0        0.701910   -0.578543    1.653660
     16          1           0        4.230308   -0.566639    0.454718
     17          1           0        1.930423    2.221771    0.090826
     18          1           0       -2.077367   -1.000159   -2.003848
 ---------------------------------------------------------------------
 Rotational constants (GHZ):           1.9701433           0.4624977           0.4601710
 Standard basis: 6-31+G(d,p) (6D, 7F)
 There are   238 symmetry adapted cartesian basis functions of A   symmetry.
 There are   238 symmetry adapted basis functions of A   symmetry.
   238 basis functions,   424 primitive gaussians,   238 cartesian basis functions
    50 alpha electrons       50 beta electrons
       nuclear repulsion energy       841.2438745319 Hartrees.
 NAtoms=   18 NActive=   18 NUniq=   18 SFac= 1.00D+00 NAtFMM=   60 NAOKFM=F Big=F
 Integral buffers will be    131072 words long.
 Raffenetti 2 integral format.
 Two-electron integral symmetry is turned on.
 Nuclear repulsion after empirical dispersion term =      841.2284090253 Hartrees.
 One-electron integrals computed using PRISM.
 NBasis=   238 RedAO= T EigKep=  2.67D-04  NBF=   238
 NBsUse=   238 1.00D-06 EigRej= -1.00D+00 NBFU=   238
 Initial guess from the checkpoint file:  "/localscratch/sarashs.37136501.0/Gau-14046.chk"
 B after Tr=     0.000000    0.000000    0.000000
         Rot=    0.999999   -0.000473   -0.000317   -0.000976 Ang=  -0.13 deg.
 ExpMin= 3.31D-02 ExpMax= 1.61D+04 ExpMxC= 2.43D+03 IAcc=3 IRadAn=         5 AccDes= 0.00D+00
 Harris functional with IExCor=  402 and IRadAn=       5 diagonalized for initial guess.
 HarFok:  IExCor=  402 AccDes= 0.00D+00 IRadAn=         5 IDoV= 1 UseB2=F ITyADJ=14
 ICtDFT=  3500011 ScaDFX=  1.000000  1.000000  1.000000  1.000000
 FoFCou: FMM=F IPFlag=           0 FMFlag=      100000 FMFlg1=           0
         NFxFlg=           0 DoJE=T BraDBF=F KetDBF=T FulRan=T
         wScrn=  0.000000 ICntrl=       500 IOpCl=  0 I1Cent=   200000004 NGrid=           0
         NMat0=    1 NMatS0=      1 NMatT0=    0 NMatD0=    1 NMtDS0=    0 NMtDT0=    0
 Petite list used in FoFCou.
 Requested convergence on RMS density matrix=1.00D-08 within 128 cycles.
 Requested convergence on MAX density matrix=1.00D-06.
 Requested convergence on             energy=1.00D-06.
 No special actions if energy rises.
 SCF Done:  E(RB3LYP) =  -1186.07144006     A.U. after   10 cycles
            NFock= 10  Conv=0.22D-08     -V/T= 2.0067
 Calling FoFJK, ICntrl=      2127 FMM=F ISym2X=0 I1Cent= 0 IOpClX= 0 NMat=1 NMatS=1 NMatT=0.
 ***** Axes restored to original set *****
 -------------------------------------------------------------------
 Center     Atomic                   Forces (Hartrees/Bohr)
 Number     Number              X              Y              Z
 -------------------------------------------------------------------
      1       14           0.006975970   -0.002420087   -0.000719479
      2        8           0.000052143    0.000916781    0.000424119
      3        8           0.001451243    0.000547040   -0.000091921
      4        8           0.000932714    0.001693670   -0.000927533
      5        8           0.000259939   -0.000281123    0.000476876
      6        1          -0.000174109   -0.000322545    0.000200260
      7        1           0.000590065    0.000064122    0.000762870
      8        1          -0.000026093   -0.000058179    0.000119823
      9       14          -0.007254034    0.002817656    0.000681532
     10        8          -0.001211403   -0.000461272    0.000114373
     11        8          -0.000805748   -0.001854331    0.000179831
     12        8           0.000426972   -0.000654404    0.000072732
     13        8          -0.001066686   -0.001367347   -0.001330002
     14        1           0.000452382    0.000246343    0.000461366
     15        1          -0.000095245    0.000858504   -0.000295914
     16        1          -0.000053940   -0.000023243   -0.000080841
     17        1          -0.000621057    0.000554462    0.000131001
     18        1           0.000166889   -0.000256048   -0.000179095
 -------------------------------------------------------------------
 Cartesian Forces:  Max     0.007254034 RMS     0.001604181

 GradGradGradGradGradGradGradGradGradGradGradGradGradGradGradGradGradGrad
 Berny optimization.
 Using GEDIIS/GDIIS optimizer.
 FormGI is forming the generalized inverse of G from B-inverse, IUseBI=4.
 Internal  Forces:  Max     0.006885631 RMS     0.001003931
 Search for a local minimum.
 Step number   2 out of a maximum of   91
 All quantities printed in internal units (Hartrees-Bohrs-Radians)
 Mixed Optimization -- En-DIIS/RFO-DIIS
 Update second derivatives using D2CorX and points    1    2
 DE= -4.68D-04 DEPred=-4.48D-04 R= 1.04D+00
 TightC=F SS=  1.41D+00  RLast= 1.08D-01 DXNew= 5.0454D-01 3.2311D-01
 Trust test= 1.04D+00 RLast= 1.08D-01 DXMaxT set to 3.23D-01
 ITU=  1  0
 Use linear search instead of GDIIS.
     Eigenvalues ---    0.01347   0.02507   0.02821   0.03160   0.03226
     Eigenvalues ---    0.03304   0.03471   0.03681   0.03758   0.03781
     Eigenvalues ---    0.03865   0.04639   0.06738   0.07154   0.08018
     Eigenvalues ---    0.08407   0.10558   0.11018   0.11302   0.11482
     Eigenvalues ---    0.12289   0.12756   0.14257   0.15982   0.16000
     Eigenvalues ---    0.16000   0.16390   0.17302   0.17807   0.18396
     Eigenvalues ---    0.19920   0.35728   0.38658   0.40494   0.42493
     Eigenvalues ---    0.43566   0.43771   0.44247   0.44990   0.46737
     Eigenvalues ---    0.50026   0.52808   0.54238   0.54330   0.54404
     Eigenvalues ---    0.54558   0.547131000.000001000.000001000.00000
     Eigenvalues --- 1000.000001000.000001000.000001000.000001000.00000
     Eigenvalues --- 1000.000001000.000001000.000001000.000001000.00000
     Eigenvalues --- 1000.000001000.000001000.000001000.000001000.00000
     Eigenvalues --- 1000.000001000.000001000.000001000.000001000.00000
     Eigenvalues --- 1000.000001000.000001000.000001000.000001000.00000
     Eigenvalues --- 1000.000001000.000001000.000001000.000001000.00000
     Eigenvalues --- 1000.00000
 RFO step:  Lambda=-2.18944274D-04 EMin= 1.34732453D-02
 Quartic linear search produced a step of  0.02512.
 Iteration  1 RMS(Cart)=  0.01839542 RMS(Int)=  0.00012744
 Iteration  2 RMS(Cart)=  0.00018521 RMS(Int)=  0.00004513
 Iteration  3 RMS(Cart)=  0.00000002 RMS(Int)=  0.00004513
 Iteration  1 RMS(Cart)=  0.00002698 RMS(Int)=  0.00000655
 Iteration  2 RMS(Cart)=  0.00000578 RMS(Int)=  0.00000708
 Iteration  3 RMS(Cart)=  0.00000124 RMS(Int)=  0.00000731
 Iteration  4 RMS(Cart)=  0.00000026 RMS(Int)=  0.00000737
 Variable       Old X    -DE/DX   Delta X   Delta X   Delta X     New X
                                 (Linear)    (Quad)   (Total)
    R1        3.14770  -0.00102  -0.00005  -0.00289  -0.00292   3.14477
    R2        3.10775  -0.00141   0.00003  -0.00307  -0.00304   3.10471
    R3        3.08062   0.00134   0.00024   0.00556   0.00585   3.08647
    R4        3.14580   0.00082  -0.00006   0.00155   0.00149   3.14729
    R5        7.93685  -0.00689  -0.00000   0.00000   0.00000   7.93685
    R6        4.11995  -0.00120   0.00003  -0.02516  -0.02509   4.09487
    R7        1.82356   0.00006  -0.00001  -0.00001  -0.00002   1.82353
    R8        1.82242  -0.00000   0.00000   0.00003   0.00003   1.82245
    R9        1.84480  -0.00161  -0.00029  -0.00470  -0.00486   1.83994
   R10        1.82429   0.00040  -0.00003   0.00052   0.00049   1.82478
   R11        3.85120  -0.00214  -0.00065  -0.04746  -0.04799   3.80321
   R12        3.10329  -0.00129  -0.00000  -0.00303  -0.00303   3.10026
   R13        3.17236  -0.00146  -0.00012  -0.00462  -0.00470   3.16766
   R14        3.11970  -0.00033   0.00018   0.00067   0.00084   3.12054
   R15        3.09525   0.00121   0.00016   0.00458   0.00475   3.10000
   R16        1.82128  -0.00006   0.00001  -0.00003  -0.00002   1.82126
   R17        1.82399   0.00019  -0.00003   0.00012   0.00009   1.82409
   R18        1.83587  -0.00002  -0.00007  -0.00065  -0.00072   1.83516
   R19        1.83403  -0.00167  -0.00010  -0.00338  -0.00344   1.83059
    A1        1.88968   0.00014   0.00038   0.00444   0.00485   1.89453
    A2        1.98509   0.00049  -0.00033  -0.00211  -0.00251   1.98259
    A3        1.79629  -0.00015  -0.00009  -0.00035  -0.00046   1.79583
    A4        1.91702  -0.00096   0.00013  -0.00435  -0.00417   1.91285
    A5        2.00010  -0.00005   0.00038   0.00252   0.00289   2.00299
    A6        1.87546   0.00062  -0.00048   0.00009  -0.00041   1.87505
    A7        1.93632  -0.00052   0.00006  -0.00200  -0.00198   1.93434
    A8        2.03777   0.00066   0.00002   0.00441   0.00442   2.04219
    A9        2.01469   0.00000  -0.00002  -0.00047  -0.00050   2.01419
   A10        2.04583   0.00006   0.00010   0.00118   0.00128   2.04711
   A11        2.07048  -0.00026  -0.00006   0.00083   0.00089   2.07137
   A12        2.01988   0.00008   0.00001   0.00058   0.00059   2.02047
   A13        1.88552   0.00040   0.00047   0.00834   0.00888   1.89440
   A14        1.88889   0.00007   0.00017   0.00092   0.00109   1.88998
   A15        1.95285  -0.00083   0.00019  -0.00239  -0.00217   1.95068
   A16        1.91924  -0.00063  -0.00009  -0.00489  -0.00503   1.91421
   A17        1.84699   0.00073  -0.00028   0.00057   0.00020   1.84719
   A18        1.96856   0.00026  -0.00042  -0.00219  -0.00260   1.96596
   A19        2.04022  -0.00006   0.00008   0.00031   0.00039   2.04061
   A20        2.01629  -0.00025   0.00036   0.00105   0.00147   2.01776
   A21        1.97820  -0.00062  -0.00014  -0.00782  -0.00797   1.97024
   A22        2.00124   0.00067  -0.00002   0.00282   0.00277   2.00400
   A23        2.03368  -0.00095   0.00020  -0.00470  -0.00451   2.02917
   A24        2.09099  -0.00059  -0.00008  -0.00109  -0.00123   2.08976
   A25        2.93181  -0.00065  -0.00044   0.02619   0.02587   2.95768
   A26        2.97206  -0.00062  -0.00024   0.01903   0.01884   2.99090
   A27        3.08154   0.00004   0.00082  -0.01754  -0.01668   3.06486
   A28        3.30466  -0.00046  -0.00048   0.00963   0.00936   3.31402
    D1        3.13070  -0.00013  -0.00005  -0.00166  -0.00176   3.12894
    D2        0.77333  -0.00025  -0.00010  -0.00336  -0.00345   0.76988
    D3        0.99471   0.00067  -0.00028   0.00208   0.00173   0.99644
    D4       -1.36266   0.00055  -0.00033   0.00038   0.00004  -1.36262
    D5       -1.02844  -0.00020   0.00052   0.00317   0.00365  -1.02479
    D6        2.89737  -0.00032   0.00047   0.00148   0.00196   2.89934
    D7       -2.64428  -0.00014   0.00009  -0.00018  -0.00006  -2.64434
    D8       -0.46726  -0.00006   0.00002  -0.00267  -0.00267  -0.46993
    D9        1.64556  -0.00001  -0.00025  -0.00407  -0.00433   1.64123
   D10       -0.91667  -0.00053   0.00015  -0.00379  -0.00361  -0.92028
   D11       -3.03752  -0.00034  -0.00021  -0.00487  -0.00508  -3.04260
   D12        1.05946  -0.00008  -0.00045  -0.00528  -0.00573   1.05372
   D13       -1.04619   0.00017  -0.00033  -0.00424  -0.00461  -1.05079
   D14        1.00121   0.00022   0.00025   0.00215   0.00240   1.00361
   D15        3.13674  -0.00059   0.00032  -0.00170  -0.00134   3.13539
   D16        0.05231  -0.00055   0.00049  -0.02126  -0.02075   0.03156
   D17        2.38525  -0.00002   0.00069  -0.02052  -0.01981   2.36544
   D18       -0.12246  -0.00018   0.00067  -0.01851  -0.01782  -0.14028
   D19       -2.44747  -0.00017   0.00067  -0.02376  -0.02312  -2.47059
   D20        2.67283  -0.00035   0.00012  -0.00012   0.00001   2.67285
   D21        0.59541   0.00014  -0.00012   0.00054   0.00043   0.59583
   D22       -1.58411   0.00032   0.00016   0.00429   0.00444  -1.57967
   D23       -3.11223   0.00024  -0.00018   0.00629   0.00612  -3.10612
   D24       -0.76266  -0.00026  -0.00002  -0.00165  -0.00166  -0.76433
   D25       -1.05418   0.00020   0.00025   0.00953   0.00977  -1.04442
   D26        1.29539  -0.00030   0.00040   0.00158   0.00199   1.29738
   D27        1.07678   0.00061  -0.00049   0.00449   0.00395   1.08073
   D28       -2.85683   0.00010  -0.00033  -0.00346  -0.00383  -2.86066
   D29        3.11945  -0.00006   0.00020  -0.00712  -0.00692   3.11253
   D30        1.06349  -0.00023  -0.00041  -0.01495  -0.01540   1.04809
   D31       -0.99358  -0.00089   0.00029  -0.01101  -0.01069  -1.00426
   D32       -3.14047  -0.00061  -0.00018  -0.00328  -0.00340   3.13931
   D33       -1.09097  -0.00013   0.00032   0.00581   0.00622  -1.08475
   D34        1.00808  -0.00028  -0.00024  -0.00108  -0.00129   1.00680
         Item               Value     Threshold  Converged?
 Maximum Force            0.001617     0.000450     NO 
 RMS     Force            0.000518     0.000300     NO 
 Maximum Displacement     0.051574     0.001800     NO 
 RMS     Displacement     0.018404     0.001200     NO 
 Predicted change in Energy=-1.098504D-04
 GradGradGradGradGradGradGradGradGradGradGradGradGradGradGradGradGradGrad

                          Input orientation:                          
 ---------------------------------------------------------------------
 Center     Atomic      Atomic             Coordinates (Angstroms)
 Number     Number       Type             X           Y           Z
 ---------------------------------------------------------------------
      1         14           0       -1.971611    0.025450    0.019147
      2          8           0       -1.490551   -1.042902   -1.162621
      3          8           0       -3.613314    0.088356    0.029966
      4          8           0       -1.366968    1.530279   -0.174563
      5          8           0       -1.288857   -0.612987    1.397573
      6          1           0       -1.570219   -1.507001    1.629998
      7          1           0       -0.405369    1.637015   -0.283802
      8          1           0       -4.022381    0.910864    0.323579
      9         14           0        2.227673   -0.030772   -0.034465
     10          8           0        3.864762    0.056583   -0.096380
     11          8           0        1.599927    1.487543   -0.366846
     12          8           0        1.790635   -0.491623    1.489827
     13          8           0        1.627435   -1.026505   -1.191749
     14          1           0        0.670853   -1.163989   -1.258365
     15          1           0        0.837156   -0.555795    1.662571
     16          1           0        4.356066   -0.579501    0.435470
     17          1           0        2.049468    2.217778    0.076335
     18          1           0       -1.940116   -0.985574   -2.014546
 ---------------------------------------------------------------------
                    Distance matrix (angstroms):
                    1          2          3          4          5
     1  Si   0.000000
     2  O    1.664142   0.000000
     3  O    1.642943   2.684796   0.000000
     4  O    1.633287   2.759129   2.677134   0.000000
     5  O    1.665477   2.603863   2.786634   2.659192   0.000000
     6  H    2.259283   2.832041   3.046227   3.538760   0.965633
     7  H    2.267605   3.021903   3.575991   0.973652   2.944501
     8  H    2.254394   3.526493   0.964398   2.771829   3.308736
     9  Si   4.200002   4.015263   5.842557   3.921473   3.841314
    10  O    5.837599   5.570020   7.479211   5.435889   5.407403
    11  O    3.878478   4.072771   5.412307   2.973426   3.983776
    12  O    4.072439   4.255065   5.627631   4.102284   3.083263
    13  O    3.940306   3.118166   5.495539   4.066726   3.921778
    14  H    3.166925   2.166910   4.645670   3.547734   3.346352
    15  H    3.305731   3.692859   4.784037   3.547524   2.143228
    16  H    6.370147   6.078780   8.007588   6.129961   5.726422
    17  H    4.580245   4.969787   6.050098   3.493943   4.572014
    18  H    2.271358   0.964971   2.851832   3.169156   3.493639
                    6          7          8          9         10
     6  H    0.000000
     7  H    3.860614   0.000000
     8  H    3.683191   3.738848   0.000000
     9  Si   4.401553   3.126754   6.330722   0.000000
    10  O    5.913053   4.557072   7.944380   1.640587   0.000000
    11  O    4.796301   2.012573   5.693820   1.676253   2.692634
    12  O    3.513685   3.535434   6.092475   1.651318   2.668068
    13  O    4.291634   3.471455   6.161983   1.640450   2.716347
    14  H    3.671880   3.154940   5.369730   2.281622   3.611241
    15  H    2.588689   3.184439   5.249675   2.255907   3.554618
    16  H    6.116208   5.301090   8.510703   2.247665   0.963768
    17  H    5.421253   2.548177   6.215827   2.258321   2.827700
    18  H    3.700190   3.496984   3.660482   4.711988   6.201779
                   11         12         13         14         15
    11  O    0.000000
    12  O    2.720424   0.000000
    13  O    2.646065   2.739266   0.000000
    14  H    2.947644   3.042785   0.968705   0.000000
    15  H    2.979192   0.971123   2.998875   2.988214   0.000000
    16  H    3.537328   2.775036   3.208282   4.097742   3.726803
    17  H    0.965267   3.066889   3.508778   3.888232   3.417390
    18  H    4.622026   5.142287   3.661433   2.724115   4.628081
                   16         17         18
    16  H    0.000000
    17  H    3.643370   0.000000
    18  H    6.768262   5.527208   0.000000
 Stoichiometry    H8O8Si2
 Framework group  C1[X(H8O8Si2)]
 Deg. of freedom    48
 Full point group                 C1      NOp   1
 Largest Abelian subgroup         C1      NOp   1
 Largest concise Abelian subgroup C1      NOp   1
                         Standard orientation:                         
 ---------------------------------------------------------------------
 Center     Atomic      Atomic             Coordinates (Angstroms)
 Number     Number       Type             X           Y           Z
 ---------------------------------------------------------------------
      1         14           0       -2.097128    0.022683    0.020281
      2          8           0       -1.613016   -1.070602   -1.137188
      3          8           0       -3.738984    0.081783    0.029172
      4          8           0       -1.496098    1.524292   -0.206786
      5          8           0       -1.413326   -0.583143    1.412834
      6          1           0       -1.692586   -1.472433    1.665071
      7          1           0       -0.534723    1.630924   -0.318076
      8          1           0       -4.150172    0.909634    0.304219
      9         14           0        2.102300   -0.024411   -0.030730
     10          8           0        3.739193    0.065560   -0.094061
     11          8           0        1.470963    1.484560   -0.397126
     12          8           0        1.665825   -0.452189    1.503332
     13          8           0        1.504932   -1.047203   -1.165685
     14          1           0        0.548714   -1.188488   -1.229518
     15          1           0        0.712441   -0.514829    1.677163
     16          1           0        4.231855   -0.557284    0.452014
     17          1           0        1.918550    2.225609    0.029784
     18          1           0       -2.062402   -1.033412   -1.990322
 ---------------------------------------------------------------------
 Rotational constants (GHZ):           1.9709996           0.4630811           0.4607328
 Standard basis: 6-31+G(d,p) (6D, 7F)
 There are   238 symmetry adapted cartesian basis functions of A   symmetry.
 There are   238 symmetry adapted basis functions of A   symmetry.
   238 basis functions,   424 primitive gaussians,   238 cartesian basis functions
    50 alpha electrons       50 beta electrons
       nuclear repulsion energy       841.5536964361 Hartrees.
 NAtoms=   18 NActive=   18 NUniq=   18 SFac= 1.00D+00 NAtFMM=   60 NAOKFM=F Big=F
 Integral buffers will be    131072 words long.
 Raffenetti 2 integral format.
 Two-electron integral symmetry is turned on.
 Nuclear repulsion after empirical dispersion term =      841.5382138678 Hartrees.
 One-electron integrals computed using PRISM.
 NBasis=   238 RedAO= T EigKep=  2.66D-04  NBF=   238
 NBsUse=   238 1.00D-06 EigRej= -1.00D+00 NBFU=   238
 Initial guess from the checkpoint file:  "/localscratch/sarashs.37136501.0/Gau-14046.chk"
 B after Tr=    -0.000000   -0.000000   -0.000000
         Rot=    0.999938    0.011174    0.000031    0.000322 Ang=   1.28 deg.
 ExpMin= 3.31D-02 ExpMax= 1.61D+04 ExpMxC= 2.43D+03 IAcc=3 IRadAn=         5 AccDes= 0.00D+00
 Harris functional with IExCor=  402 and IRadAn=       5 diagonalized for initial guess.
 HarFok:  IExCor=  402 AccDes= 0.00D+00 IRadAn=         5 IDoV= 1 UseB2=F ITyADJ=14
 ICtDFT=  3500011 ScaDFX=  1.000000  1.000000  1.000000  1.000000
 FoFCou: FMM=F IPFlag=           0 FMFlag=      100000 FMFlg1=           0
         NFxFlg=           0 DoJE=T BraDBF=F KetDBF=T FulRan=T
         wScrn=  0.000000 ICntrl=       500 IOpCl=  0 I1Cent=   200000004 NGrid=           0
         NMat0=    1 NMatS0=      1 NMatT0=    0 NMatD0=    1 NMtDS0=    0 NMtDT0=    0
 Petite list used in FoFCou.
 Requested convergence on RMS density matrix=1.00D-08 within 128 cycles.
 Requested convergence on MAX density matrix=1.00D-06.
 Requested convergence on             energy=1.00D-06.
 No special actions if energy rises.
 SCF Done:  E(RB3LYP) =  -1186.07156718     A.U. after    9 cycles
            NFock=  9  Conv=0.44D-08     -V/T= 2.0067
 Calling FoFJK, ICntrl=      2127 FMM=F ISym2X=0 I1Cent= 0 IOpClX= 0 NMat=1 NMatS=1 NMatT=0.
 ***** Axes restored to original set *****
 -------------------------------------------------------------------
 Center     Atomic                   Forces (Hartrees/Bohr)
 Number     Number              X              Y              Z
 -------------------------------------------------------------------
      1       14           0.008683402    0.000132208   -0.000092243
      2        8          -0.000084191    0.000138802   -0.000047085
      3        8           0.000487340    0.000118796   -0.000065645
      4        8          -0.002450435   -0.000322558    0.000011811
      5        8          -0.000205610    0.000109961   -0.000008883
      6        1           0.000255707   -0.000057940    0.000147360
      7        1           0.003033637    0.000318533    0.000005061
      8        1           0.000100129   -0.000091707    0.000064406
      9       14          -0.008634267   -0.000157233    0.000043768
     10        8          -0.000576079    0.000016593    0.000063950
     11        8          -0.000472535   -0.000411030   -0.000141071
     12        8           0.000545176   -0.000418571    0.000108604
     13        8           0.001534303   -0.000049133   -0.000126361
     14        1          -0.001415135    0.000058344    0.000124243
     15        1          -0.000365480    0.000195265    0.000000348
     16        1          -0.000049902    0.000004446   -0.000081561
     17        1          -0.000573688    0.000540106    0.000098252
     18        1           0.000187628   -0.000124883   -0.000104953
 -------------------------------------------------------------------
 Cartesian Forces:  Max     0.008683402 RMS     0.001786625

 GradGradGradGradGradGradGradGradGradGradGradGradGradGradGradGradGradGrad
 Berny optimization.
 Using GEDIIS/GDIIS optimizer.
 FormGI is forming the generalized inverse of G from B-inverse, IUseBI=4.
 Internal  Forces:  Max     0.006798378 RMS     0.000923367
 Search for a local minimum.
 Step number   3 out of a maximum of   91
 All quantities printed in internal units (Hartrees-Bohrs-Radians)
 Mixed Optimization -- En-DIIS/RFO-DIIS
 Swapping is turned off.
 Update second derivatives using D2CorX and points    1    2    3
 DE= -1.27D-04 DEPred=-1.10D-04 R= 1.16D+00
 TightC=F SS=  1.41D+00  RLast= 8.51D-02 DXNew= 5.4341D-01 2.5525D-01
 Trust test= 1.16D+00 RLast= 8.51D-02 DXMaxT set to 3.23D-01
 ITU=  1  1  0
     Eigenvalues ---    0.01292   0.01878   0.02647   0.03019   0.03177
     Eigenvalues ---    0.03271   0.03484   0.03637   0.03758   0.03781
     Eigenvalues ---    0.03918   0.04621   0.06726   0.06764   0.08164
     Eigenvalues ---    0.08346   0.10403   0.11086   0.11296   0.11649
     Eigenvalues ---    0.12341   0.12602   0.14558   0.15966   0.16000
     Eigenvalues ---    0.16111   0.16377   0.17357   0.17806   0.18468
     Eigenvalues ---    0.20391   0.37309   0.39062   0.40517   0.42065
     Eigenvalues ---    0.43555   0.43777   0.44404   0.44908   0.50017
     Eigenvalues ---    0.52589   0.54180   0.54307   0.54379   0.54537
     Eigenvalues ---    0.54699   0.577981000.000001000.000001000.00000
     Eigenvalues --- 1000.000001000.000001000.000001000.000001000.00000
     Eigenvalues --- 1000.000001000.000001000.000001000.000001000.00000
     Eigenvalues --- 1000.000001000.000001000.000001000.000001000.00000
     Eigenvalues --- 1000.000001000.000001000.000001000.000001000.00000
     Eigenvalues --- 1000.000001000.000001000.000001000.000001000.00000
     Eigenvalues --- 1000.000001000.000001000.000001000.000001000.00000
     Eigenvalues --- 1000.00000
 En-DIIS/RFO-DIIS/Sim-DIIS IScMMF=       -3 using points:     3    2
 RFO step:  Lambda=-8.44487951D-05.
 DidBck=F Rises=F RFO-DIIS coefs:    1.53469   -0.53469
 Iteration  1 RMS(Cart)=  0.00956143 RMS(Int)=  0.00004586
 Iteration  2 RMS(Cart)=  0.00005148 RMS(Int)=  0.00003192
 Iteration  3 RMS(Cart)=  0.00000000 RMS(Int)=  0.00003192
 Iteration  1 RMS(Cart)=  0.00002081 RMS(Int)=  0.00000508
 Iteration  2 RMS(Cart)=  0.00000447 RMS(Int)=  0.00000549
 Iteration  3 RMS(Cart)=  0.00000096 RMS(Int)=  0.00000567
 Variable       Old X    -DE/DX   Delta X   Delta X   Delta X     New X
                                 (Linear)    (Quad)   (Total)
    R1        3.14477  -0.00027  -0.00156   0.00076  -0.00080   3.14398
    R2        3.10471  -0.00059  -0.00163  -0.00099  -0.00262   3.10210
    R3        3.08647  -0.00068   0.00313  -0.00103   0.00213   3.08860
    R4        3.14729   0.00011   0.00080  -0.00017   0.00063   3.14792
    R5        7.93685  -0.00680   0.00000   0.00000  -0.00000   7.93685
    R6        4.09487  -0.00119  -0.01341  -0.00059  -0.01396   4.08090
    R7        1.82353  -0.00000  -0.00001  -0.00006  -0.00008   1.82345
    R8        1.82245  -0.00010   0.00002  -0.00022  -0.00020   1.82225
    R9        1.83994   0.00104  -0.00260   0.00495   0.00244   1.84237
   R10        1.82478   0.00001   0.00026  -0.00017   0.00010   1.82488
   R11        3.80321  -0.00199  -0.02566  -0.01780  -0.04337   3.75984
   R12        3.10026  -0.00062  -0.00162  -0.00121  -0.00283   3.09743
   R13        3.16766  -0.00013  -0.00251   0.00201  -0.00048   3.16718
   R14        3.12054   0.00015   0.00045   0.00091   0.00136   3.12189
   R15        3.10000  -0.00044   0.00254  -0.00062   0.00194   3.10194
   R16        1.82126  -0.00007  -0.00001  -0.00012  -0.00013   1.82112
   R17        1.82409   0.00019   0.00005   0.00029   0.00034   1.82443
   R18        1.83516   0.00035  -0.00038   0.00064   0.00025   1.83541
   R19        1.83059   0.00020  -0.00184   0.00302   0.00123   1.83181
    A1        1.89453  -0.00047   0.00259   0.00086   0.00348   1.89801
    A2        1.98259   0.00090  -0.00134  -0.00100  -0.00239   1.98020
    A3        1.79583   0.00014  -0.00024   0.00117   0.00090   1.79673
    A4        1.91285  -0.00062  -0.00223   0.00129  -0.00091   1.91195
    A5        2.00299   0.00018   0.00155   0.00160   0.00313   2.00612
    A6        1.87505  -0.00001  -0.00022  -0.00398  -0.00421   1.87084
    A7        1.93434  -0.00042  -0.00106   0.00194   0.00085   1.93519
    A8        2.04219   0.00014   0.00236   0.00107   0.00344   2.04563
    A9        2.01419   0.00041  -0.00027  -0.00210  -0.00238   2.01182
   A10        2.04711  -0.00012   0.00068  -0.00072  -0.00003   2.04708
   A11        2.07137  -0.00066   0.00048  -0.00424  -0.00371   2.06766
   A12        2.02047   0.00049   0.00031   0.00367   0.00398   2.02445
   A13        1.89440  -0.00049   0.00475  -0.00008   0.00471   1.89911
   A14        1.88998   0.00006   0.00058   0.00011   0.00068   1.89066
   A15        1.95068  -0.00057  -0.00116   0.00092  -0.00022   1.95046
   A16        1.91421   0.00018  -0.00269   0.00251  -0.00020   1.91401
   A17        1.84719   0.00078   0.00011  -0.00169  -0.00166   1.84553
   A18        1.96596   0.00004  -0.00139  -0.00168  -0.00306   1.96291
   A19        2.04061  -0.00003   0.00021   0.00004   0.00025   2.04086
   A20        2.01776  -0.00038   0.00079   0.00779   0.00861   2.02637
   A21        1.97024  -0.00076  -0.00426  -0.00562  -0.00992   1.96032
   A22        2.00400   0.00096   0.00148   0.00412   0.00560   2.00960
   A23        2.02917  -0.00016  -0.00241  -0.00014  -0.00256   2.02661
   A24        2.08976  -0.00079  -0.00066  -0.00510  -0.00576   2.08400
   A25        2.95768  -0.00117   0.01383  -0.00153   0.01241   2.97009
   A26        2.99090  -0.00100   0.01007   0.00247   0.01261   3.00351
   A27        3.06486   0.00041  -0.00892   0.00548  -0.00346   3.06140
   A28        3.31402  -0.00046   0.00501  -0.00038   0.00475   3.31877
    D1        3.12894   0.00038  -0.00094  -0.00075  -0.00171   3.12722
    D2        0.76988   0.00007  -0.00184  -0.00078  -0.00263   0.76725
    D3        0.99644   0.00092   0.00092  -0.00235  -0.00148   0.99496
    D4       -1.36262   0.00061   0.00002  -0.00238  -0.00239  -1.36501
    D5       -1.02479   0.00043   0.00195   0.00215   0.00409  -1.02070
    D6        2.89934   0.00013   0.00105   0.00211   0.00317   2.90251
    D7       -2.64434  -0.00020  -0.00003  -0.00042  -0.00043  -2.64477
    D8       -0.46993   0.00021  -0.00143  -0.00026  -0.00169  -0.47162
    D9        1.64123  -0.00016  -0.00231  -0.00336  -0.00569   1.63554
   D10       -0.92028  -0.00060  -0.00193  -0.00357  -0.00545  -0.92573
   D11       -3.04260  -0.00015  -0.00272  -0.00493  -0.00763  -3.05023
   D12        1.05372   0.00003  -0.00306  -0.00511  -0.00816   1.04556
   D13       -1.05079   0.00056  -0.00246   0.00142  -0.00108  -1.05187
   D14        1.00361   0.00017   0.00128   0.00401   0.00530   1.00891
   D15        3.13539  -0.00052  -0.00072   0.00376   0.00307   3.13846
[...]
 ---------------------------------------------------------------------
      1         14           0       -1.971097    0.038003    0.010402
      2          8           0       -1.485908   -1.053029   -1.149960
      3          8           0       -3.611828    0.107773    0.007609
      4          8           0       -1.354757    1.534466   -0.205794
      5          8           0       -1.297808   -0.579731    1.403267
      6          1           0       -1.570298   -1.474303    1.643662
      7          1           0       -0.384001    1.621433   -0.288938
      8          1           0       -4.018662    0.930483    0.303464
      9         14           0        2.227875   -0.043921   -0.033629
     10          8           0        3.859993    0.076457   -0.121013
     11          8           0        1.557832    1.465750   -0.331016
     12          8           0        1.820687   -0.534298    1.490631
     13          8           0        1.627643   -1.029952   -1.198986
     14          1           0        0.668076   -1.166773   -1.251724
     15          1           0        0.868797   -0.565941    1.681485
     16          1           0        4.375341   -0.561838    0.384589
     17          1           0        1.964971    2.199631    0.146392
     18          1           0       -1.922264   -1.006991   -2.009311
 ---------------------------------------------------------------------
                    Distance matrix (angstroms):
                    1          2          3          4          5
     1  Si   0.000000
     2  O    1.664992   0.000000
     3  O    1.642216   2.684579   0.000000
     4  O    1.632795   2.757495   2.678687   0.000000
     5  O    1.665829   2.603529   2.788407   2.657471   0.000000
     6  H    2.261691   2.826468   3.057365   3.538310   0.965556
     7  H    2.261799   3.017997   3.577426   0.978184   2.922966
     8  H    2.252760   3.530100   0.964311   2.778585   3.300509
     9  Si   4.200002   4.007079   5.841818   3.918698   3.844763
    10  O    5.832698   5.559958   7.472994   5.415403   5.418203
    11  O    3.822090   4.034758   5.355759   2.916089   3.917450
    12  O    4.110503   4.263259   5.667789   4.152238   3.120049
    13  O    3.943866   3.114023   5.495666   4.056769   3.941152
    14  H    3.163809   2.159385   4.639824   3.533060   3.355339
    15  H    3.349965   3.714697   4.830295   3.594123   2.184439
    16  H    6.385696   6.078680   8.024049   6.130013   5.763909
    17  H    4.492634   4.916186   5.957836   3.403978   4.466577
    18  H    2.274563   0.964889   2.857497   3.167608   3.495453
                    6          7          8          9         10
     6  H    0.000000
     7  H    3.837425   0.000000
     8  H    3.684239   3.746881   0.000000
     9  Si   4.391516   3.108132   6.331060   0.000000
    10  O    5.916671   4.519583   7.936167   1.638883   0.000000
    11  O    4.725301   1.948518   5.637940   1.678244   2.697069
    12  O    3.522188   3.560153   6.136200   1.652162   2.670053
    13  O    4.301734   3.450325   6.162907   1.640302   2.714692
    14  H    3.672622   3.131759   5.364943   2.275417   3.607279
    15  H    2.603024   3.199481   5.293910   2.249714   3.550905
    16  H    6.145607   5.279361   8.526013   2.248279   0.963658
    17  H    5.313919   2.457944   6.118764   2.266065   2.858405
    18  H    3.699524   3.497792   3.673911   4.696220   6.178514
                   11         12         13         14         15
    11  O    0.000000
    12  O    2.718029   0.000000
    13  O    2.643250   2.741710   0.000000
    14  H    2.927379   3.041225   0.970706   0.000000
    15  H    2.941547   0.971350   3.014675   3.000834   0.000000
    16  H    3.544229   2.783944   3.205727   4.097229   3.738691
    17  H    0.965536   3.049944   3.514830   3.869023   3.347610
    18  H    4.587177   5.146136   3.641290   2.703578   4.648282
                   16         17         18
    16  H    0.000000
    17  H    3.673191   0.000000
    18  H    6.751944   5.480882   0.000000
 Stoichiometry    H8O8Si2
 Framework group  C1[X(H8O8Si2)]
 Deg. of freedom    48
 Full point group                 C1      NOp   1
 Largest Abelian subgroup         C1      NOp   1
 Largest concise Abelian subgroup C1      NOp   1
                         Standard orientation:                         
 ---------------------------------------------------------------------
 Center     Atomic      Atomic             Coordinates (Angstroms)
 Number     Number       Type             X           Y           Z
 ---------------------------------------------------------------------
      1         14           0       -2.096364    0.023710    0.018312
      2          8           0       -1.604172   -1.147476   -1.057917
      3          8           0       -3.737631    0.079406    0.014500
      4          8           0       -1.493183    1.504739   -0.311450
      5          8           0       -1.415149   -0.481818    1.451970
      6          1           0       -1.679560   -1.358000    1.759691
      7          1           0       -0.523365    1.593285   -0.403400
      8          1           0       -4.150867    0.918631    0.248662
      9         14           0        2.103059   -0.026323   -0.030236
     10          8           0        3.733923    0.100726   -0.130630
     11          8           0        1.419636    1.451054   -0.438642
     12          8           0        1.703011   -0.403969    1.527642
     13          8           0        1.508970   -1.102225   -1.116553
     14          1           0        0.550500   -1.250614   -1.156378
     15          1           0        0.751796   -0.429085    1.722785
     16          1           0        4.255657   -0.493394    0.420236
     17          1           0        1.821448    2.222147   -0.018854
     18          1           0       -2.042570   -1.169878   -1.917170
 ---------------------------------------------------------------------
 Rotational constants (GHZ):           1.9739250           0.4638247           0.4615992

 **********************************************************************

            Population analysis using the SCF Density.

 **********************************************************************

 Orbital symmetries:
       Occupied  (A) (A) (A) (A) (A) (A) (A) (A) (A) (A) (A) (A)
                 (A) (A) (A) (A) (A) (A) (A) (A) (A) (A) (A) (A)
                 (A) (A) (A) (A) (A) (A) (A) (A) (A) (A) (A) (A)
                 (A) (A) (A) (A) (A) (A) (A) (A) (A) (A) (A) (A)
                 (A) (A)
       Virtual   (A) (A) (A) (A) (A) (A) (A) (A) (A) (A) (A) (A)
                 (A) (A) (A) (A) (A) (A) (A) (A) (A) (A) (A) (A)
                 (A) (A) (A) (A) (A) (A) (A) (A) (A) (A) (A) (A)
                 (A) (A) (A) (A) (A) (A) (A) (A) (A) (A) (A) (A)
                 (A) (A) (A) (A) (A) (A) (A) (A) (A) (A) (A) (A)
                 (A) (A) (A) (A) (A) (A) (A) (A) (A) (A) (A) (A)
                 (A) (A) (A) (A) (A) (A) (A) (A) (A) (A) (A) (A)
                 (A) (A) (A) (A) (A) (A) (A) (A) (A) (A) (A) (A)
                 (A) (A) (A) (A) (A) (A) (A) (A) (A) (A) (A) (A)
                 (A) (A) (A) (A) (A) (A) (A) (A) (A) (A) (A) (A)
                 (A) (A) (A) (A) (A) (A) (A) (A) (A) (A) (A) (A)
                 (A) (A) (A) (A) (A) (A) (A) (A) (A) (A) (A) (A)
                 (A) (A) (A) (A) (A) (A) (A) (A) (A) (A) (A) (A)
                 (A) (A) (A) (A) (A) (A) (A) (A) (A) (A) (A) (A)
                 (A) (A) (A) (A) (A) (A) (A) (A) (A) (A) (A) (A)
                 (A) (A) (A) (A) (A) (A) (A) (A)
 The electronic state is 1-A.
 Alpha  occ. eigenvalues --  -66.23547 -66.22015 -19.18869 -19.18807 -19.18646
 Alpha  occ. eigenvalues --  -19.17864 -19.17158 -19.16640 -19.15755 -19.15551
 Alpha  occ. eigenvalues --   -5.36878  -5.35324  -3.72872  -3.72866  -3.72825
 Alpha  occ. eigenvalues --   -3.71345  -3.71301  -3.71257  -1.06027  -1.04412
 Alpha  occ. eigenvalues --   -1.02729  -1.02432  -1.01514  -1.00790  -1.00188
 Alpha  occ. eigenvalues --   -0.99498  -0.61239  -0.59721  -0.55451  -0.54933
 Alpha  occ. eigenvalues --   -0.53779  -0.52985  -0.52716  -0.51816  -0.42740
 Alpha  occ. eigenvalues --   -0.42001  -0.40717  -0.40370  -0.39468  -0.38706
 Alpha  occ. eigenvalues --   -0.38236  -0.37380  -0.37208  -0.35974  -0.35259
 Alpha  occ. eigenvalues --   -0.34705  -0.34203  -0.33797  -0.33475  -0.31195
 Alpha virt. eigenvalues --   -0.03753  -0.01144   0.00541   0.00752   0.01816
 Alpha virt. eigenvalues --    0.04353   0.05137   0.06147   0.09134   0.09589
 Alpha virt. eigenvalues --    0.10393   0.10831   0.12038   0.13014   0.13163
 Alpha virt. eigenvalues --    0.14361   0.14607   0.14805   0.15113   0.15364
 Alpha virt. eigenvalues --    0.15930   0.16293   0.16640   0.17246   0.17731
 Alpha virt. eigenvalues --    0.18430   0.19367   0.20511   0.21011   0.21248
 Alpha virt. eigenvalues --    0.21306   0.21475   0.22530   0.23572   0.24505
 Alpha virt. eigenvalues --    0.24627   0.25134   0.26138   0.26620   0.27583
 Alpha virt. eigenvalues --    0.27886   0.28045   0.28950   0.29640   0.30129
 Alpha virt. eigenvalues --    0.31140   0.32778   0.33961   0.35489   0.36975
 Alpha virt. eigenvalues --    0.37739   0.38497   0.41042   0.41132   0.43149
 Alpha virt. eigenvalues --    0.44775   0.45859   0.46626   0.49431   0.49651
 Alpha virt. eigenvalues --    0.51458   0.58382   0.61205   0.62371   0.63010
 Alpha virt. eigenvalues --    0.63237   0.64637   0.74401   0.92687   0.92908
 Alpha virt. eigenvalues --    0.94290   0.96029   0.97194   0.97704   0.99178
 Alpha virt. eigenvalues --    0.99756   1.00258   1.01760   1.02005   1.07481
 Alpha virt. eigenvalues --    1.08557   1.11059   1.15701   1.16393   1.17031
 Alpha virt. eigenvalues --    1.17501   1.18051   1.18907   1.19114   1.19860
 Alpha virt. eigenvalues --    1.21051   1.21204   1.22811   1.23840   1.24767
 Alpha virt. eigenvalues --    1.26191   1.26407   1.27064   1.27954   1.29228
 Alpha virt. eigenvalues --    1.30548   1.31533   1.33665   1.34803   1.36380
 Alpha virt. eigenvalues --    1.37634   1.49092   1.50499   1.53762   1.54868
 Alpha virt. eigenvalues --    1.55357   1.56300   1.57621   1.58672   1.60172
 Alpha virt. eigenvalues --    1.61764   1.62321   1.63045   1.66083   1.67366
 Alpha virt. eigenvalues --    1.69136   1.71620   1.72767   1.74315   1.77119
 Alpha virt. eigenvalues --    1.78343   1.78657   1.81670   1.85297   1.88319
 Alpha virt. eigenvalues --    1.90800   1.91323   1.98251   1.99750   2.02758
 Alpha virt. eigenvalues --    2.03901   2.10116   2.10833   2.34107   2.36207
 Alpha virt. eigenvalues --    2.37261   2.38798   2.39750   2.42426   2.44094
 Alpha virt. eigenvalues --    2.44453   2.45847   2.47764   2.57851   2.59365
 Alpha virt. eigenvalues --    2.59931   2.60194   2.60881   2.61822   2.62050
 Alpha virt. eigenvalues --    2.63761   2.64184   2.65711   2.66180   2.66740
 Alpha virt. eigenvalues --    2.67832   2.69140   2.69846   2.71811   2.76275
 Alpha virt. eigenvalues --    2.77565   2.79571   2.81745   2.83762   2.84718
 Alpha virt. eigenvalues --    2.99272   3.01768   3.40496   3.42458   3.42799
 Alpha virt. eigenvalues --    3.43240   3.44292   3.55097   3.56890   3.60292
 Alpha virt. eigenvalues --    4.15003   4.18938   4.23530   4.24326   4.26557
 Alpha virt. eigenvalues --    4.27491   4.32042   4.37510
          Condensed to atoms (all electrons):
               1          2          3          4          5          6
     1  Si  11.606788   0.013280   0.042184   0.150767  -0.012303   0.040913
     2  O    0.013280   8.634077  -0.012843   0.027144   0.094210  -0.009127
     3  O    0.042184  -0.012843   8.612672  -0.022367  -0.062075  -0.003129
     4  O    0.150767   0.027144  -0.022367   8.475633   0.073782   0.005525
     5  O   -0.012303   0.094210  -0.062075   0.073782   8.607699   0.239793
     6  H    0.040913  -0.009127  -0.003129   0.005525   0.239793   0.357002
     7  H    0.024721  -0.005124   0.007207   0.240408  -0.004371  -0.000019
     8  H    0.034034   0.004459   0.235953  -0.001718  -0.003883   0.000044
     9  Si  -0.083407   0.046659  -0.004985   0.025561   0.060297  -0.003366
    10  O   -0.004292   0.001740  -0.000117   0.001871   0.002367  -0.000026
    11  O    0.055318  -0.020184   0.002558  -0.040170  -0.021311   0.000303
    12  O    0.015891  -0.015334   0.001260  -0.011036  -0.018672   0.000725
    13  O    0.040399  -0.024529   0.002249  -0.018113  -0.026237   0.000469
    14  H    0.002958   0.010202   0.000003   0.000582  -0.000788   0.000012
    15  H   -0.003648   0.001097   0.000042   0.000846   0.011033  -0.001308
    16  H    0.000198  -0.000006   0.000000  -0.000004  -0.000014  -0.000000
    17  H   -0.002683   0.000235  -0.000029   0.002236   0.000284  -0.000001
    18  H    0.025829   0.241508  -0.002107  -0.007302   0.005393   0.000055
               7          8          9         10         11         12
     1  Si   0.024721   0.034034  -0.083407  -0.004292   0.055318   0.015891
     2  O   -0.005124   0.004459   0.046659   0.001740  -0.020184  -0.015334
     3  O    0.007207   0.235953  -0.004985  -0.000117   0.002558   0.001260
     4  O    0.240408  -0.001718   0.025561   0.001871  -0.040170  -0.011036
     5  O   -0.004371  -0.003883   0.060297   0.002367  -0.021311  -0.018672
     6  H   -0.000019   0.000044  -0.003366  -0.000026   0.000303   0.000725
     7  H    0.288844   0.000024   0.003225   0.000092   0.014481   0.000738
     8  H    0.000024   0.352159   0.000105   0.000000  -0.000003  -0.000004
     9  Si   0.003225   0.000105  11.598702   0.025150  -0.047304   0.132654
    10  O    0.000092   0.000000   0.025150   8.592735  -0.001908  -0.009284
    11  O    0.014481  -0.000003  -0.047304  -0.001908   8.692661   0.072351
    12  O    0.000738  -0.000004   0.132654  -0.009284   0.072351   8.469885
    13  O   -0.000152  -0.000002   0.073808  -0.028005   0.072948   0.035566
    14  H    0.000008  -0.000001   0.033175   0.005840  -0.003764  -0.007529
    15  H    0.000039  -0.000001   0.032452   0.008842  -0.007388   0.240797
    16  H   -0.000001  -0.000000   0.034818   0.238089   0.003039  -0.002721
    17  H   -0.002126  -0.000000   0.031954   0.001396   0.237830  -0.011673
    18  H    0.000153   0.000049  -0.001631  -0.000005   0.000131   0.000037
              13         14         15         16         17         18
     1  Si   0.040399   0.002958  -0.003648   0.000198  -0.002683   0.025829
     2  O   -0.024529   0.010202   0.001097  -0.000006   0.000235   0.241508
     3  O    0.002249   0.000003   0.000042   0.000000  -0.000029  -0.002107
     4  O   -0.018113   0.000582   0.000846  -0.000004   0.002236  -0.007302
     5  O   -0.026237  -0.000788   0.011033  -0.000014   0.000284   0.005393
     6  H    0.000469   0.000012  -0.001308  -0.000000  -0.000001   0.000055
     7  H   -0.000152   0.000008   0.000039  -0.000001  -0.002126   0.000153
     8  H   -0.000002  -0.000001  -0.000001  -0.000000  -0.000000   0.000049
     9  Si   0.073808   0.033175   0.032452   0.034818   0.031954  -0.001631
    10  O   -0.028005   0.005840   0.008842   0.238089   0.001396  -0.000005
    11  O    0.072948  -0.003764  -0.007388   0.003039   0.237830   0.000131
    12  O    0.035566  -0.007529   0.240797  -0.002721  -0.011673   0.000037
    13  O    8.506784   0.238201  -0.008478  -0.003724   0.006398   0.000641
    14  H    0.238201   0.316818   0.000094  -0.000020  -0.000051  -0.000773
    15  H   -0.008478   0.000094   0.316270   0.000030   0.000206  -0.000010
    16  H   -0.003724  -0.000020   0.000030   0.357946   0.000078   0.000000
    17  H    0.006398  -0.000051   0.000206   0.000078   0.351896  -0.000000
    18  H    0.000641  -0.000773  -0.000010   0.000000  -0.000000   0.347726
 Mulliken charges:
               1
     1  Si   2.053055
     2  O   -0.987464
     3  O   -0.796476
     4  O   -0.903644
     5  O   -0.945201
     6  H    0.372137
     7  H    0.431855
     8  H    0.378785
     9  Si   2.042134
    10  O   -0.834485
    11  O   -1.009586
    12  O   -0.893651
    13  O   -0.868223
    14  H    0.405032
    15  H    0.409085
    16  H    0.372292
    17  H    0.384049
    18  H    0.390305
 Sum of Mulliken charges =  -0.00000
 Mulliken charges with hydrogens summed into heavy atoms:
               1
     1  Si   2.053055
     2  O   -0.597159
     3  O   -0.417691
     4  O   -0.471789
     5  O   -0.573064
     9  Si   2.042134
    10  O   -0.462193
    11  O   -0.625537
    12  O   -0.484566
    13  O   -0.463190
 Electronic spatial extent (au):  <R**2>=           2461.0464
 Charge=             -0.0000 electrons
 Dipole moment (field-independent basis, Debye):
    X=             -2.2544    Y=              0.0730    Z=              1.1182  Tot=              2.5176
 Quadrupole moment (field-independent basis, Debye-Ang):
   XX=            -66.1935   YY=            -68.5884   ZZ=            -72.6279
   XY=              0.7848   XZ=              4.4097   YZ=             -0.2041
 Traceless Quadrupole moment (field-independent basis, Debye-Ang):
   XX=              2.9431   YY=              0.5482   ZZ=             -3.4913
   XY=              0.7848   XZ=              4.4097   YZ=             -0.2041
 Octapole moment (field-independent basis, Debye-Ang**2):
  XXX=             -0.5249  YYY=              9.3156  ZZZ=            -11.0285  XYY=              1.6945
  XXY=              7.1167  XXZ=             22.3933  XZZ=            -24.8845  YZZ=            -10.0114
  YYZ=             10.6177  XYZ=             -3.4964
 Hexadecapole moment (field-independent basis, Debye-Ang**3):
 XXXX=          -2036.1153 YYYY=           -341.2000 ZZZZ=           -342.5567 XXXY=           -182.5345
 XXXZ=             62.0720 YYYX=             47.4217 YYYZ=             -3.7468 ZZZX=             15.9195
 ZZZY=              2.3360 XXYY=           -386.0206 XXZZ=           -430.6993 YYZZ=           -110.6577
 XXYZ=              4.4838 YYXZ=             -2.0144 ZZXY=             30.1905
 N-N= 8.420120565170D+02 E-N=-4.493588247486D+03  KE= 1.178149363777D+03
 1\1\GINC-GRA779\FOpt\RB3LYP\6-31+G(d,p)\H8O8Si2\SARASHS\11-Aug-2020\0\
 \#n B3LYP/6-31+G(d,p) EmpiricalDispersion=GD3 Opt=modredundant\\Title\
 \0,1\Si,-1.971097449,0.0380028196,0.010402206\O,-1.4859084787,-1.05302
 91289,-1.1499600607\O,-3.6118280767,0.1077733718,0.0076089481\O,-1.354
 756693,1.5344657861,-0.2057938291\O,-1.2978081188,-0.5797311432,1.4032
 674972\H,-1.5702978223,-1.4743030922,1.6436622136\H,-0.3840007742,1.62
 14333921,-0.2889384888\H,-4.0186624151,0.9304833193,0.3034644333\Si,2.
 2278746936,-0.0439209566,-0.033629111\O,3.8599929501,0.0764568012,-0.1
 210128074\O,1.557832217,1.4657502504,-0.3310164465\O,1.8206868596,-0.5
 342975765,1.4906307513\O,1.6276428216,-1.0299518471,-1.1989855913\H,0.
 6680760182,-1.1667729871,-1.2517241869\H,0.868796921,-0.5659406304,1.6
 814848996\H,4.3753411023,-0.5618380655,0.3845890294\H,1.9649706633,2.1
 996305228,0.1463916772\H,-1.922264419,-1.0069908357,-2.009311134\\Vers
 ion=ES64L-G16RevB.01\State=1-A\HF=-1186.0717109\RMSD=2.110e-09\RMSF=1.
 820e-03\Dipole=-0.887825,0.0030822,0.4391231\Quadrupole=2.1807972,0.40
 7757,-2.5885542,0.3199418,3.3229317,0.0477906\PG=C01 [X(H8O8Si2)]\\@


 IF YOU BELIEVE CERTAIN WORDS, YOU BELIEVE THEIR HIDDEN ARGUMENTS.
 WHEN YOU BELIEVE SOMETHING IS RIGHT OR WRONG, TRUE OR FALSE, 
 YOU BELIEVE THE ASSUMPTIONS IN THE WORDS WHICH EXPRESS THE ARGUMENTS.
 SUCH ASSUMPTIONS ARE OFTEN FULL OF HOLES, BUT REMAIN MOST PRECIOUS 
 TO THE CONVINCED.

                 -- THE OPEN-ENDED PROOF FROM THE PANOPLIA PROPHETICA
                    CHILDREN OF DUNE BY FRANK HERBERT
 Job cpu time:       0 days  0 hours 47 minutes 33.0 seconds.
 Elapsed time:       0 days  0 hours  3 minutes  4.5 seconds.
 File lengths (MBytes):  RWF=     40 Int=      0 D2E=      0 Chk=      5 Scr=      1
 Normal termination of Gaussian 16 at Tue Aug 11 13:24:19 2020.
