 Entering Gaussian System, Link 0=g16
 Initial command:
 /opt/software/gaussian/g16.b01/l1.exe "/localscratch/sarashs.36560090.0/Gau-23797.inp" -scrdir="/localscratch/sarashs.36560090.0/"
 Entering Link 1 = /opt/software/gaussian/g16.b01/l1.exe PID=     23798.
  
 Copyright (c) 1988-2017, Gaussian, Inc.  All Rights Reserved.
  
 This is part of the Gaussian(R) 16 program.  It is based on
 the Gaussian(R) 09 system (copyright 2009, Gaussian, Inc.),
 the Gaussian(R) 03 system (copyright 2003, Gaussian, Inc.),
 the Gaussian(R) 98 system (copyright 1998, Gaussian, Inc.),
 the Gaussian(R) 94 system (copyright 1995, Gaussian, Inc.),
 the Gaussian 92(TM) system (copyright 1992, Gaussian, Inc.),
 the Gaussian 90(TM) system (copyright 1990, Gaussian, Inc.),
 the Gaussian 88(TM) system (copyright 1988, Gaussian, Inc.),
 the Gaussian 86(TM) system (copyright 1986, Carnegie Mellon
 University), and the Gaussian 82(TM) system (copyright 1983,
 Carnegie Mellon University). Gaussian is a federally registered
 trademark of Gaussian, Inc.
  
 This software contains proprietary and confidential information,
 including trade secrets, belonging to Gaussian, Inc.
  
 This software is provided under written license and may be
 used, copied, transmitted, or stored only in accord with that
 written license.
  
 The following legend is applicable only to US Government
 contracts under FAR:
  
                    RESTRICTED RIGHTS LEGEND
  
 Use, reproduction and disclosure by the US Government is
 subject to restrictions as set forth in subparagraphs (a)
 and (c) of the Commercial Computer Software - Restricted
 Rights clause in FAR 52.227-19.
  
 Gaussian, Inc.
 340 Quinnipiac St., Bldg. 40, Wallingford CT 06492
  
  
 ---------------------------------------------------------------
 Warning -- This program may not be used in any manner that
 competes with the business of Gaussian, Inc. or will provide
 assistance to any competitor of Gaussian, Inc.  The licensee
 of this program is prohibited from giving any competitor of
 Gaussian, Inc. access to this program.  By using this program,
 the user acknowledges that Gaussian, Inc. is engaged in the
 business of creating and licensing software in the field of
 computational chemistry and represents and warrants to the
 licensee that it is not a competitor of Gaussian, Inc. and that
 it will not use this program in any manner prohibited above.
 ---------------------------------------------------------------
  

 Cite this work as:
 Gaussian 16, Revision B.01,
 M. J. Frisch, G. W. Trucks, H. B. Schlegel, G. E. Scuseria, 
 M. A. Robb, J. R. Cheeseman, G. Scalmani, V. Barone, 
 G. A. Petersson, H. Nakatsuji, X. Li, M. Caricato, A. V. Marenich, 
 J. Bloino, B. G. Janesko, R. Gomperts, B. Mennucci, H. P. Hratchian, 
 J. V. Ortiz, A. F. Izmaylov, J. L. Sonnenberg, D. Williams-Young, 
 F. Ding, F. Lipparini, F. Egidi, J. Goings, B. Peng, A. Petrone, 
 T. Henderson, D. Ranasinghe, V. G. Zakrzewski, J. Gao, N. Rega, 
 G. Zheng, W. Liang, M. Hada, M. Ehara, K. Toyota, R. Fukuda, 
 J. Hasegawa, M. Ishida, T. Nakajima, Y. Honda, O. Kitao, H. Nakai, 
 T. Vreven, K. Throssell, J. A. Montgomery, Jr., J. E. Peralta, 
 F. Ogliaro, M. J. Bearpark, J. J. Heyd, E. N. Brothers, K. N. Kudin, 
 V. N. Staroverov, T. A. Keith, R. Kobayashi, J. Normand, 
 K. Raghavachari, A. P. Rendell, J. C. Burant, S. S. Iyengar, 
 J. Tomasi, M. Cossi, J. M. Millam, M. Klene, C. Adamo, R. Cammi, 
 J. W. Ochterski, R. L. Martin, K. Morokuma, O. Farkas, 
 J. B. Foresman, and D. J. Fox, Gaussian, Inc., Wallingford CT, 2016.
 
 ******************************************
 Gaussian 16:  ES64L-G16RevB.01 20-Dec-2017
                29-Jul-2020 
 ******************************************
 %NProcShared=16
 Will use up to   16 processors via shared memory.
 -------------------------------------------------------------
 #n B3LYP/6-31+G(d,p) EmpiricalDispersion=GD3 Opt=modredundant
 -------------------------------------------------------------
 1/18=120,19=15,26=3,38=1/1,3;
 2/9=110,12=2,17=6,18=5,40=1/2;
 3/5=1,6=6,7=111,11=2,25=1,30=1,71=1,74=-5,124=31/1,2,3;
 4//1;
 5/5=2,38=5/2;
 6/7=2,8=2,9=2,10=2,28=1/1;
 7//1,2,3,16;
 1/18=20,19=15,26=3/3(2);
 2/9=110/2;
 99//99;
 2/9=110/2;
 3/5=1,6=6,7=111,11=2,25=1,30=1,71=1,74=-5,124=31/1,2,3;
 4/5=5,16=3,69=1/1;
 5/5=2,38=5/2;
 7//1,2,3,16;
 1/18=20,19=15,26=3/3(-5);
 2/9=110/2;
 6/7=2,8=2,9=2,10=2,19=2,28=1/1;
 99/9=1/99;
 -----
 Title
 -----
 Symbolic Z-matrix:
 Charge =  0 Multiplicity = 1
 Si                   -7.37445   0.57864   0.08376 
 O                    -5.75363   0.40029   0.30379 
 O                    -7.6782    2.11365  -0.39023 
 O                    -8.15308   0.27934   1.49093 
 O                    -7.8847   -0.48332  -1.05 
 H                    -7.28034  -0.5954   -1.80191 
 H                    -8.53839  -0.60912   1.54381 
 H                    -8.56827   2.4279   -0.17095 
 Si                   -3.31018  -2.97416  -1.406 
 O                    -1.79319  -2.57507  -0.93631 
 O                    -4.23059  -3.30155  -0.09125 
 O                    -3.24876  -4.28448  -2.38516 
 O                    -3.98384  -1.70788  -2.2029 
 H                    -4.00478  -0.89769  -1.66505 
 H                    -4.11864  -4.64444  -2.60985 
 H                    -1.10594  -3.06413  -1.41428 
 H                    -4.35706  -2.53859   0.49456 
 H                    -5.37962   1.09791   0.86682 
 
 Add virtual bond connecting atoms H14        and O2         Dist= 5.55D+00.
 The following ModRedundant input section has been read:
 B       1       9 F                                                           
 

 GradGradGradGradGradGradGradGradGradGradGradGradGradGradGradGradGradGrad
 Berny optimization.
 Initialization pass.
                           ----------------------------
                           !    Initial Parameters    !
                           ! (Angstroms and Degrees)  !
 --------------------------                            --------------------------
 ! Name  Definition              Value          Derivative Info.                !
 --------------------------------------------------------------------------------
 ! R1    R(1,2)                  1.6454         estimate D2E/DX2                !
 ! R2    R(1,3)                  1.635          estimate D2E/DX2                !
 ! R3    R(1,4)                  1.6358         estimate D2E/DX2                !
 ! R4    R(1,5)                  1.6351         estimate D2E/DX2                !
 ! R5    R(1,9)                  5.6            Frozen                          !
 ! R6    R(2,14)                 2.9359         estimate D2E/DX2                !
 ! R7    R(2,18)                 0.9714         estimate D2E/DX2                !
 ! R8    R(3,8)                  0.9691         estimate D2E/DX2                !
 ! R9    R(4,7)                  0.9699         estimate D2E/DX2                !
 ! R10   R(5,6)                  0.9712         estimate D2E/DX2                !
 ! R11   R(9,10)                 1.6374         estimate D2E/DX2                !
 ! R12   R(9,11)                 1.638          estimate D2E/DX2                !
 ! R13   R(9,12)                 1.6369         estimate D2E/DX2                !
 ! R14   R(9,13)                 1.6408         estimate D2E/DX2                !
 ! R15   R(10,16)                0.9695         estimate D2E/DX2                !
 ! R16   R(11,17)                0.9702         estimate D2E/DX2                !
 ! R17   R(12,15)                0.9679         estimate D2E/DX2                !
 ! R18   R(13,14)                0.9727         estimate D2E/DX2                !
 ! A1    A(2,1,3)              108.8772         estimate D2E/DX2                !
 ! A2    A(2,1,4)              109.5124         estimate D2E/DX2                !
 ! A3    A(2,1,5)              109.2523         estimate D2E/DX2                !
 ! A4    A(3,1,4)              109.4344         estimate D2E/DX2                !
 ! A5    A(3,1,5)              110.5346         estimate D2E/DX2                !
 ! A6    A(4,1,5)              109.214          estimate D2E/DX2                !
 ! A7    A(1,2,14)             123.0266         estimate D2E/DX2                !
 ! A8    A(1,2,18)             112.2687         estimate D2E/DX2                !
 ! A9    A(14,2,18)            118.4803         estimate D2E/DX2                !
 ! A10   A(1,3,8)              114.1731         estimate D2E/DX2                !
 ! A11   A(1,4,7)              113.8041         estimate D2E/DX2                !
 ! A12   A(1,5,6)              114.6833         estimate D2E/DX2                !
 ! A13   A(10,9,11)            109.82           estimate D2E/DX2                !
 ! A14   A(10,9,12)            109.3858         estimate D2E/DX2                !
 ! A15   A(10,9,13)            109.3648         estimate D2E/DX2                !
 ! A16   A(11,9,12)            109.9517         estimate D2E/DX2                !
 ! A17   A(11,9,13)            108.2631         estimate D2E/DX2                !
 ! A18   A(12,9,13)            110.0383         estimate D2E/DX2                !
 ! A19   A(9,10,16)            113.1017         estimate D2E/DX2                !
 ! A20   A(9,11,17)            113.6237         estimate D2E/DX2                !
 ! A21   A(9,12,15)            113.7569         estimate D2E/DX2                !
 ! A22   A(9,13,14)            112.5252         estimate D2E/DX2                !
 ! A23   A(2,14,13)            138.7536         estimate D2E/DX2                !
 ! D1    D(3,1,2,14)          -101.2659         estimate D2E/DX2                !
 ! D2    D(3,1,2,18)            50.4723         estimate D2E/DX2                !
 ! D3    D(4,1,2,14)           139.1149         estimate D2E/DX2                !
 ! D4    D(4,1,2,18)           -69.147          estimate D2E/DX2                !
 ! D5    D(5,1,2,14)            19.5376         estimate D2E/DX2                !
 ! D6    D(5,1,2,18)           171.2758         estimate D2E/DX2                !
 ! D7    D(2,1,3,8)           -154.199          estimate D2E/DX2                !
 ! D8    D(4,1,3,8)            -34.5313         estimate D2E/DX2                !
 ! D9    D(5,1,3,8)             85.7881         estimate D2E/DX2                !
 ! D10   D(2,1,4,7)           -100.0138         estimate D2E/DX2                !
 ! D11   D(3,1,4,7)            140.7097         estimate D2E/DX2                !
 ! D12   D(5,1,4,7)             19.587          estimate D2E/DX2                !
 ! D13   D(2,1,5,6)            -39.7339         estimate D2E/DX2                !
 ! D14   D(3,1,5,6)             80.0535         estimate D2E/DX2                !
 ! D15   D(4,1,5,6)           -159.4953         estimate D2E/DX2                !
 ! D16   D(1,2,14,13)          -47.668          estimate D2E/DX2                !
 ! D17   D(18,2,14,13)         162.2339         estimate D2E/DX2                !
 ! D18   D(11,9,10,16)         130.3438         estimate D2E/DX2                !
 ! D19   D(12,9,10,16)           9.5908         estimate D2E/DX2                !
 ! D20   D(13,9,10,16)        -110.9862         estimate D2E/DX2                !
 ! D21   D(10,9,11,17)          63.842          estimate D2E/DX2                !
 ! D22   D(12,9,11,17)        -175.7474         estimate D2E/DX2                !
 ! D23   D(13,9,11,17)         -55.5049         estimate D2E/DX2                !
 ! D24   D(10,9,12,15)         172.6026         estimate D2E/DX2                !
 ! D25   D(11,9,12,15)          51.9299         estimate D2E/DX2                !
 ! D26   D(13,9,12,15)         -67.2318         estimate D2E/DX2                !
 ! D27   D(10,9,13,14)         -57.463          estimate D2E/DX2                !
 ! D28   D(11,9,13,14)          62.1705         estimate D2E/DX2                !
 ! D29   D(12,9,13,14)        -177.6412         estimate D2E/DX2                !
 ! D30   D(9,13,14,2)          -87.3663         estimate D2E/DX2                !
 --------------------------------------------------------------------------------
 Trust Radius=3.00D-01 FncErr=1.00D-07 GrdErr=1.00D-06 EigMax=2.50D+02 EigMin=1.00D-04
 Number of steps in this run=     81 maximum allowed number of steps=    108.
 GradGradGradGradGradGradGradGradGradGradGradGradGradGradGradGradGradGrad

                          Input orientation:                          
 ---------------------------------------------------------------------
 Center     Atomic      Atomic             Coordinates (Angstroms)
 Number     Number       Type             X           Y           Z
 ---------------------------------------------------------------------
      1         14           0       -7.374450    0.578640    0.083760
      2          8           0       -5.753630    0.400290    0.303790
      3          8           0       -7.678200    2.113650   -0.390230
      4          8           0       -8.153080    0.279340    1.490930
      5          8           0       -7.884700   -0.483320   -1.050000
      6          1           0       -7.280340   -0.595400   -1.801910
      7          1           0       -8.538390   -0.609120    1.543810
      8          1           0       -8.568270    2.427900   -0.170950
      9         14           0       -3.310180   -2.974160   -1.406000
     10          8           0       -1.793190   -2.575070   -0.936310
     11          8           0       -4.230590   -3.301550   -0.091250
     12          8           0       -3.248760   -4.284480   -2.385160
     13          8           0       -3.983840   -1.707880   -2.202900
     14          1           0       -4.004780   -0.897690   -1.665050
     15          1           0       -4.118640   -4.644440   -2.609850
     16          1           0       -1.105940   -3.064130   -1.414280
     17          1           0       -4.357060   -2.538590    0.494560
     18          1           0       -5.379620    1.097910    0.866820
 ---------------------------------------------------------------------
                    Distance matrix (angstroms):
                    1          2          3          4          5
     1  Si   0.000000
     2  O    1.645381   0.000000
     3  O    1.634988   2.668564   0.000000
     4  O    1.635840   2.679793   2.670013   0.000000
     5  O    1.635092   2.674878   2.687414   2.666459   0.000000
     6  H    2.223281   2.784998   3.080598   3.517050   0.971175
     7  H    2.212979   3.211144   3.448755   0.969856   2.677870
     8  H    2.215817   3.501254   0.969052   2.747824   3.116921
     9  Si   5.600006   4.503415   6.782123   6.513919   5.220848
    10  O    6.491294   5.106437   7.544246   7.381555   6.441649
    11  O    4.997035   4.022353   6.426492   5.541840   4.713188
    12  O    6.838627   5.954149   8.033415   7.739824   6.141939
    13  O    4.685427   3.722906   5.615885   5.914050   4.247992
    14  H    4.073397   2.935909   4.918064   5.343595   3.950161
    15  H    6.718363   6.050768   7.954179   7.572101   5.825054
    16  H    7.403250   6.046073   8.429276   8.323534   7.262566
    17  H    4.357812   3.259420   5.784130   4.831485   4.365094
    18  H    2.205033   0.971370   2.809871   2.958319   3.528443
                    6          7          8          9         10
     6  H    0.000000
     7  H    3.574454   0.000000
     8  H    3.668670   3.487805   0.000000
     9  Si   4.645150   6.452052   7.639052   0.000000
    10  O    5.897217   7.450750   8.456784   1.637419   0.000000
    11  O    4.421604   5.336641   7.186683   1.637958   2.680078
    12  O    5.495737   7.544883   8.846240   1.636907   2.672065
    13  O    3.502187   5.999086   6.500038   1.640833   2.674924
    14  H    3.292325   5.561805   5.841004   2.204836   2.869808
    15  H    5.200369   7.284977   8.704334   2.211944   3.534225
    16  H    6.660938   8.367717   9.348510   2.206091   0.969509
    17  H    4.194679   4.723061   6.545473   2.213099   2.936350
    18  H    3.688110   3.653778   3.607399   5.101965   5.441005
                   11         12         13         14         15
    11  O    0.000000
    12  O    2.681821   0.000000
    13  O    2.657016   2.685597   0.000000
    14  H    2.882079   3.544076   0.972692   0.000000
    15  H    2.856437   0.967857   2.967687   3.865714   0.000000
    16  H    3.401502   2.650196   3.277750   3.627619   3.605985
    17  H    0.970194   3.545314   2.847045   2.735063   3.758831
    18  H    4.646872   6.639733   4.386780   3.504707   6.830219
                   16         17         18
    16  H    0.000000
    17  H    3.806526   0.000000
    18  H    6.386731   3.795832   0.000000
 Stoichiometry    H8O8Si2
 Framework group  C1[X(H8O8Si2)]
 Deg. of freedom    48
 Full point group                 C1      NOp   1
 Largest Abelian subgroup         C1      NOp   1
 Largest concise Abelian subgroup C1      NOp   1
                         Standard orientation:                         
 ---------------------------------------------------------------------
 Center     Atomic      Atomic             Coordinates (Angstroms)
 Number     Number       Type             X           Y           Z
 ---------------------------------------------------------------------
      1         14           0       -2.788267   -0.003989   -0.009416
      2          8           0       -1.557442    1.063450    0.220633
      3          8           0       -3.853839    0.637942   -1.070391
      4          8           0       -3.541161   -0.285142    1.415391
      5          8           0       -2.182458   -1.409632   -0.584471
      6          1           0       -1.471182   -1.307566   -1.237809
      7          1           0       -3.272484   -1.112911    1.843447
      8          1           0       -4.757859    0.301515   -0.977519
      9         14           0        2.811724   -0.006073    0.003258
     10          8           0        3.534598    1.446627    0.222930
     11          8           0        1.998439   -0.432474    1.359598
     12          8           0        3.948457   -1.131698   -0.343541
     13          8           0        1.734269    0.103224   -1.229413
     14          1           0        1.061889    0.789349   -1.076876
     15          1           0        3.605006   -2.036042   -0.374400
     16          1           0        4.471372    1.447026   -0.026871
     17          1           0        1.266493    0.165625    1.578247
     18          1           0       -1.878519    1.955494    0.432121
 ---------------------------------------------------------------------
 Rotational constants (GHZ):           2.0083096           0.2885747           0.2876376
 Standard basis: 6-31+G(d,p) (6D, 7F)
 There are   238 symmetry adapted cartesian basis functions of A   symmetry.
 There are   238 symmetry adapted basis functions of A   symmetry.
   238 basis functions,   424 primitive gaussians,   238 cartesian basis functions
    50 alpha electrons       50 beta electrons
       nuclear repulsion energy       774.5909992601 Hartrees.
 NAtoms=   18 NActive=   18 NUniq=   18 SFac= 1.00D+00 NAtFMM=   60 NAOKFM=F Big=F
 Integral buffers will be    131072 words long.
 Raffenetti 2 integral format.
 Two-electron integral symmetry is turned on.
 Nuclear repulsion after empirical dispersion term =      774.5799961521 Hartrees.
 One-electron integrals computed using PRISM.
 NBasis=   238 RedAO= T EigKep=  2.92D-04  NBF=   238
 NBsUse=   238 1.00D-06 EigRej= -1.00D+00 NBFU=   238
 ExpMin= 3.31D-02 ExpMax= 1.61D+04 ExpMxC= 2.43D+03 IAcc=3 IRadAn=         5 AccDes= 0.00D+00
 Harris functional with IExCor=  402 and IRadAn=       5 diagonalized for initial guess.
 HarFok:  IExCor=  402 AccDes= 0.00D+00 IRadAn=         5 IDoV= 1 UseB2=F ITyADJ=14
 ICtDFT=  3500011 ScaDFX=  1.000000  1.000000  1.000000  1.000000
 FoFCou: FMM=F IPFlag=           0 FMFlag=      100000 FMFlg1=           0
         NFxFlg=           0 DoJE=T BraDBF=F KetDBF=T FulRan=T
         wScrn=  0.000000 ICntrl=       500 IOpCl=  0 I1Cent=   200000004 NGrid=           0
         NMat0=    1 NMatS0=      1 NMatT0=    0 NMatD0=    1 NMtDS0=    0 NMtDT0=    0
 Petite list used in FoFCou.
 Requested convergence on RMS density matrix=1.00D-08 within 128 cycles.
 Requested convergence on MAX density matrix=1.00D-06.
 Requested convergence on             energy=1.00D-06.
 No special actions if energy rises.
 SCF Done:  E(RB3LYP) =  -1186.04284807     A.U. after   11 cycles
            NFock= 11  Conv=0.38D-08     -V/T= 2.0065

 **********************************************************************

            Population analysis using the SCF Density.

 **********************************************************************

 Orbital symmetries:
       Occupied  (A) (A) (A) (A) (A) (A) (A) (A) (A) (A) (A) (A)
                 (A) (A) (A) (A) (A) (A) (A) (A) (A) (A) (A) (A)
                 (A) (A) (A) (A) (A) (A) (A) (A) (A) (A) (A) (A)
                 (A) (A) (A) (A) (A) (A) (A) (A) (A) (A) (A) (A)
                 (A) (A)
       Virtual   (A) (A) (A) (A) (A) (A) (A) (A) (A) (A) (A) (A)
                 (A) (A) (A) (A) (A) (A) (A) (A) (A) (A) (A) (A)
                 (A) (A) (A) (A) (A) (A) (A) (A) (A) (A) (A) (A)
                 (A) (A) (A) (A) (A) (A) (A) (A) (A) (A) (A) (A)
                 (A) (A) (A) (A) (A) (A) (A) (A) (A) (A) (A) (A)
                 (A) (A) (A) (A) (A) (A) (A) (A) (A) (A) (A) (A)
                 (A) (A) (A) (A) (A) (A) (A) (A) (A) (A) (A) (A)
                 (A) (A) (A) (A) (A) (A) (A) (A) (A) (A) (A) (A)
                 (A) (A) (A) (A) (A) (A) (A) (A) (A) (A) (A) (A)
                 (A) (A) (A) (A) (A) (A) (A) (A) (A) (A) (A) (A)
                 (A) (A) (A) (A) (A) (A) (A) (A) (A) (A) (A) (A)
                 (A) (A) (A) (A) (A) (A) (A) (A) (A) (A) (A) (A)
                 (A) (A) (A) (A) (A) (A) (A) (A) (A) (A) (A) (A)
                 (A) (A) (A) (A) (A) (A) (A) (A) (A) (A) (A) (A)
                 (A) (A) (A) (A) (A) (A) (A) (A) (A) (A) (A) (A)
                 (A) (A) (A) (A) (A) (A) (A) (A)
 The electronic state is 1-A.
 Alpha  occ. eigenvalues --  -66.22372 -66.21089 -19.18480 -19.17833 -19.17721
 Alpha  occ. eigenvalues --  -19.17591 -19.17351 -19.16504 -19.16248 -19.16227
 Alpha  occ. eigenvalues --   -5.35979  -5.34699  -3.71978  -3.71958  -3.71882
 Alpha  occ. eigenvalues --   -3.70722  -3.70635  -3.70619  -1.05993  -1.04762
 Alpha  occ. eigenvalues --   -1.02282  -1.01810  -1.01776  -1.01204  -1.00662
 Alpha  occ. eigenvalues --   -1.00187  -0.60268  -0.59066  -0.54422  -0.54241
 Alpha  occ. eigenvalues --   -0.53704  -0.53487  -0.52429  -0.52215  -0.42128
 Alpha  occ. eigenvalues --   -0.41179  -0.40333  -0.39723  -0.39457  -0.39147
 Alpha  occ. eigenvalues --   -0.38652  -0.38132  -0.37546  -0.36575  -0.35352
 Alpha  occ. eigenvalues --   -0.35197  -0.33632  -0.33478  -0.33185  -0.30889
 Alpha virt. eigenvalues --   -0.04117  -0.01683   0.00270   0.01007   0.01371
 Alpha virt. eigenvalues --    0.02147   0.03565   0.04894   0.08750   0.09706
 Alpha virt. eigenvalues --    0.10152   0.10838   0.11327   0.11940   0.12581
 Alpha virt. eigenvalues --    0.13617   0.14117   0.14735   0.15327   0.15528
 Alpha virt. eigenvalues --    0.16169   0.16289   0.17020   0.17500   0.17865
 Alpha virt. eigenvalues --    0.17984   0.18330   0.18605   0.19068   0.19550
 Alpha virt. eigenvalues --    0.19933   0.20814   0.21874   0.22974   0.23204
 Alpha virt. eigenvalues --    0.23875   0.24932   0.25268   0.25766   0.25830
 Alpha virt. eigenvalues --    0.26739   0.27394   0.27855   0.28579   0.29705
 Alpha virt. eigenvalues --    0.30095   0.31545   0.32458   0.32934   0.33948
 Alpha virt. eigenvalues --    0.34796   0.36179   0.38177   0.40665   0.41450
 Alpha virt. eigenvalues --    0.42322   0.44891   0.45928   0.46379   0.47247
 Alpha virt. eigenvalues --    0.47993   0.49117   0.60774   0.62170   0.62726
 Alpha virt. eigenvalues --    0.63613   0.63723   0.66688   0.93691   0.94388
 Alpha virt. eigenvalues --    0.94855   0.95256   0.95816   0.96747   0.97960
 Alpha virt. eigenvalues --    0.98389   0.99453   1.00803   1.01394   1.02397
 Alpha virt. eigenvalues --    1.03304   1.06591   1.14687   1.15189   1.16086
 Alpha virt. eigenvalues --    1.17013   1.17443   1.17578   1.18410   1.19583
 Alpha virt. eigenvalues --    1.20817   1.21074   1.22387   1.22510   1.23431
 Alpha virt. eigenvalues --    1.24191   1.24617   1.25050   1.25807   1.27395
 Alpha virt. eigenvalues --    1.29006   1.29273   1.30515   1.31025   1.34090
 Alpha virt. eigenvalues --    1.34583   1.45339   1.47704   1.48068   1.53612
 Alpha virt. eigenvalues --    1.54545   1.55536   1.56117   1.56420   1.57103
 Alpha virt. eigenvalues --    1.58684   1.59544   1.62558   1.63544   1.64274
 Alpha virt. eigenvalues --    1.66167   1.67781   1.68393   1.68547   1.72301
 Alpha virt. eigenvalues --    1.73516   1.74178   1.78203   1.85338   1.85783
 Alpha virt. eigenvalues --    1.87496   1.91293   1.92672   2.00114   2.01711
 Alpha virt. eigenvalues --    2.08238   2.09726   2.15477   2.34541   2.35251
 Alpha virt. eigenvalues --    2.36594   2.37034   2.37490   2.38072   2.38111
 Alpha virt. eigenvalues --    2.40362   2.47201   2.48873   2.58734   2.59128
 Alpha virt. eigenvalues --    2.59652   2.60152   2.60479   2.61076   2.61577
 Alpha virt. eigenvalues --    2.62133   2.63241   2.63792   2.68671   2.69526
 Alpha virt. eigenvalues --    2.70517   2.71444   2.72758   2.73180   2.77142
 Alpha virt. eigenvalues --    2.78262   2.78450   2.79355   2.81469   2.82094
 Alpha virt. eigenvalues --    2.98649   3.00310   3.37617   3.39382   3.40519
 Alpha virt. eigenvalues --    3.42428   3.43757   3.44597   3.44888   3.48879
 Alpha virt. eigenvalues --    4.10540   4.13473   4.15548   4.17344   4.18852
 Alpha virt. eigenvalues --    4.19698   4.20994   4.30998
          Condensed to atoms (all electrons):
               1          2          3          4          5          6
     1  Si  11.657255   0.015781   0.079379   0.060253   0.072705   0.033202
     2  O    0.015781   8.553098   0.028690   0.007419   0.040932  -0.005812
     3  O    0.079379   0.028690   8.485512   0.020390  -0.017534  -0.007094
     4  O    0.060253   0.007419   0.020390   8.496349   0.059120   0.006464
     5  O    0.072705   0.040932  -0.017534   0.059120   8.476394   0.248634
     6  H    0.033202  -0.005812  -0.007094   0.006464   0.248634   0.348727
     7  H    0.035040  -0.006126   0.004116   0.241825  -0.002595   0.000082
     8  H    0.035052   0.004751   0.241657  -0.002604  -0.007103   0.000090
     9  Si  -0.003125  -0.002074   0.000410  -0.000214   0.000600   0.000075
    10  O    0.000345  -0.000357  -0.000002  -0.000004   0.000009   0.000002
    11  O   -0.000421   0.000629  -0.000079   0.000093  -0.001654   0.000005
    12  O    0.000570  -0.000069  -0.000002  -0.000001   0.000011  -0.000014
    13  O   -0.005484   0.003465  -0.000207   0.000057   0.002324   0.000902
    14  H    0.001555   0.004295  -0.000017   0.000040  -0.000794   0.000068
    15  H   -0.000064   0.000011   0.000000   0.000000  -0.000002   0.000000
    16  H   -0.000039   0.000005   0.000000   0.000000   0.000000  -0.000000
    17  H    0.001224   0.002311   0.000018  -0.000051  -0.000187   0.000004
    18  H    0.039962   0.233354  -0.004287  -0.008032   0.007869   0.000087
               7          8          9         10         11         12
     1  Si   0.035040   0.035052  -0.003125   0.000345  -0.000421   0.000570
     2  O   -0.006126   0.004751  -0.002074  -0.000357   0.000629  -0.000069
     3  O    0.004116   0.241657   0.000410  -0.000002  -0.000079  -0.000002
     4  O    0.241825  -0.002604  -0.000214  -0.000004   0.000093  -0.000001
     5  O   -0.002595  -0.007103   0.000600   0.000009  -0.001654   0.000011
     6  H    0.000082   0.000090   0.000075   0.000002   0.000005  -0.000014
     7  H    0.353259   0.000104  -0.000027   0.000000  -0.000007   0.000000
     8  H    0.000104   0.358903  -0.000006   0.000000   0.000000  -0.000000
     9  Si  -0.000027  -0.000006  11.692155   0.023629   0.040631   0.060037
    10  O    0.000000   0.000000   0.023629   8.516462   0.043272   0.030864
    11  O   -0.000007   0.000000   0.040631   0.043272   8.493926   0.028051
    12  O    0.000000  -0.000000   0.060037   0.030864   0.028051   8.469925
    13  O    0.000003   0.000002   0.058842   0.024158   0.028418   0.034209
    14  H   -0.000000  -0.000000   0.050717  -0.007412  -0.017339   0.007479
    15  H   -0.000000   0.000000   0.031397   0.007142  -0.006790   0.252655
    16  H   -0.000000   0.000000   0.028203   0.243986   0.001867  -0.000272
    17  H    0.000001  -0.000000   0.049145  -0.009000   0.232201   0.007765
    18  H    0.000088   0.000136   0.000463  -0.000011  -0.000032  -0.000000
              13         14         15         16         17         18
     1  Si  -0.005484   0.001555  -0.000064  -0.000039   0.001224   0.039962
     2  O    0.003465   0.004295   0.000011   0.000005   0.002311   0.233354
     3  O   -0.000207  -0.000017   0.000000   0.000000   0.000018  -0.004287
     4  O    0.000057   0.000040   0.000000   0.000000  -0.000051  -0.008032
     5  O    0.002324  -0.000794  -0.000002   0.000000  -0.000187   0.007869
     6  H    0.000902   0.000068   0.000000  -0.000000   0.000004   0.000087
     7  H    0.000003  -0.000000  -0.000000  -0.000000   0.000001   0.000088
     8  H    0.000002  -0.000000   0.000000   0.000000  -0.000000   0.000136
     9  Si   0.058842   0.050717   0.031397   0.028203   0.049145   0.000463
    10  O    0.024158  -0.007412   0.007142   0.243986  -0.009000  -0.000011
    11  O    0.028418  -0.017339  -0.006790   0.001867   0.232201  -0.000032
    12  O    0.034209   0.007479   0.252655  -0.000272   0.007765  -0.000000
    13  O    8.477921   0.228095  -0.007434  -0.002484  -0.014351   0.000255
    14  H    0.228095   0.365353   0.000017   0.000018   0.000427  -0.000115
    15  H   -0.007434   0.000017   0.357676   0.000068   0.000036   0.000000
    16  H   -0.002484   0.000018   0.000068   0.352998  -0.000024   0.000000
    17  H   -0.014351   0.000427   0.000036  -0.000024   0.365868  -0.000011
    18  H    0.000255  -0.000115   0.000000   0.000000  -0.000011   0.360428
 Mulliken charges:
               1
     1  Si   1.976811
     2  O   -0.880302
     3  O   -0.830951
     4  O   -0.881102
     5  O   -0.878729
     6  H    0.374578
     7  H    0.374237
     8  H    0.369018
     9  Si   1.969142
    10  O   -0.873083
    11  O   -0.842768
    12  O   -0.891206
    13  O   -0.828690
    14  H    0.367614
    15  H    0.365289
    16  H    0.375674
    17  H    0.364623
    18  H    0.369846
 Sum of Mulliken charges =  -0.00000
 Mulliken charges with hydrogens summed into heavy atoms:
               1
     1  Si   1.976811
     2  O   -0.510456
     3  O   -0.461933
     4  O   -0.506865
     5  O   -0.504152
     9  Si   1.969142
    10  O   -0.497409
    11  O   -0.478145
    12  O   -0.525917
    13  O   -0.461076
 Electronic spatial extent (au):  <R**2>=           3688.6114
 Charge=             -0.0000 electrons
 Dipole moment (field-independent basis, Debye):
    X=             -1.8758    Y=              0.0753    Z=              0.2481  Tot=              1.8936
 Quadrupole moment (field-independent basis, Debye-Ang):
   XX=            -67.4560   YY=            -66.8084   ZZ=            -75.7871
   XY=              0.5385   XZ=             -2.4950   YZ=              0.7913
 Traceless Quadrupole moment (field-independent basis, Debye-Ang):
   XX=              2.5612   YY=              3.2088   ZZ=             -5.7700
   XY=              0.5385   XZ=             -2.4950   YZ=              0.7913
 Octapole moment (field-independent basis, Debye-Ang**2):
  XXX=            -26.6248  YYY=             -4.2565  ZZZ=              5.8784  XYY=              5.7257
  XXY=              0.0205  XXZ=            -13.6157  XZZ=            -10.4377  YZZ=             -6.3089
  YYZ=              3.1517  XYZ=              2.4916
 Hexadecapole moment (field-independent basis, Debye-Ang**3):
 XXXX=          -3299.6122 YYYY=           -322.6087 ZZZZ=           -357.2121 XXXY=            148.4365
 XXXZ=             61.5095 YYYX=            -84.4710 YYYZ=              5.8610 ZZZX=            -13.1730
 ZZZY=             -2.5972 XXYY=           -634.7205 XXZZ=           -743.3098 YYZZ=           -110.3885
 XXYZ=            -18.1258 YYXZ=            -46.5822 ZZXY=             34.4273
 N-N= 7.745799961521D+02 E-N=-4.359143132976D+03  KE= 1.178398355784D+03
 Calling FoFJK, ICntrl=      2127 FMM=F ISym2X=0 I1Cent= 0 IOpClX= 0 NMat=1 NMatS=1 NMatT=0.
 ***** Axes restored to original set *****
 -------------------------------------------------------------------
 Center     Atomic                   Forces (Hartrees/Bohr)
 Number     Number              X              Y              Z
 -------------------------------------------------------------------
      1       14          -0.000012103   -0.001811856   -0.002187889
      2        8           0.012220950    0.005718671   -0.000629991
      3        8          -0.004190472    0.012658130    0.004790128
      4        8          -0.012969624   -0.008062564    0.004255998
      5        8           0.006557268   -0.009604538   -0.007449717
      6        1          -0.005330575   -0.002147831    0.002874497
      7        1           0.001280560    0.004551861    0.002905865
      8        1           0.004529068    0.000848991   -0.002203611
      9       14          -0.001243089    0.000584737    0.000569896
     10        8           0.013803355   -0.006075478   -0.003692009
     11        8          -0.004747704    0.001872233    0.012348766
     12        8          -0.005333977   -0.003397938   -0.002019182
     13        8          -0.005023339    0.015070453   -0.001545883
     14        1          -0.002147516   -0.002307804   -0.006357902
     15        1           0.004108153   -0.001588053   -0.001431075
     16        1           0.000080835    0.004410258    0.004228251
     17        1          -0.002790454   -0.005805676   -0.000630062
     18        1           0.001208664   -0.004913596   -0.003826081
 -------------------------------------------------------------------
 Cartesian Forces:  Max     0.015070453 RMS     0.005842735

 GradGradGradGradGradGradGradGradGradGradGradGradGradGradGradGradGradGrad
 Berny optimization.
 FormGI is forming the generalized inverse of G from B-inverse, IUseBI=4.
 Internal  Forces:  Max     0.014777664 RMS     0.005613511
 Search for a local minimum.
 Step number   1 out of a maximum of   81
 All quantities printed in internal units (Hartrees-Bohrs-Radians)
 Mixed Optimization -- RFO/linear search
 Second derivative matrix not updated -- first step.
 ITU=  0
     Eigenvalues ---    0.00323   0.01270   0.03193   0.03739   0.03799
     Eigenvalues ---    0.03837   0.03844   0.03851   0.03865   0.03875
     Eigenvalues ---    0.03876   0.06936   0.10703   0.10772   0.12173
     Eigenvalues ---    0.12197   0.12246   0.12480   0.15247   0.16000
     Eigenvalues ---    0.16000   0.16000   0.16000   0.16000   0.16000
     Eigenvalues ---    0.16000   0.20131   0.20260   0.20696   0.20836
     Eigenvalues ---    0.21539   0.41307   0.43802   0.44527   0.44613
     Eigenvalues ---    0.44696   0.44868   0.44990   0.45007   0.51759
     Eigenvalues ---    0.53098   0.53138   0.53337   0.53406   0.53477
     Eigenvalues ---    0.53571   0.538171000.000001000.000001000.00000
     Eigenvalues --- 1000.000001000.000001000.000001000.000001000.00000
     Eigenvalues --- 1000.000001000.000001000.000001000.000001000.00000
     Eigenvalues --- 1000.000001000.000001000.000001000.000001000.00000
     Eigenvalues --- 1000.000001000.000001000.000001000.000001000.00000
     Eigenvalues --- 1000.00000
 RFO step:  Lambda=-8.02707574D-03 EMin= 3.22964376D-03
 Linear search not attempted -- first point.
 Iteration  1 RMS(Cart)=  0.06625838 RMS(Int)=  0.00154434
 Iteration  2 RMS(Cart)=  0.00219807 RMS(Int)=  0.00018425
 Iteration  3 RMS(Cart)=  0.00000264 RMS(Int)=  0.00018424
 Iteration  4 RMS(Cart)=  0.00000000 RMS(Int)=  0.00018424
 Iteration  1 RMS(Cart)=  0.00000526 RMS(Int)=  0.00000057
 Iteration  2 RMS(Cart)=  0.00000037 RMS(Int)=  0.00000059
 Variable       Old X    -DE/DX   Delta X   Delta X   Delta X     New X
                                 (Linear)    (Quad)   (Total)
    R1        3.10932   0.01024   0.00000   0.02583   0.02584   3.13516
    R2        3.08968   0.01187   0.00000   0.02591   0.02591   3.11559
    R3        3.09129   0.01237   0.00000   0.02708   0.02708   3.11837
    R4        3.08988   0.01042   0.00000   0.02276   0.02276   3.11264
    R5       10.58248  -0.00139   0.00000   0.00000  -0.00000  10.58248
    R6        5.54806  -0.00293   0.00000  -0.07562  -0.07560   5.47246
    R7        1.83562  -0.00528   0.00000  -0.00980  -0.00980   1.82583
    R8        1.83124  -0.00438   0.00000  -0.00806  -0.00806   1.82318
    R9        1.83276  -0.00452   0.00000  -0.00834  -0.00834   1.82442
   R10        1.83526  -0.00529   0.00000  -0.00982  -0.00982   1.82544
   R11        3.09427   0.01261   0.00000   0.02777   0.02777   3.12204
   R12        3.09529   0.01443   0.00000   0.03183   0.03183   3.12712
   R13        3.09331   0.00601   0.00000   0.01321   0.01321   3.10651
   R14        3.10072   0.01478   0.00000   0.03522   0.03524   3.13596
   R15        1.83211  -0.00425   0.00000  -0.00783  -0.00783   1.82427
   R16        1.83340  -0.00458   0.00000  -0.00846  -0.00846   1.82494
   R17        1.82899  -0.00277   0.00000  -0.00507  -0.00507   1.82392
   R18        1.83812  -0.00762   0.00000  -0.01219  -0.01218   1.82594
    A1        1.90027  -0.00665   0.00000  -0.03214  -0.03176   1.86850
    A2        1.91135   0.01117   0.00000   0.05078   0.05079   1.96214
    A3        1.90681  -0.00612   0.00000  -0.03112  -0.03068   1.87613
    A4        1.90999  -0.00383   0.00000  -0.01647  -0.01607   1.89392
    A5        1.92919   0.01057   0.00000   0.05328   0.05308   1.98227
    A6        1.90614  -0.00503   0.00000  -0.02387  -0.02349   1.88265
    A7        2.14722  -0.00444   0.00000  -0.01512  -0.01509   2.13213
    A8        1.95946   0.00533   0.00000   0.02602   0.02600   1.98545
    A9        2.06787  -0.00109   0.00000  -0.01238  -0.01236   2.05551
   A10        1.99270   0.00480   0.00000   0.02855   0.02855   2.02124
   A11        1.98626   0.00577   0.00000   0.03435   0.03435   2.02061
   A12        2.00160   0.00662   0.00000   0.03939   0.03939   2.04099
   A13        1.91672   0.00146   0.00000   0.01116   0.01075   1.92747
   A14        1.90914  -0.00259   0.00000  -0.02007  -0.02005   1.88909
   A15        1.90878   0.00197   0.00000   0.01486   0.01452   1.92329
   A16        1.91902  -0.00196   0.00000  -0.01474  -0.01468   1.90434
   A17        1.88955   0.00286   0.00000   0.02147   0.02121   1.91076
   A18        1.92053  -0.00166   0.00000  -0.01204  -0.01193   1.90860
   A19        1.97400   0.00803   0.00000   0.04778   0.04778   2.02178
   A20        1.98311   0.00812   0.00000   0.04834   0.04834   2.03145
   A21        1.98543   0.00679   0.00000   0.04040   0.04040   2.02583
   A22        1.96394   0.00430   0.00000   0.03926   0.03929   2.00323
   A23        2.42171  -0.00199   0.00000   0.00315   0.00319   2.42489
    D1       -1.76742  -0.00214   0.00000  -0.00883  -0.00919  -1.77661
    D2        0.88091  -0.00259   0.00000  -0.01429  -0.01470   0.86621
    D3        2.42801  -0.00013   0.00000   0.00035   0.00036   2.42838
    D4       -1.20684  -0.00057   0.00000  -0.00512  -0.00515  -1.21199
    D5        0.34100   0.00298   0.00000   0.01771   0.01813   0.35912
    D6        2.98933   0.00254   0.00000   0.01225   0.01261   3.00194
    D7       -2.69128  -0.00426   0.00000  -0.02107  -0.02146  -2.71275
    D8       -0.60268   0.00305   0.00000   0.01156   0.01169  -0.59099
    D9        1.49729   0.00100   0.00000   0.00490   0.00515   1.50244
   D10       -1.74557   0.00041   0.00000   0.00914   0.00922  -1.73635
   D11        2.45585   0.00410   0.00000   0.02768   0.02771   2.48356
   D12        0.34186  -0.00338   0.00000  -0.01269  -0.01279   0.32906
   D13       -0.69349   0.00443   0.00000   0.02438   0.02485  -0.66864
   D14        1.39720  -0.00112   0.00000  -0.00204  -0.00223   1.39497
   D15       -2.78372  -0.00247   0.00000  -0.00440  -0.00469  -2.78840
   D16       -0.83196   0.00097   0.00000  -0.02321  -0.02316  -0.85512
   D17        2.83152  -0.00015   0.00000  -0.02736  -0.02743   2.80409
   D18        2.27493  -0.00277   0.00000  -0.01917  -0.01928   2.25565
   D19        0.16739   0.00036   0.00000   0.00466   0.00465   0.17204
   D20       -1.93707   0.00278   0.00000   0.02264   0.02277  -1.91430
   D21        1.11425   0.00345   0.00000   0.03505   0.03520   1.14945
   D22       -3.06737  -0.00007   0.00000   0.00797   0.00800  -3.05937
   D23       -0.96874  -0.00150   0.00000  -0.00230  -0.00248  -0.97122
   D24        3.01248  -0.00026   0.00000  -0.00172  -0.00169   3.01079
   D25        0.90635   0.00080   0.00000   0.00639   0.00632   0.91266
   D26       -1.17342  -0.00048   0.00000  -0.00345  -0.00341  -1.17682
   D27       -1.00292  -0.00179   0.00000  -0.00320  -0.00339  -1.00631
   D28        1.08508   0.00281   0.00000   0.03160   0.03180   1.11688
   D29       -3.10042   0.00119   0.00000   0.01966   0.01965  -3.08077
   D30       -1.52483   0.00291   0.00000   0.01373   0.01370  -1.51113
         Item               Value     Threshold  Converged?
 Maximum Force            0.014848     0.000450     NO 
 RMS     Force            0.005651     0.000300     NO 
 Maximum Displacement     0.238138     0.001800     NO 
 RMS     Displacement     0.067077     0.001200     NO 
 Predicted change in Energy=-4.197607D-03
 GradGradGradGradGradGradGradGradGradGradGradGradGradGradGradGradGradGrad

                          Input orientation:                          
 ---------------------------------------------------------------------
 Center     Atomic      Atomic             Coordinates (Angstroms)
 Number     Number       Type             X           Y           Z
 ---------------------------------------------------------------------
      1         14           0       -7.380277    0.586433    0.087260
      2          8           0       -5.742196    0.432835    0.300726
      3          8           0       -7.661666    2.137368   -0.396092
      4          8           0       -8.224916    0.309475    1.477560
      5          8           0       -7.843483   -0.542666   -1.018921
      6          1           0       -7.242748   -0.703356   -1.758120
      7          1           0       -8.614881   -0.569487    1.563788
      8          1           0       -8.543261    2.482061   -0.209575
      9         14           0       -3.313139   -2.964006   -1.400299
     10          8           0       -1.766849   -2.584389   -0.959442
     11          8           0       -4.210153   -3.369492   -0.070143
     12          8           0       -3.255568   -4.249772   -2.422985
     13          8           0       -4.020645   -1.677432   -2.173625
     14          1           0       -4.046790   -0.860116   -1.658896
     15          1           0       -4.105509   -4.638413   -2.664068
     16          1           0       -1.067190   -3.035191   -1.448504
     17          1           0       -4.371620   -2.664607    0.569914
     18          1           0       -5.352771    1.132655    0.841201
 ---------------------------------------------------------------------
                    Distance matrix (angstroms):
                    1          2          3          4          5
     1  Si   0.000000
     2  O    1.659057   0.000000
     3  O    1.648699   2.659954   0.000000
     4  O    1.650169   2.750282   2.677502   0.000000
     5  O    1.647136   2.666172   2.757454   2.665343   0.000000
     6  H    2.255636   2.789521   3.178101   3.529887   0.965981
     7  H    2.245114   3.294281   3.475171   0.965444   2.695581
     8  H    2.243668   3.507948   0.964786   2.769098   3.208380
     9  Si   5.600006   4.509139   6.778063   6.566834   5.150957
    10  O    6.531483   5.147334   7.573719   7.484654   6.410745
    11  O    5.071864   4.116113   6.507280   5.661139   4.700235
    12  O    6.833991   5.960598   8.019822   7.790725   6.063249
    13  O    4.639376   3.679589   5.565011   5.912262   4.151520
    14  H    4.031588   2.895901   4.862809   5.353694   3.863317
    15  H    6.752254   6.098057   7.981302   7.655337   5.783952
    16  H    7.438400   6.078050   8.446896   8.425062   7.232936
    17  H    4.455810   3.397806   5.900554   4.951452   4.368165
    18  H    2.231046   0.966185   2.805591   3.054799   3.531345
                    6          7          8          9         10
     6  H    0.000000
     7  H    3.596629   0.000000
     8  H    3.773090   3.530140   0.000000
     9  Si   4.547571   6.529012   7.644060   0.000000
    10  O    5.844796   7.571133   8.494173   1.652113   0.000000
    11  O    4.376548   5.469130   7.282578   1.654802   2.716059
    12  O    5.377426   7.626342   8.841745   1.643896   2.670533
    13  O    3.391668   6.025180   6.450808   1.659479   2.715954
    14  H    3.201338   5.598001   5.786962   2.243094   2.942869
    15  H    5.113481   7.400362   8.741815   2.242454   3.548816
    16  H    6.608390   8.492422   9.373721   2.247593   0.965364
    17  H    4.184450   4.835554   6.670711   2.256493   3.021621
    18  H    3.701272   3.749771   3.619980   5.095788   5.469695
                   11         12         13         14         15
    11  O    0.000000
    12  O    2.687376   0.000000
    13  O    2.706218   2.695266   0.000000
    14  H    2.974524   3.563654   0.966248   0.000000
    15  H    2.889560   0.965174   3.002523   3.910159   0.000000
    16  H    3.448167   2.685855   3.330496   3.695027   3.644076
    17  H    0.965715   3.565916   2.936784   2.886052   3.798073
    18  H    4.733439   6.635035   4.331319   3.453579   6.866425
                   16         17         18
    16  H    0.000000
    17  H    3.889807   0.000000
    18  H    6.401554   3.931342   0.000000
 Stoichiometry    H8O8Si2
 Framework group  C1[X(H8O8Si2)]
 Deg. of freedom    48
 Full point group                 C1      NOp   1
 Largest Abelian subgroup         C1      NOp   1
 Largest concise Abelian subgroup C1      NOp   1
                         Standard orientation:                         
 ---------------------------------------------------------------------
 Center     Atomic      Atomic             Coordinates (Angstroms)
 Number     Number       Type             X           Y           Z
 ---------------------------------------------------------------------
      1         14           0       -2.795131   -0.001946   -0.011919
      2          8           0       -1.566487    0.987166    0.502435
      3          8           0       -3.851677    0.939303   -0.858069
      4          8           0       -3.606380   -0.702451    1.242762
      5          8           0       -2.118836   -1.204995   -0.911005
      6          1           0       -1.382421   -0.960292   -1.486273
      7          1           0       -3.355872   -1.611691    1.449185
      8          1           0       -4.759887    0.616669   -0.901357
      9         14           0        2.804844   -0.001678    0.006466
     10          8           0        3.568048    1.333820    0.609328
     11          8           0        2.053155   -0.835638    1.222132
     12          8           0        3.935843   -0.969655   -0.690854
     13          8           0        1.684442    0.444456   -1.133506
     14          1           0        1.009474    1.060038   -0.818686
     15          1           0        3.629991   -1.837456   -0.982298
     16          1           0        4.492754    1.441239    0.353777
     17          1           0        1.317504   -0.387699    1.658908
     18          1           0       -1.872385    1.793898    0.937317
 ---------------------------------------------------------------------
 Rotational constants (GHZ):           1.9818850           0.2875370           0.2858476
 Standard basis: 6-31+G(d,p) (6D, 7F)
 There are   238 symmetry adapted cartesian basis functions of A   symmetry.
 There are   238 symmetry adapted basis functions of A   symmetry.
   238 basis functions,   424 primitive gaussians,   238 cartesian basis functions
    50 alpha electrons       50 beta electrons
       nuclear repulsion energy       770.0162725457 Hartrees.
 NAtoms=   18 NActive=   18 NUniq=   18 SFac= 1.00D+00 NAtFMM=   60 NAOKFM=F Big=F
 Integral buffers will be    131072 words long.
 Raffenetti 2 integral format.
 Two-electron integral symmetry is turned on.
 Nuclear repulsion after empirical dispersion term =      770.0054778904 Hartrees.
 One-electron integrals computed using PRISM.
 NBasis=   238 RedAO= T EigKep=  3.03D-04  NBF=   238
 NBsUse=   238 1.00D-06 EigRej= -1.00D+00 NBFU=   238
 Initial guess from the checkpoint file:  "/localscratch/sarashs.36560090.0/Gau-23798.chk"
 B after Tr=    -0.000000    0.000000    0.000000
         Rot=    0.989697   -0.143177    0.000054   -0.000458 Ang= -16.46 deg.
 ExpMin= 3.31D-02 ExpMax= 1.61D+04 ExpMxC= 2.43D+03 IAcc=3 IRadAn=         5 AccDes= 0.00D+00
 Harris functional with IExCor=  402 and IRadAn=       5 diagonalized for initial guess.
 HarFok:  IExCor=  402 AccDes= 0.00D+00 IRadAn=         5 IDoV= 1 UseB2=F ITyADJ=14
 ICtDFT=  3500011 ScaDFX=  1.000000  1.000000  1.000000  1.000000
 FoFCou: FMM=F IPFlag=           0 FMFlag=      100000 FMFlg1=           0
         NFxFlg=           0 DoJE=T BraDBF=F KetDBF=T FulRan=T
         wScrn=  0.000000 ICntrl=       500 IOpCl=  0 I1Cent=   200000004 NGrid=           0
         NMat0=    1 NMatS0=      1 NMatT0=    0 NMatD0=    1 NMtDS0=    0 NMtDT0=    0
 Petite list used in FoFCou.
 Requested convergence on RMS density matrix=1.00D-08 within 128 cycles.
 Requested convergence on MAX density matrix=1.00D-06.
 Requested convergence on             energy=1.00D-06.
 No special actions if energy rises.
 SCF Done:  E(RB3LYP) =  -1186.04796165     A.U. after   10 cycles
            NFock= 10  Conv=0.23D-08     -V/T= 2.0067
 Calling FoFJK, ICntrl=      2127 FMM=F ISym2X=0 I1Cent= 0 IOpClX= 0 NMat=1 NMatS=1 NMatT=0.
 ***** Axes restored to original set *****
 -------------------------------------------------------------------
 Center     Atomic                   Forces (Hartrees/Bohr)
 Number     Number              X              Y              Z
 -------------------------------------------------------------------
      1       14           0.000611265   -0.002500930   -0.002006426
      2        8           0.000906237    0.001051035   -0.001248439
      3        8           0.000391419    0.001077515    0.003619773
      4        8          -0.003371367   -0.000744948   -0.002540972
      5        8           0.002730460   -0.000862788    0.001105603
      6        1          -0.000928083   -0.001190018    0.000443947
      7        1           0.000748502    0.000723334    0.000917540
      8        1           0.000589777    0.000543279   -0.000575235
      9       14          -0.001040794    0.002453813    0.001466935
     10        8           0.000275098   -0.002695071   -0.001950811
     11        8           0.001827128    0.001618453    0.000449989
     12        8          -0.002631863    0.000556183    0.000618728
     13        8          -0.000082129    0.000220188    0.001930649
     14        1          -0.001578712    0.001471413   -0.001151230
     15        1           0.001722689   -0.000687025   -0.000723097
     16        1          -0.000235638    0.001332961    0.001190745
     17        1          -0.001577411   -0.001635479   -0.000267405
     18        1           0.001643421   -0.000731916   -0.001280295
 -------------------------------------------------------------------
 Cartesian Forces:  Max     0.003619773 RMS     0.001509217

 GradGradGradGradGradGradGradGradGradGradGradGradGradGradGradGradGradGrad
 Berny optimization.
 Using GEDIIS/GDIIS optimizer.
 FormGI is forming the generalized inverse of G from B-inverse, IUseBI=4.
 Internal  Forces:  Max     0.005251625 RMS     0.001623454
 Search for a local minimum.
 Step number   2 out of a maximum of   81
 All quantities printed in internal units (Hartrees-Bohrs-Radians)
 Mixed Optimization -- RFO/linear search
 Update second derivatives using D2CorX and points    1    2
 DE= -5.11D-03 DEPred=-4.20D-03 R= 1.22D+00
 TightC=F SS=  1.41D+00  RLast= 2.06D-01 DXNew= 5.0454D-01 6.1849D-01
 Trust test= 1.22D+00 RLast= 2.06D-01 DXMaxT set to 5.05D-01
 ITU=  1  0
 Use linear search instead of GDIIS.
     Eigenvalues ---    0.00330   0.01241   0.03215   0.03737   0.03754
     Eigenvalues ---    0.03822   0.03844   0.03851   0.03859   0.03873
     Eigenvalues ---    0.03876   0.06823   0.10626   0.10796   0.11300
     Eigenvalues ---    0.12063   0.12403   0.12474   0.13044   0.15313
     Eigenvalues ---    0.16000   0.16000   0.16000   0.16000   0.16000
     Eigenvalues ---    0.16162   0.18085   0.20588   0.20700   0.20831
     Eigenvalues ---    0.21381   0.41624   0.43821   0.44561   0.44680
     Eigenvalues ---    0.44765   0.44932   0.44992   0.48913   0.52286
     Eigenvalues ---    0.53118   0.53221   0.53285   0.53384   0.53470
     Eigenvalues ---    0.53706   0.538821000.000001000.000001000.00000
     Eigenvalues --- 1000.000001000.000001000.000001000.000001000.00000
     Eigenvalues --- 1000.000001000.000001000.000001000.000001000.00000
     Eigenvalues --- 1000.000001000.000001000.000001000.000001000.00000
     Eigenvalues --- 1000.000001000.000001000.000001000.000001000.00000
     Eigenvalues --- 1000.00000
 RFO step:  Lambda=-1.18395697D-03 EMin= 3.30278290D-03
 Quartic linear search produced a step of  0.42769.
 Iteration  1 RMS(Cart)=  0.10041860 RMS(Int)=  0.00297944
 Iteration  2 RMS(Cart)=  0.00521913 RMS(Int)=  0.00022352
 Iteration  3 RMS(Cart)=  0.00001256 RMS(Int)=  0.00022343
 Iteration  4 RMS(Cart)=  0.00000000 RMS(Int)=  0.00022343
 Iteration  1 RMS(Cart)=  0.00007687 RMS(Int)=  0.00000875
 Iteration  2 RMS(Cart)=  0.00000581 RMS(Int)=  0.00000905
 Iteration  3 RMS(Cart)=  0.00000044 RMS(Int)=  0.00000910
 Variable       Old X    -DE/DX   Delta X   Delta X   Delta X     New X
                                 (Linear)    (Quad)   (Total)
    R1        3.13516   0.00071   0.01105  -0.00479   0.00648   3.14164
    R2        3.11559   0.00046   0.01108  -0.00656   0.00452   3.12011
    R3        3.11837  -0.00002   0.01158  -0.00845   0.00313   3.12149
    R4        3.11264  -0.00014   0.00973  -0.00749   0.00224   3.11488
    R5       10.58248  -0.00252  -0.00000   0.00000  -0.00000  10.58248
    R6        5.47246  -0.00195  -0.03233  -0.15120  -0.18328   5.28918
    R7        1.82583  -0.00058  -0.00419   0.00147  -0.00272   1.82311
    R8        1.82318  -0.00046  -0.00345   0.00129  -0.00216   1.82102
    R9        1.82442  -0.00088  -0.00357   0.00025  -0.00332   1.82111
   R10        1.82544  -0.00072  -0.00420   0.00112  -0.00308   1.82236
   R11        3.12204  -0.00048   0.01188  -0.01012   0.00175   3.12380
   R12        3.12712   0.00002   0.01361  -0.00981   0.00381   3.13093
   R13        3.10651   0.00014   0.00565  -0.00366   0.00199   3.10850
   R14        3.13596   0.00063   0.01507  -0.00811   0.00717   3.14313
   R15        1.82427  -0.00140  -0.00335  -0.00128  -0.00463   1.81964
   R16        1.82494  -0.00111  -0.00362  -0.00033  -0.00395   1.82099
   R17        1.82392  -0.00106  -0.00217  -0.00123  -0.00339   1.82052
   R18        1.82594  -0.00072  -0.00521   0.00251  -0.00250   1.82345
    A1        1.86850  -0.00274  -0.01358  -0.00968  -0.02281   1.84569
    A2        1.96214   0.00525   0.02172   0.01932   0.04103   2.00318
    A3        1.87613  -0.00291  -0.01312  -0.01185  -0.02448   1.85165
    A4        1.89392  -0.00213  -0.00687  -0.00991  -0.01636   1.87756
    A5        1.98227   0.00502   0.02270   0.02193   0.04443   2.02670
    A6        1.88265  -0.00216  -0.01005  -0.00849  -0.01810   1.86456
    A7        2.13213  -0.00274  -0.00645  -0.01815  -0.02432   2.10781
    A8        1.98545   0.00295   0.01112   0.01347   0.02424   2.00970
    A9        2.05551  -0.00057  -0.00529  -0.00596  -0.01142   2.04409
   A10        2.02124   0.00157   0.01221   0.00516   0.01737   2.03861
   A11        2.02061   0.00132   0.01469   0.00111   0.01580   2.03641
   A12        2.04099   0.00226   0.01685   0.00789   0.02474   2.06573
   A13        1.92747   0.00027   0.00460   0.00015   0.00448   1.93194
   A14        1.88909  -0.00052  -0.00858  -0.00014  -0.00869   1.88040
   A15        1.92329   0.00052   0.00621   0.00151   0.00750   1.93079
   A16        1.90434  -0.00051  -0.00628  -0.00133  -0.00757   1.89677
   A17        1.91076   0.00064   0.00907   0.00068   0.00958   1.92033
   A18        1.90860  -0.00044  -0.00510  -0.00094  -0.00597   1.90263
   A19        2.02178   0.00205   0.02044   0.00347   0.02391   2.04569
   A20        2.03145   0.00312   0.02067   0.01277   0.03344   2.06489
   A21        2.02583   0.00307   0.01728   0.01475   0.03203   2.05786
   A22        2.00323   0.00278   0.01681   0.01730   0.03449   2.03772
   A23        2.42489   0.00013   0.00136   0.00344   0.00532   2.43021
    D1       -1.77661  -0.00106  -0.00393   0.00167  -0.00255  -1.77916
    D2        0.86621  -0.00183  -0.00629  -0.02161  -0.02836   0.83785
    D3        2.42838   0.00026   0.00016   0.00885   0.00907   2.43745
    D4       -1.21199  -0.00051  -0.00220  -0.01444  -0.01674  -1.22873
    D5        0.35912   0.00173   0.00775   0.01561   0.02385   0.38297
    D6        3.00194   0.00095   0.00539  -0.00767  -0.00196   2.99998
    D7       -2.71275  -0.00207  -0.00918  -0.00900  -0.01860  -2.73135
    D8       -0.59099   0.00142   0.00500   0.00288   0.00807  -0.58292
    D9        1.50244   0.00041   0.00220  -0.00076   0.00168   1.50411
   D10       -1.73635   0.00053   0.00394   0.01382   0.01781  -1.71854
   D11        2.48356   0.00213   0.01185   0.02061   0.03253   2.51609
   D12        0.32906  -0.00136  -0.00547   0.00515  -0.00045   0.32861
   D13       -0.66864   0.00227   0.01063   0.01696   0.02809  -0.64054
   D14        1.39497  -0.00009  -0.00095   0.01006   0.00890   1.40388
   D15       -2.78840  -0.00112  -0.00200   0.00548   0.00317  -2.78524
   D16       -0.85512  -0.00001  -0.00990  -0.09606  -0.10585  -0.96097
   D17        2.80409  -0.00011  -0.01173  -0.07689  -0.08900   2.71509
   D18        2.25565  -0.00060  -0.00825   0.00172  -0.00660   2.24905
   D19        0.17204   0.00018   0.00199   0.00333   0.00530   0.17734
   D20       -1.91430   0.00073   0.00974   0.00366   0.01349  -1.90082
   D21        1.14945   0.00124   0.01506   0.01753   0.03267   1.18213
   D22       -3.05937   0.00046   0.00342   0.01663   0.02007  -3.03930
   D23       -0.97122  -0.00000  -0.00106   0.01510   0.01392  -0.95729
   D24        3.01079  -0.00010  -0.00072  -0.00006  -0.00076   3.01003
   D25        0.91266   0.00018   0.00270   0.00061   0.00327   0.91593
   D26       -1.17682  -0.00003  -0.00146   0.00114  -0.00030  -1.17712
   D27       -1.00631  -0.00003  -0.00145   0.01413   0.01255  -0.99376
   D28        1.11688   0.00106   0.01360   0.01573   0.02947   1.14634
   D29       -3.08077   0.00056   0.00840   0.01396   0.02236  -3.05841
   D30       -1.51113   0.00027   0.00586  -0.03580  -0.03038  -1.54151
         Item               Value     Threshold  Converged?
 Maximum Force            0.005252     0.000450     NO 
 RMS     Force            0.001605     0.000300     NO 
 Maximum Displacement     0.252600     0.001800     NO 
 RMS     Displacement     0.102439     0.001200     NO 
 Predicted change in Energy=-9.888165D-04
 GradGradGradGradGradGradGradGradGradGradGradGradGradGradGradGradGradGrad

                          Input orientation:                          
 ---------------------------------------------------------------------
 Center     Atomic      Atomic             Coordinates (Angstroms)
 Number     Number       Type             X           Y           Z
 ---------------------------------------------------------------------
      1         14           0       -7.387285    0.593277    0.076592
      2          8           0       -5.755431    0.389108    0.319967
      3          8           0       -7.579835    2.171047   -0.370252
      4          8           0       -8.323960    0.335315    1.412488
      5          8           0       -7.827479   -0.536209   -1.040306
      6          1           0       -7.210238   -0.741097   -1.752352
      7          1           0       -8.744893   -0.528498    1.485538
      8          1           0       -8.446990    2.562959   -0.218409
      9         14           0       -3.312067   -2.959448   -1.383138
     10          8           0       -1.753594   -2.522070   -1.047868
     11          8           0       -4.095955   -3.436362   -0.003604
     12          8           0       -3.262580   -4.229896   -2.426867
     13          8           0       -4.132513   -1.701950   -2.098714
     14          1           0       -4.166663   -0.871137   -1.609154
     15          1           0       -4.091245   -4.674940   -2.635067
     16          1           0       -1.059438   -2.921900   -1.582175
     17          1           0       -4.279504   -2.772588    0.670408
     18          1           0       -5.333989    1.066289    0.862693
 ---------------------------------------------------------------------
                    Distance matrix (angstroms):
                    1          2          3          4          5
     1  Si   0.000000
     2  O    1.662486   0.000000
     3  O    1.651092   2.642000   0.000000
     4  O    1.651824   2.791744   2.664920   0.000000
     5  O    1.648324   2.645740   2.799917   2.649952   0.000000
     6  H    2.270889   2.772784   3.244593   3.523528   0.964352
     7  H    2.255351   3.337280   3.476904   0.963687   2.687303
     8  H    2.256025   3.501424   0.963644   2.763577   3.265601
     9  Si   5.600006   4.481453   6.749946   6.617406   5.136007
    10  O    6.535156   5.134260   7.511964   7.575468   6.390288
    11  O    5.203582   4.182437   6.611724   5.840111   4.838380
    12  O    6.822279   5.924070   7.990021   7.823002   6.033588
    13  O    4.538013   3.585583   5.465503   5.834999   4.016460
    14  H    3.919012   2.798913   4.737036   5.279107   3.719858
    15  H    6.780197   6.094779   8.010442   7.707220   5.799293
    16  H    7.426279   6.052543   8.361965   8.505924   7.196633
    17  H    4.619520   3.506778   6.034459   5.154355   4.529467
    18  H    2.248937   0.964748   2.790066   3.126744   3.522343
                    6          7          8          9         10
     6  H    0.000000
     7  H    3.589471   0.000000
     8  H    3.846989   3.542497   0.000000
     9  Si   4.500348   6.607149   7.630269   0.000000
    10  O    5.783003   7.698749   8.446720   1.653041   0.000000
    11  O    4.474521   5.682063   7.414142   1.656817   2.722696
    12  O    5.311374   7.685247   8.826000   1.644949   2.663710
    13  O    3.242776   5.958011   6.351355   1.663274   2.726927
    14  H    3.049715   5.536670   5.661130   2.267699   2.977167
    15  H    5.097296   7.471868   8.786349   2.262158   3.552276
    16  H    6.528185   8.614259   9.301584   2.261717   0.962913
    17  H    4.311140   5.063603   6.828324   2.277696   3.065200
    18  H    3.691262   3.816484   3.619334   5.033735   5.417175
                   11         12         13         14         15
    11  O    0.000000
    12  O    2.682614   0.000000
    13  O    2.720112   2.693507   0.000000
    14  H    3.027073   3.573133   0.964927   0.000000
    15  H    2.908384   0.963378   3.021266   3.940444   0.000000
    16  H    3.460780   2.697813   3.346473   3.723064   3.656992
    17  H    0.963627   3.570853   2.972525   2.970632   3.818449
    18  H    4.749428   6.569742   4.228075   3.350567   6.836699
                   16         17         18
    16  H    0.000000
    17  H    3.932588   0.000000
    18  H    6.336783   3.985711   0.000000
 Stoichiometry    H8O8Si2
 Framework group  C1[X(H8O8Si2)]
 Deg. of freedom    48
 Full point group                 C1      NOp   1
 Largest Abelian subgroup         C1      NOp   1
 Largest concise Abelian subgroup C1      NOp   1
                         Standard orientation:                         
 ---------------------------------------------------------------------
 Center     Atomic      Atomic             Coordinates (Angstroms)
 Number     Number       Type             X           Y           Z
 ---------------------------------------------------------------------
      1         14           0       -2.799012   -0.001759   -0.014870
      2          8           0       -1.548635    0.911624    0.590232
      3          8           0       -3.820794    1.067509   -0.748856
      4          8           0       -3.670046   -0.823144    1.123176
      5          8           0       -2.106559   -1.132695   -0.993882
      6          1           0       -1.339497   -0.876060   -1.518981
      7          1           0       -3.447505   -1.752018    1.251091
      8          1           0       -4.739472    0.793502   -0.846630
      9         14           0        2.800933    0.001090    0.010914
     10          8           0        3.566878    1.349910    0.582366
     11          8           0        2.168146   -0.885860    1.259089
     12          8           0        3.919089   -0.915937   -0.773079
     13          8           0        1.597329    0.419413   -1.058115
     14          1           0        0.915971    1.019744   -0.731865
     15          1           0        3.654481   -1.793283   -1.070308
     16          1           0        4.466296    1.508110    0.277044
     17          1           0        1.435269   -0.511328    1.760282
     18          1           0       -1.815717    1.694137    1.087302
 ---------------------------------------------------------------------
 Rotational constants (GHZ):           1.9854795           0.2875111           0.2849680
 Standard basis: 6-31+G(d,p) (6D, 7F)
 There are   238 symmetry adapted cartesian basis functions of A   symmetry.
 There are   238 symmetry adapted basis functions of A   symmetry.
   238 basis functions,   424 primitive gaussians,   238 cartesian basis functions
    50 alpha electrons       50 beta electrons
       nuclear repulsion energy       769.5289747258 Hartrees.
 NAtoms=   18 NActive=   18 NUniq=   18 SFac= 1.00D+00 NAtFMM=   60 NAOKFM=F Big=F
 Integral buffers will be    131072 words long.
 Raffenetti 2 integral format.
 Two-electron integral symmetry is turned on.
 Nuclear repulsion after empirical dispersion term =      769.5181876848 Hartrees.
 One-electron integrals computed using PRISM.
 NBasis=   238 RedAO= T EigKep=  3.05D-04  NBF=   238
 NBsUse=   238 1.00D-06 EigRej= -1.00D+00 NBFU=   238
 Initial guess from the checkpoint file:  "/localscratch/sarashs.36560090.0/Gau-23798.chk"
 B after Tr=     0.000000   -0.000000    0.000000
         Rot=    0.999557   -0.029722   -0.001379   -0.000350 Ang=  -3.41 deg.
 ExpMin= 3.31D-02 ExpMax= 1.61D+04 ExpMxC= 2.43D+03 IAcc=3 IRadAn=         5 AccDes= 0.00D+00
 Harris functional with IExCor=  402 and IRadAn=       5 diagonalized for initial guess.
 HarFok:  IExCor=  402 AccDes= 0.00D+00 IRadAn=         5 IDoV= 1 UseB2=F ITyADJ=14
 ICtDFT=  3500011 ScaDFX=  1.000000  1.000000  1.000000  1.000000
 FoFCou: FMM=F IPFlag=           0 FMFlag=      100000 FMFlg1=           0
         NFxFlg=           0 DoJE=T BraDBF=F KetDBF=T FulRan=T
         wScrn=  0.000000 ICntrl=       500 IOpCl=  0 I1Cent=   200000004 NGrid=           0
         NMat0=    1 NMatS0=      1 NMatT0=    0 NMatD0=    1 NMtDS0=    0 NMtDT0=    0
 Petite list used in FoFCou.
 Requested convergence on RMS density matrix=1.00D-08 within 128 cycles.
 Requested convergence on MAX density matrix=1.00D-06.
 Requested convergence on             energy=1.00D-06.
 No special actions if energy rises.
 SCF Done:  E(RB3LYP) =  -1186.04935031     A.U. after   10 cycles
            NFock= 10  Conv=0.30D-08     -V/T= 2.0067
 Calling FoFJK, ICntrl=      2127 FMM=F ISym2X=0 I1Cent= 0 IOpClX= 0 NMat=1 NMatS=1 NMatT=0.
 ***** Axes restored to original set *****
 -------------------------------------------------------------------
 Center     Atomic                   Forces (Hartrees/Bohr)
 Number     Number              X              Y              Z
 -------------------------------------------------------------------
      1       14           0.002085553   -0.002580167   -0.001865797
      2        8          -0.001005180   -0.000918857   -0.000139984
      3        8           0.000801896   -0.001632077    0.001556456
      4        8          -0.000031805    0.001638140   -0.002339274
      5        8          -0.000149230    0.001824115    0.001603411
      6        1           0.000737700   -0.000727201   -0.000031267
      7        1           0.000686290   -0.000882262    0.000222655
      8        1          -0.000448785    0.000054171   -0.000040489
      9       14          -0.002281095    0.002318521    0.000806101
     10        8          -0.002655989   -0.000505357    0.000231501
     11        8           0.002589531    0.000781471   -0.002080082
     12        8          -0.000455496    0.001210526    0.000857823
     13        8           0.000948722   -0.002458894    0.001822529
     14        1          -0.001092115    0.001364859    0.000986901
     15        1           0.000198259   -0.000092232   -0.000149990
     16        1           0.000208004   -0.000111244   -0.000438849
     17        1          -0.001014738    0.000112782   -0.000246026
     18        1           0.000878476    0.000603706   -0.000755621
 -------------------------------------------------------------------
 Cartesian Forces:  Max     0.002655989 RMS     0.001282486

 GradGradGradGradGradGradGradGradGradGradGradGradGradGradGradGradGradGrad
 Berny optimization.
 Using GEDIIS/GDIIS optimizer.
 FormGI is forming the generalized inverse of G from B-inverse, IUseBI=4.
 Internal  Forces:  Max     0.003015192 RMS     0.001021323
 Search for a local minimum.
 Step number   3 out of a maximum of   81
 All quantities printed in internal units (Hartrees-Bohrs-Radians)
 Mixed Optimization -- En-DIIS/RFO-DIIS
 Update second derivatives using D2CorX and points    1    2    3
 DE= -1.39D-03 DEPred=-9.89D-04 R= 1.40D+00
 TightC=F SS=  1.41D+00  RLast= 2.72D-01 DXNew= 8.4853D-01 8.1533D-01
 Trust test= 1.40D+00 RLast= 2.72D-01 DXMaxT set to 8.15D-01
 ITU=  1  1  0
 Use linear search instead of GDIIS.
     Eigenvalues ---    0.00336   0.00864   0.03056   0.03540   0.03740
     Eigenvalues ---    0.03816   0.03844   0.03851   0.03856   0.03872
     Eigenvalues ---    0.03876   0.06671   0.10507   0.10756   0.11342
     Eigenvalues ---    0.11945   0.12371   0.12558   0.12652   0.15238
     Eigenvalues ---    0.16000   0.16000   0.16000   0.16000   0.16016
     Eigenvalues ---    0.16637   0.18023   0.20700   0.20826   0.20873
     Eigenvalues ---    0.21569   0.41542   0.43807   0.44575   0.44684
     Eigenvalues ---    0.44768   0.44931   0.44995   0.50499   0.52632
     Eigenvalues ---    0.53119   0.53266   0.53369   0.53464   0.53552
     Eigenvalues ---    0.53792   0.602851000.000001000.000001000.00000
     Eigenvalues --- 1000.000001000.000001000.000001000.000001000.00000
     Eigenvalues --- 1000.000001000.000001000.000001000.000001000.00000
     Eigenvalues --- 1000.000001000.000001000.000001000.000001000.00000
     Eigenvalues --- 1000.000001000.000001000.000001000.000001000.00000
     Eigenvalues --- 1000.00000
 RFO step:  Lambda=-6.68132901D-04 EMin= 3.35641141D-03
 Quartic linear search produced a step of  0.57083.
 Iteration  1 RMS(Cart)=  0.11799329 RMS(Int)=  0.00761258
 Iteration  2 RMS(Cart)=  0.01389634 RMS(Int)=  0.00061160
 Iteration  3 RMS(Cart)=  0.00008961 RMS(Int)=  0.00061004
 Iteration  4 RMS(Cart)=  0.00000025 RMS(Int)=  0.00061004
 Iteration  1 RMS(Cart)=  0.00040375 RMS(Int)=  0.00004976
 Iteration  2 RMS(Cart)=  0.00003419 RMS(Int)=  0.00005165
 Iteration  3 RMS(Cart)=  0.00000290 RMS(Int)=  0.00005198
 Iteration  4 RMS(Cart)=  0.00000025 RMS(Int)=  0.00005201
 Variable       Old X    -DE/DX   Delta X   Delta X   Delta X     New X
                                 (Linear)    (Quad)   (Total)
    R1        3.14164  -0.00149   0.00370  -0.00178   0.00312   3.14476
    R2        3.12011  -0.00196   0.00258  -0.00336  -0.00078   3.11934
    R3        3.12149  -0.00220   0.00179  -0.00362  -0.00183   3.11966
    R4        3.11488  -0.00197   0.00128  -0.00332  -0.00204   3.11284
    R5       10.58248  -0.00302  -0.00000   0.00000   0.00000  10.58248
    R6        5.28918  -0.00178  -0.10462  -0.14847  -0.25171   5.03747
    R7        1.82311   0.00038  -0.00155   0.00019  -0.00136   1.82175
    R8        1.82102   0.00042  -0.00123   0.00041  -0.00082   1.82021
    R9        1.82111   0.00051  -0.00189   0.00091  -0.00098   1.82012
   R10        1.82236   0.00065  -0.00176   0.00101  -0.00075   1.82162
   R11        3.12380  -0.00251   0.00100  -0.00421  -0.00321   3.12059
   R12        3.13093  -0.00294   0.00217  -0.00549  -0.00332   3.12761
   R13        3.10850  -0.00132   0.00114  -0.00270  -0.00156   3.10694
   R14        3.14313  -0.00274   0.00409  -0.00452   0.00082   3.14395
   R15        1.81964   0.00044  -0.00264   0.00114  -0.00150   1.81814
   R16        1.82099   0.00010  -0.00225  -0.00006  -0.00231   1.81868
   R17        1.82052  -0.00010  -0.00194  -0.00019  -0.00212   1.81840
   R18        1.82345   0.00055  -0.00142   0.00083   0.00051   1.82396
    A1        1.84569  -0.00030  -0.01302  -0.00125  -0.01395   1.83174
    A2        2.00318   0.00115   0.02342   0.00557   0.02898   2.03216
    A3        1.85165  -0.00077  -0.01397  -0.00387  -0.01751   1.83414
    A4        1.87756  -0.00074  -0.00934  -0.00412  -0.01318   1.86438
    A5        2.02670   0.00110   0.02536   0.00607   0.03132   2.05803
    A6        1.86456  -0.00031  -0.01033  -0.00175  -0.01177   1.85279
    A7        2.10781  -0.00212  -0.01388  -0.01642  -0.02867   2.07915
    A8        2.00970   0.00142   0.01384   0.00429   0.01656   2.02625
    A9        2.04409   0.00018  -0.00652  -0.00292  -0.01055   2.03353
   A10        2.03861  -0.00015   0.00991  -0.00109   0.00882   2.04743
   A11        2.03641  -0.00061   0.00902  -0.00389   0.00513   2.04155
   A12        2.06573   0.00003   0.01412   0.00042   0.01455   2.08027
   A13        1.93194  -0.00009   0.00256  -0.00023   0.00224   1.93419
   A14        1.88040   0.00018  -0.00496   0.00049  -0.00447   1.87593
   A15        1.93079  -0.00013   0.00428  -0.00092   0.00329   1.93408
   A16        1.89677   0.00004  -0.00432   0.00024  -0.00407   1.89270
   A17        1.92033   0.00003   0.00547   0.00085   0.00626   1.92660
   A18        1.90263  -0.00002  -0.00341  -0.00043  -0.00381   1.89882
   A19        2.04569  -0.00025   0.01365  -0.00050   0.01315   2.05883
   A20        2.06489   0.00041   0.01909   0.00309   0.02218   2.08707
   A21        2.05786   0.00045   0.01828   0.00252   0.02080   2.07867
   A22        2.03772   0.00131   0.01969   0.01286   0.03438   2.07210
   A23        2.43021   0.00136   0.00303   0.00995   0.01549   2.44570
    D1       -1.77916  -0.00002  -0.00146   0.01099   0.00943  -1.76973
    D2        0.83785  -0.00091  -0.01619  -0.01937  -0.03591   0.80194
    D3        2.43745   0.00045   0.00518   0.01376   0.01903   2.45648
    D4       -1.22873  -0.00044  -0.00956  -0.01661  -0.02631  -1.25504
    D5        0.38297   0.00070   0.01361   0.01536   0.02934   0.41231
    D6        2.99998  -0.00019  -0.00112  -0.01501  -0.01600   2.98397
    D7       -2.73135  -0.00052  -0.01062  -0.00454  -0.01542  -2.74676
    D8       -0.58292   0.00026   0.00461  -0.00089   0.00387  -0.57905
    D9        1.50411   0.00002   0.00096  -0.00229  -0.00123   1.50289
   D10       -1.71854   0.00063   0.01017   0.01721   0.02739  -1.69115
   D11        2.51609   0.00082   0.01857   0.01827   0.03693   2.55302
   D12        0.32861   0.00012  -0.00026   0.01445   0.01410   0.34271
   D13       -0.64054   0.00078   0.01604   0.01508   0.03144  -0.60911
   D14        1.40388   0.00050   0.00508   0.01430   0.01926   1.42313
   D15       -2.78524   0.00002   0.00181   0.01158   0.01320  -2.77204
   D16       -0.96097  -0.00016  -0.06042  -0.00463  -0.06528  -1.02624
   D17        2.71509   0.00042  -0.05080   0.02435  -0.02750   2.68759
   D18        2.24905   0.00018  -0.00377   0.00333  -0.00045   2.24859
   D19        0.17734   0.00007   0.00302   0.00287   0.00589   0.18323
   D20       -1.90082   0.00006   0.00770   0.00362   0.01134  -1.88947
   D21        1.18213   0.00041   0.01865   0.01689   0.03557   1.21770
   D22       -3.03930   0.00061   0.01146   0.01751   0.02897  -3.01033
   D23       -0.95729   0.00062   0.00795   0.01763   0.02555  -0.93175
   D24        3.01003   0.00005  -0.00044   0.00090   0.00047   3.01050
   D25        0.91593   0.00002   0.00187   0.00075   0.00261   0.91854
   D26       -1.17712  -0.00002  -0.00017  -0.00016  -0.00033  -1.17745
   D27       -0.99376   0.00065   0.00716   0.01833   0.02546  -0.96830
   D28        1.14634   0.00047   0.01682   0.01800   0.03486   1.18121
   D29       -3.05841   0.00053   0.01276   0.01854   0.03130  -3.02711
   D30       -1.54151  -0.00053  -0.01734  -0.08240  -0.10184  -1.64335
         Item               Value     Threshold  Converged?
 Maximum Force            0.002939     0.000450     NO 
 RMS     Force            0.000958     0.000300     NO 
 Maximum Displacement     0.323230     0.001800     NO 
 RMS     Displacement     0.127770     0.001200     NO 
 Predicted change in Energy=-5.154919D-04
 GradGradGradGradGradGradGradGradGradGradGradGradGradGradGradGradGradGrad

                          Input orientation:                          
 ---------------------------------------------------------------------
 Center     Atomic      Atomic             Coordinates (Angstroms)
 Number     Number       Type             X           Y           Z
 ---------------------------------------------------------------------
      1         14           0       -7.393083    0.601369    0.059163
      2          8           0       -5.778867    0.336174    0.364662
      3          8           0       -7.487983    2.189574   -0.380548
      4          8           0       -8.425275    0.395277    1.330945
      5          8           0       -7.810234   -0.534531   -1.058479
      6          1           0       -7.165978   -0.795952   -1.726169
      7          1           0       -8.873049   -0.454930    1.396812
      8          1           0       -8.340143    2.626538   -0.277292
      9         14           0       -3.311205   -2.959287   -1.362124
     10          8           0       -1.754467   -2.451631   -1.148138
     11          8           0       -3.942578   -3.534371    0.055576
     12          8           0       -3.284539   -4.186893   -2.455474
     13          8           0       -4.257319   -1.728720   -1.960868
     14          1           0       -4.295082   -0.894855   -1.476255
     15          1           0       -4.092686   -4.681416   -2.623633
     16          1           0       -1.084350   -2.784030   -1.753221
     17          1           0       -4.132976   -2.922496    0.773615
     18          1           0       -5.333847    1.002081    0.901206
 ---------------------------------------------------------------------
                    Distance matrix (angstroms):
[...]

                          Input orientation:                          
 ---------------------------------------------------------------------
 Center     Atomic      Atomic             Coordinates (Angstroms)
 Number     Number       Type             X           Y           Z
 ---------------------------------------------------------------------
      1         14           0       -7.386534    0.716877   -0.078452
      2          8           0       -5.736834    0.897059   -0.207716
      3          8           0       -8.044205    1.599630   -1.304519
      4          8           0       -8.071711    1.295186    1.307259
      5          8           0       -7.615794   -0.911467   -0.116694
      6          1           0       -6.899508   -1.447973   -0.490065
      7          1           0       -8.059096    0.702850    2.067949
      8          1           0       -8.945139    1.915815   -1.171853
      9         14           0       -3.390270   -3.039421   -1.209894
     10          8           0       -2.115700   -2.501240   -0.314564
     11          8           0       -3.913008   -4.571094   -0.889217
     12          8           0       -2.891099   -3.040240   -2.781403
     13          8           0       -4.666994   -2.039588   -0.852830
     14          1           0       -4.493907   -1.103074   -0.670895
     15          1           0       -3.375755   -3.609406   -3.390061
     16          1           0       -1.235756   -2.731566   -0.633793
     17          1           0       -4.502433   -4.680105   -0.134359
     18          1           0       -5.419918    1.769657   -0.469114
 ---------------------------------------------------------------------
                    Distance matrix (angstroms):
                    1          2          3          4          5
     1  Si   0.000000
     2  O    1.664538   0.000000
     3  O    1.647732   2.649630   0.000000
     4  O    1.650487   2.811638   2.629606   0.000000
     5  O    1.644849   2.609510   2.810707   2.665487   0.000000
     6  H    2.256811   2.632624   3.355823   3.482723   0.969696
     7  H    2.249350   3.257188   3.489696   0.964195   2.752308
     8  H    2.249939   3.501521   0.963979   2.700751   3.297582
     9  Si   5.600006   4.691119   6.571823   6.858627   4.855752
    10  O    6.180107   4.967138   7.276284   7.246877   5.728662
    11  O    6.378507   5.804436   7.437546   7.518814   5.263106
    12  O    6.452194   5.497672   7.089716   7.896317   5.827100
    13  O    3.948880   3.191335   4.985326   5.232475   3.241909
    14  H    3.468501   2.399986   4.506739   4.739771   3.176481
    15  H    6.765340   6.000854   7.299176   8.256625   5.997645
    16  H    7.073347   5.797255   8.097167   8.167785   6.654701
    17  H    6.119524   5.712607   7.304005   7.107891   4.888349
    18  H    2.264629   0.964465   2.759292   3.226861   3.483461
                    6          7          8          9         10
     6  H    0.000000
     7  H    3.537530   0.000000
     8  H    3.995562   3.571090   0.000000
     9  Si   3.919900   6.822520   7.443950   0.000000
    10  O    4.901530   7.160064   8.178420   1.647963   0.000000
    11  O    4.339630   7.331395   8.214756   1.649882   2.800864
    12  O    4.883942   8.014682   7.987774   1.648883   2.641413
    13  O    2.337889   5.249597   5.835196   1.660478   2.648010
    14  H    2.436919   4.844915   5.401677   2.293027   2.781674
    15  H    5.049615   8.385650   8.152703   2.253492   3.503492
    16  H    5.809162   8.102629   9.017885   2.251355   0.963981
    17  H    4.039699   6.817346   8.019987   2.255111   3.236730
    18  H    3.541577   3.813139   3.597553   5.272139   5.402064
                   11         12         13         14         15
    11  O    0.000000
    12  O    2.639730   0.000000
    13  O    2.641655   2.806154   0.000000
    14  H    3.523105   3.282659   0.969597   0.000000
    15  H    2.732710   0.964005   3.251027   3.863396   0.000000
    16  H    3.258341   2.729043   3.507166   3.642652   3.598224
    17  H    0.963907   3.506051   2.741462   3.617056   3.607686
    18  H    6.530879   5.905651   3.901855   3.025028   6.453282
                   16         17         18
    16  H    0.000000
    17  H    3.836329   0.000000
    18  H    6.147791   6.523286   0.000000
 Stoichiometry    H8O8Si2
 Framework group  C1[X(H8O8Si2)]
 Deg. of freedom    48
 Full point group                 C1      NOp   1
 Largest Abelian subgroup         C1      NOp   1
 Largest concise Abelian subgroup C1      NOp   1
                         Standard orientation:                         
 ---------------------------------------------------------------------
 Center     Atomic      Atomic             Coordinates (Angstroms)
 Number     Number       Type             X           Y           Z
 ---------------------------------------------------------------------
      1         14           0       -2.802021   -0.002787   -0.020420
      2          8           0       -1.722464    1.093556    0.614618
      3          8           0       -3.608712    0.786837   -1.220739
      4          8           0       -3.964881   -0.555287    1.012347
      5          8           0       -1.863856   -1.280761   -0.458775
      6          1           0       -0.916633   -1.110804   -0.577917
      7          1           0       -3.715751   -1.295877    1.577264
      8          1           0       -4.489515    0.458988   -1.435114
      9         14           0        2.797897   -0.005595    0.010631
     10          8           0        3.157927    0.705044    1.453251
     11          8           0        3.387993   -1.528909   -0.220476
     12          8           0        3.479140    0.936935   -1.158283
     13          8           0        1.144195   -0.146377   -0.040711
     14          1           0        0.600831    0.543537    0.370253
     15          1           0        3.642559    0.519223   -2.011581
     16          1           0        4.004791    1.162034    1.510180
     17          1           0        2.885447   -2.253440    0.168905
     18          1           0       -2.028742    2.005370    0.685190
 ---------------------------------------------------------------------
 Rotational constants (GHZ):           2.0070335           0.2880918           0.2853998

 **********************************************************************

            Population analysis using the SCF Density.

 **********************************************************************

 Orbital symmetries:
       Occupied  (A) (A) (A) (A) (A) (A) (A) (A) (A) (A) (A) (A)
                 (A) (A) (A) (A) (A) (A) (A) (A) (A) (A) (A) (A)
                 (A) (A) (A) (A) (A) (A) (A) (A) (A) (A) (A) (A)
                 (A) (A) (A) (A) (A) (A) (A) (A) (A) (A) (A) (A)
                 (A) (A)
       Virtual   (A) (A) (A) (A) (A) (A) (A) (A) (A) (A) (A) (A)
                 (A) (A) (A) (A) (A) (A) (A) (A) (A) (A) (A) (A)
                 (A) (A) (A) (A) (A) (A) (A) (A) (A) (A) (A) (A)
                 (A) (A) (A) (A) (A) (A) (A) (A) (A) (A) (A) (A)
                 (A) (A) (A) (A) (A) (A) (A) (A) (A) (A) (A) (A)
                 (A) (A) (A) (A) (A) (A) (A) (A) (A) (A) (A) (A)
                 (A) (A) (A) (A) (A) (A) (A) (A) (A) (A) (A) (A)
                 (A) (A) (A) (A) (A) (A) (A) (A) (A) (A) (A) (A)
                 (A) (A) (A) (A) (A) (A) (A) (A) (A) (A) (A) (A)
                 (A) (A) (A) (A) (A) (A) (A) (A) (A) (A) (A) (A)
                 (A) (A) (A) (A) (A) (A) (A) (A) (A) (A) (A) (A)
                 (A) (A) (A) (A) (A) (A) (A) (A) (A) (A) (A) (A)
                 (A) (A) (A) (A) (A) (A) (A) (A) (A) (A) (A) (A)
                 (A) (A) (A) (A) (A) (A) (A) (A) (A) (A) (A) (A)
                 (A) (A) (A) (A) (A) (A) (A) (A) (A) (A) (A) (A)
                 (A) (A) (A) (A) (A) (A) (A) (A)
 The electronic state is 1-A.
 Alpha  occ. eigenvalues --  -66.22474 -66.22320 -19.17634 -19.17192 -19.17150
 Alpha  occ. eigenvalues --  -19.17139 -19.17137 -19.17076 -19.17069 -19.16215
 Alpha  occ. eigenvalues --   -5.35785  -5.35657  -3.71765  -3.71765  -3.71757
 Alpha  occ. eigenvalues --   -3.71666  -3.71629  -3.71603  -1.04819  -1.04696
 Alpha  occ. eigenvalues --   -1.01456  -1.01218  -1.01072  -1.00950  -1.00530
 Alpha  occ. eigenvalues --   -1.00149  -0.60095  -0.59787  -0.54107  -0.53766
 Alpha  occ. eigenvalues --   -0.53624  -0.53274  -0.52982  -0.52683  -0.41003
 Alpha  occ. eigenvalues --   -0.40874  -0.39110  -0.39009  -0.38585  -0.38441
 Alpha  occ. eigenvalues --   -0.38338  -0.37691  -0.36203  -0.36117  -0.35731
 Alpha  occ. eigenvalues --   -0.35503  -0.33364  -0.32910  -0.32877  -0.32356
 Alpha virt. eigenvalues --   -0.03235  -0.01688   0.00973   0.01585   0.01861
 Alpha virt. eigenvalues --    0.02417   0.03386   0.06167   0.09596   0.10094
 Alpha virt. eigenvalues --    0.10738   0.11020   0.12165   0.12275   0.12777
 Alpha virt. eigenvalues --    0.13962   0.14763   0.15224   0.15434   0.15609
 Alpha virt. eigenvalues --    0.15942   0.16312   0.16570   0.16862   0.17232
 Alpha virt. eigenvalues --    0.18251   0.18687   0.18868   0.19389   0.20138
 Alpha virt. eigenvalues --    0.20687   0.21278   0.21874   0.22257   0.22965
 Alpha virt. eigenvalues --    0.23877   0.24683   0.25347   0.26347   0.26489
 Alpha virt. eigenvalues --    0.27157   0.27242   0.28201   0.29412   0.30347
 Alpha virt. eigenvalues --    0.31275   0.32531   0.33244   0.33649   0.35181
 Alpha virt. eigenvalues --    0.35802   0.38285   0.38898   0.40155   0.42570
 Alpha virt. eigenvalues --    0.43229   0.43999   0.45755   0.46614   0.47659
 Alpha virt. eigenvalues --    0.49059   0.54701   0.60480   0.61224   0.61713
 Alpha virt. eigenvalues --    0.62183   0.68034   0.69308   0.92842   0.93502
 Alpha virt. eigenvalues --    0.93787   0.94403   0.95799   0.96014   0.98691
 Alpha virt. eigenvalues --    0.99688   1.00063   1.00253   1.00575   1.02123
 Alpha virt. eigenvalues --    1.04924   1.10177   1.15012   1.15609   1.16434
 Alpha virt. eigenvalues --    1.16466   1.17721   1.18091   1.18566   1.19008
 Alpha virt. eigenvalues --    1.19734   1.20901   1.21834   1.22588   1.23830
 Alpha virt. eigenvalues --    1.24679   1.25175   1.25738   1.26439   1.29155
 Alpha virt. eigenvalues --    1.29877   1.30244   1.31481   1.33695   1.35650
 Alpha virt. eigenvalues --    1.39581   1.47504   1.47796   1.48945   1.53116
 Alpha virt. eigenvalues --    1.54461   1.55661   1.56131   1.58246   1.59610
 Alpha virt. eigenvalues --    1.60736   1.60902   1.61584   1.62306   1.63972
 Alpha virt. eigenvalues --    1.64958   1.65496   1.70559   1.71205   1.73564
 Alpha virt. eigenvalues --    1.73878   1.74509   1.77984   1.87079   1.88812
 Alpha virt. eigenvalues --    1.89317   1.90712   1.92366   1.92701   2.03287
 Alpha virt. eigenvalues --    2.03753   2.11027   2.11368   2.34524   2.35504
 Alpha virt. eigenvalues --    2.38124   2.38253   2.38440   2.39117   2.39535
 Alpha virt. eigenvalues --    2.40125   2.45203   2.46751   2.57165   2.59482
 Alpha virt. eigenvalues --    2.59621   2.60485   2.60933   2.61013   2.61740
 Alpha virt. eigenvalues --    2.62328   2.63810   2.65229   2.65523   2.65966
 Alpha virt. eigenvalues --    2.66418   2.66907   2.69460   2.70674   2.79209
 Alpha virt. eigenvalues --    2.79758   2.80404   2.82368   2.83280   2.84442
 Alpha virt. eigenvalues --    3.00119   3.01153   3.39912   3.41302   3.41953
 Alpha virt. eigenvalues --    3.42430   3.44874   3.46610   3.51548   3.58271
 Alpha virt. eigenvalues --    4.11047   4.12142   4.16358   4.16980   4.18193
 Alpha virt. eigenvalues --    4.21164   4.27051   4.28327
          Condensed to atoms (all electrons):
               1          2          3          4          5          6
     1  Si  11.587075   0.008017   0.093050   0.072335   0.127758   0.014971
     2  O    0.008017   8.583853   0.045734   0.019996   0.042199  -0.001420
     3  O    0.093050   0.045734   8.455560   0.023223  -0.001415  -0.003761
     4  O    0.072335   0.019996   0.023223   8.477804   0.038763   0.004400
     5  O    0.127758   0.042199  -0.001415   0.038763   8.447593   0.238771
     6  H    0.014971  -0.001420  -0.003761   0.004400   0.238771   0.314409
     7  H    0.025336  -0.006467   0.006339   0.244300  -0.002281   0.000053
     8  H    0.022958   0.004914   0.243346  -0.001276  -0.004952   0.000014
     9  Si   0.000676  -0.006557   0.000033   0.000448  -0.002897   0.001544
    10  O   -0.000183  -0.000931   0.000010  -0.000001  -0.000204   0.000066
    11  O   -0.000396   0.000692  -0.000007   0.000003   0.000453  -0.000177
    12  O   -0.000907  -0.000060   0.000021   0.000001  -0.000102   0.000123
    13  O   -0.008789   0.004819  -0.000162  -0.001665   0.008478   0.010758
    14  H    0.002113   0.005665  -0.000335   0.000234   0.000443   0.000098
    15  H    0.000004  -0.000010  -0.000000   0.000000  -0.000008   0.000000
    16  H    0.000013   0.000019  -0.000000  -0.000000   0.000002  -0.000000
    17  H   -0.000045   0.000003  -0.000000   0.000000   0.000005  -0.000002
    18  H    0.028835   0.233882  -0.000262  -0.006077   0.006208   0.000093
               7          8          9         10         11         12
     1  Si   0.025336   0.022958   0.000676  -0.000183  -0.000396  -0.000907
     2  O   -0.006467   0.004914  -0.006557  -0.000931   0.000692  -0.000060
     3  O    0.006339   0.243346   0.000033   0.000010  -0.000007   0.000021
     4  O    0.244300  -0.001276   0.000448  -0.000001   0.000003   0.000001
     5  O   -0.002281  -0.004952  -0.002897  -0.000204   0.000453  -0.000102
     6  H    0.000053   0.000014   0.001544   0.000066  -0.000177   0.000123
     7  H    0.359339   0.000083  -0.000032   0.000000  -0.000000   0.000000
     8  H    0.000083   0.359599  -0.000009  -0.000000  -0.000000  -0.000000
     9  Si  -0.000032  -0.000009  11.751117   0.020581   0.005589   0.052695
    10  O    0.000000  -0.000000   0.020581   8.542215  -0.006489   0.042537
    11  O   -0.000000  -0.000000   0.005589  -0.006489   8.499615   0.045020
    12  O    0.000000  -0.000000   0.052695   0.042537   0.045020   8.494151
    13  O    0.000035   0.000014   0.000816   0.074750   0.097388   0.019689
    14  H   -0.000000  -0.000001  -0.004244   0.000122   0.006453  -0.003867
    15  H   -0.000000  -0.000000   0.032965   0.006284  -0.003252   0.243251
    16  H    0.000000   0.000000   0.026039   0.236696  -0.004929  -0.002360
    17  H   -0.000000   0.000000   0.020955  -0.006469   0.247539   0.006178
    18  H    0.000065   0.000079   0.000205  -0.000018   0.000001  -0.000002
              13         14         15         16         17         18
     1  Si  -0.008789   0.002113   0.000004   0.000013  -0.000045   0.028835
     2  O    0.004819   0.005665  -0.000010   0.000019   0.000003   0.233882
     3  O   -0.000162  -0.000335  -0.000000  -0.000000  -0.000000  -0.000262
     4  O   -0.001665   0.000234   0.000000  -0.000000   0.000000  -0.006077
     5  O    0.008478   0.000443  -0.000008   0.000002   0.000005   0.006208
     6  H    0.010758   0.000098   0.000000  -0.000000  -0.000002   0.000093
     7  H    0.000035  -0.000000  -0.000000   0.000000  -0.000000   0.000065
     8  H    0.000014  -0.000001  -0.000000   0.000000   0.000000   0.000079
     9  Si   0.000816  -0.004244   0.032965   0.026039   0.020955   0.000205
    10  O    0.074750   0.000122   0.006284   0.236696  -0.006469  -0.000018
    11  O    0.097388   0.006453  -0.003252  -0.004929   0.247539   0.000001
    12  O    0.019689  -0.003867   0.243251  -0.002360   0.006178  -0.000002
    13  O    8.493024   0.259069  -0.009438   0.005579  -0.001041   0.000294
    14  H    0.259069   0.322626   0.000064   0.000041   0.000059  -0.000070
    15  H   -0.009438   0.000064   0.358163   0.000078   0.000085  -0.000000
    16  H    0.005579   0.000041   0.000078   0.361100   0.000060   0.000000
    17  H   -0.001041   0.000059   0.000085   0.000060   0.360210   0.000000
    18  H    0.000294  -0.000070  -0.000000   0.000000   0.000000   0.352533
 Mulliken charges:
               1
     1  Si   2.027180
     2  O   -0.934347
     3  O   -0.861373
     4  O   -0.872490
     5  O   -0.898813
     6  H    0.420060
     7  H    0.373230
     8  H    0.375231
     9  Si   2.100075
    10  O   -0.908966
    11  O   -0.887501
    12  O   -0.896366
    13  O   -0.953619
    14  H    0.411530
    15  H    0.371815
    16  H    0.377660
    17  H    0.372461
    18  H    0.384232
 Sum of Mulliken charges =  -0.00000
 Mulliken charges with hydrogens summed into heavy atoms:
               1
     1  Si   2.027180
     2  O   -0.550114
     3  O   -0.486143
     4  O   -0.499260
     5  O   -0.478752
     9  Si   2.100075
    10  O   -0.531306
    11  O   -0.515040
    12  O   -0.524551
    13  O   -0.542089
 Electronic spatial extent (au):  <R**2>=           3706.9153
 Charge=             -0.0000 electrons
 Dipole moment (field-independent basis, Debye):
    X=             -0.0200    Y=              0.0082    Z=              0.4754  Tot=              0.4759
 Quadrupole moment (field-independent basis, Debye-Ang):
   XX=            -66.0688   YY=            -67.7289   ZZ=            -69.8599
   XY=              0.5281   XZ=             -0.6916   YZ=             -0.3948
 Traceless Quadrupole moment (field-independent basis, Debye-Ang):
   XX=              1.8170   YY=              0.1570   ZZ=             -1.9740
   XY=              0.5281   XZ=             -0.6916   YZ=             -0.3948
 Octapole moment (field-independent basis, Debye-Ang**2):
  XXX=             -7.2569  YYY=             -0.3575  ZZZ=            -11.6307  XYY=             -4.4089
  XXY=             10.1867  XXZ=             -9.2982  XZZ=              6.5211  YZZ=             -6.2828
  YYZ=             20.6622  XYZ=              6.8191
 Hexadecapole moment (field-independent basis, Debye-Ang**3):
 XXXX=          -3535.9478 YYYY=           -319.6576 ZZZZ=           -314.7870 XXXY=            120.5996
 XXXZ=            183.2973 YYYX=            -46.5688 YYYZ=              1.6688 ZZZX=            -65.8685
 ZZZY=            -11.6306 XXYY=           -676.9385 XXZZ=           -583.6625 YYZZ=           -114.6484
 XXYZ=              9.5811 YYXZ=             -4.9480 ZZXY=             32.0830
 N-N= 7.738270741652D+02 E-N=-4.357557839517D+03  KE= 1.178129343985D+03
 1\1\GINC-GRA780\FOpt\RB3LYP\6-31+G(d,p)\H8O8Si2\SARASHS\29-Jul-2020\0\
 \#n B3LYP/6-31+G(d,p) EmpiricalDispersion=GD3 Opt=modredundant\\Title\
 \0,1\Si,-7.3865343096,0.7168768163,-0.0784524951\O,-5.7368339482,0.897
 0589174,-0.2077159537\O,-8.0442047239,1.5996297106,-1.3045185214\O,-8.
 0717108825,1.2951862935,1.307259457\O,-7.6157942997,-0.9114672474,-0.1
 166935946\H,-6.8995081072,-1.447973073,-0.4900647368\H,-8.0590959461,0
 .7028495653,2.0679494891\H,-8.9451389373,1.9158152964,-1.1718534135\Si
 ,-3.3902697214,-3.0394209261,-1.2098935915\O,-2.1156997399,-2.50123982
 89,-0.3145638586\O,-3.9130079878,-4.5710935224,-0.88921746\O,-2.891099
 3883,-3.0402401039,-2.7814030716\O,-4.6669942239,-2.0395876263,-0.8528
 299323\H,-4.4939069539,-1.1030738861,-0.6708950224\H,-3.3757545406,-3.
 6094061092,-3.3900613972\H,-1.2357555528,-2.7315661099,-0.6337927177\H
 ,-4.5024330075,-4.6801048974,-0.1343589329\H,-5.4199177293,1.769656731
 ,-0.469114247\\Version=ES64L-G16RevB.01\State=1-A\HF=-1186.0603585\RMS
 D=2.674e-09\RMSF=1.309e-03\Dipole=0.0772701,0.0426379,0.1651245\Quadru
 pole=0.2947521,0.2900121,-0.5847642,-0.7044713,-1.3162017,0.1256342\PG
 =C01 [X(H8O8Si2)]\\@


 ON A TOMBSTONE, "HERE LIES LESTER MOORE,
 FOUR SLUGS FROM A 44, NO LES, NO MORE".
 Job cpu time:       0 days  1 hours 53 minutes 14.8 seconds.
 Elapsed time:       0 days  0 hours  7 minutes 21.4 seconds.
 File lengths (MBytes):  RWF=     40 Int=      0 D2E=      0 Chk=      5 Scr=      1
 Normal termination of Gaussian 16 at Wed Jul 29 17:33:11 2020.
