 Entering Gaussian System, Link 0=g16
 Initial command:
 /opt/software/gaussian/g16.b01/l1.exe "/localscratch/sarashs.36560086.0/Gau-266980.inp" -scrdir="/localscratch/sarashs.36560086.0/"
 Entering Link 1 = /opt/software/gaussian/g16.b01/l1.exe PID=    266981.
  
 Copyright (c) 1988-2017, Gaussian, Inc.  All Rights Reserved.
  
 This is part of the Gaussian(R) 16 program.  It is based on
 the Gaussian(R) 09 system (copyright 2009, Gaussian, Inc.),
 the Gaussian(R) 03 system (copyright 2003, Gaussian, Inc.),
 the Gaussian(R) 98 system (copyright 1998, Gaussian, Inc.),
 the Gaussian(R) 94 system (copyright 1995, Gaussian, Inc.),
 the Gaussian 92(TM) system (copyright 1992, Gaussian, Inc.),
 the Gaussian 90(TM) system (copyright 1990, Gaussian, Inc.),
 the Gaussian 88(TM) system (copyright 1988, Gaussian, Inc.),
 the Gaussian 86(TM) system (copyright 1986, Carnegie Mellon
 University), and the Gaussian 82(TM) system (copyright 1983,
 Carnegie Mellon University). Gaussian is a federally registered
 trademark of Gaussian, Inc.
  
 This software contains proprietary and confidential information,
 including trade secrets, belonging to Gaussian, Inc.
  
 This software is provided under written license and may be
 used, copied, transmitted, or stored only in accord with that
 written license.
  
 The following legend is applicable only to US Government
 contracts under FAR:
  
                    RESTRICTED RIGHTS LEGEND
  
 Use, reproduction and disclosure by the US Government is
 subject to restrictions as set forth in subparagraphs (a)
 and (c) of the Commercial Computer Software - Restricted
 Rights clause in FAR 52.227-19.
  
 Gaussian, Inc.
 340 Quinnipiac St., Bldg. 40, Wallingford CT 06492
  
  
 ---------------------------------------------------------------
 Warning -- This program may not be used in any manner that
 competes with the business of Gaussian, Inc. or will provide
 assistance to any competitor of Gaussian, Inc.  The licensee
 of this program is prohibited from giving any competitor of
 Gaussian, Inc. access to this program.  By using this program,
 the user acknowledges that Gaussian, Inc. is engaged in the
 business of creating and licensing software in the field of
 computational chemistry and represents and warrants to the
 licensee that it is not a competitor of Gaussian, Inc. and that
 it will not use this program in any manner prohibited above.
 ---------------------------------------------------------------
  

 Cite this work as:
 Gaussian 16, Revision B.01,
 M. J. Frisch, G. W. Trucks, H. B. Schlegel, G. E. Scuseria, 
 M. A. Robb, J. R. Cheeseman, G. Scalmani, V. Barone, 
 G. A. Petersson, H. Nakatsuji, X. Li, M. Caricato, A. V. Marenich, 
 J. Bloino, B. G. Janesko, R. Gomperts, B. Mennucci, H. P. Hratchian, 
 J. V. Ortiz, A. F. Izmaylov, J. L. Sonnenberg, D. Williams-Young, 
 F. Ding, F. Lipparini, F. Egidi, J. Goings, B. Peng, A. Petrone, 
 T. Henderson, D. Ranasinghe, V. G. Zakrzewski, J. Gao, N. Rega, 
 G. Zheng, W. Liang, M. Hada, M. Ehara, K. Toyota, R. Fukuda, 
 J. Hasegawa, M. Ishida, T. Nakajima, Y. Honda, O. Kitao, H. Nakai, 
 T. Vreven, K. Throssell, J. A. Montgomery, Jr., J. E. Peralta, 
 F. Ogliaro, M. J. Bearpark, J. J. Heyd, E. N. Brothers, K. N. Kudin, 
 V. N. Staroverov, T. A. Keith, R. Kobayashi, J. Normand, 
 K. Raghavachari, A. P. Rendell, J. C. Burant, S. S. Iyengar, 
 J. Tomasi, M. Cossi, J. M. Millam, M. Klene, C. Adamo, R. Cammi, 
 J. W. Ochterski, R. L. Martin, K. Morokuma, O. Farkas, 
 J. B. Foresman, and D. J. Fox, Gaussian, Inc., Wallingford CT, 2016.
 
 ******************************************
 Gaussian 16:  ES64L-G16RevB.01 20-Dec-2017
                29-Jul-2020 
 ******************************************
 %NProcShared=16
 Will use up to   16 processors via shared memory.
 -------------------------------------------------------------
 #n B3LYP/6-31+G(d,p) EmpiricalDispersion=GD3 Opt=modredundant
 -------------------------------------------------------------
 1/18=120,19=15,26=3,38=1/1,3;
 2/9=110,12=2,17=6,18=5,40=1/2;
 3/5=1,6=6,7=111,11=2,25=1,30=1,71=1,74=-5,124=31/1,2,3;
 4//1;
 5/5=2,38=5/2;
 6/7=2,8=2,9=2,10=2,28=1/1;
 7//1,2,3,16;
 1/18=20,19=15,26=3/3(2);
 2/9=110/2;
 99//99;
 2/9=110/2;
 3/5=1,6=6,7=111,11=2,25=1,30=1,71=1,74=-5,124=31/1,2,3;
 4/5=5,16=3,69=1/1;
 5/5=2,38=5/2;
 7//1,2,3,16;
 1/18=20,19=15,26=3/3(-5);
 2/9=110/2;
 6/7=2,8=2,9=2,10=2,19=2,28=1/1;
 99/9=1/99;
 -----
 Title
 -----
 Symbolic Z-matrix:
 Charge =  0 Multiplicity = 1
 Si                   -6.21323  -0.43645  -0.34189 
 O                    -4.59241  -0.6148   -0.12186 
 O                    -6.51698   1.09856  -0.81588 
 O                    -6.99186  -0.73575   1.06528 
 O                    -6.72348  -1.49841  -1.47565 
 H                    -6.11912  -1.61049  -2.22756 
 H                    -7.37717  -1.62421   1.11816 
 H                    -7.40705   1.41281  -0.5966 
 Si                   -3.31018  -2.97416  -1.406 
 O                    -1.79319  -2.57507  -0.93631 
 O                    -4.23059  -3.30155  -0.09125 
 O                    -3.24876  -4.28448  -2.38516 
 O                    -3.98384  -1.70788  -2.2029 
 H                    -4.00478  -0.89769  -1.66505 
 H                    -4.11864  -4.64444  -2.60985 
 H                    -1.10594  -3.06413  -1.41428 
 H                    -4.35706  -2.53859   0.49456 
 H                    -4.2184    0.08282   0.44117 
 
 Add virtual bond connecting atoms H14        and O2         Dist= 3.17D+00.
 The following ModRedundant input section has been read:
 B       1       9 F                                                           
 

 GradGradGradGradGradGradGradGradGradGradGradGradGradGradGradGradGradGrad
 Berny optimization.
 Initialization pass.
                           ----------------------------
                           !    Initial Parameters    !
                           ! (Angstroms and Degrees)  !
 --------------------------                            --------------------------
 ! Name  Definition              Value          Derivative Info.                !
 --------------------------------------------------------------------------------
 ! R1    R(1,2)                  1.6454         estimate D2E/DX2                !
 ! R2    R(1,3)                  1.635          estimate D2E/DX2                !
 ! R3    R(1,4)                  1.6358         estimate D2E/DX2                !
 ! R4    R(1,5)                  1.6351         estimate D2E/DX2                !
 ! R5    R(1,9)                  4.0            Frozen                          !
 ! R6    R(2,14)                 1.6753         estimate D2E/DX2                !
 ! R7    R(2,18)                 0.9714         estimate D2E/DX2                !
 ! R8    R(3,8)                  0.9691         estimate D2E/DX2                !
 ! R9    R(4,7)                  0.9699         estimate D2E/DX2                !
 ! R10   R(5,6)                  0.9712         estimate D2E/DX2                !
 ! R11   R(9,10)                 1.6374         estimate D2E/DX2                !
 ! R12   R(9,11)                 1.638          estimate D2E/DX2                !
 ! R13   R(9,12)                 1.6369         estimate D2E/DX2                !
 ! R14   R(9,13)                 1.6408         estimate D2E/DX2                !
 ! R15   R(10,16)                0.9695         estimate D2E/DX2                !
 ! R16   R(11,17)                0.9702         estimate D2E/DX2                !
 ! R17   R(12,15)                0.9679         estimate D2E/DX2                !
 ! R18   R(13,14)                0.9727         estimate D2E/DX2                !
 ! A1    A(2,1,3)              108.8772         estimate D2E/DX2                !
 ! A2    A(2,1,4)              109.5124         estimate D2E/DX2                !
 ! A3    A(2,1,5)              109.2523         estimate D2E/DX2                !
 ! A4    A(3,1,4)              109.4344         estimate D2E/DX2                !
 ! A5    A(3,1,5)              110.5346         estimate D2E/DX2                !
 ! A6    A(4,1,5)              109.214          estimate D2E/DX2                !
 ! A7    A(1,2,14)             103.9244         estimate D2E/DX2                !
 ! A8    A(1,2,18)             112.2687         estimate D2E/DX2                !
 ! A9    A(14,2,18)            121.3403         estimate D2E/DX2                !
 ! A10   A(1,3,8)              114.1731         estimate D2E/DX2                !
 ! A11   A(1,4,7)              113.8041         estimate D2E/DX2                !
 ! A12   A(1,5,6)              114.6833         estimate D2E/DX2                !
 ! A13   A(10,9,11)            109.82           estimate D2E/DX2                !
 ! A14   A(10,9,12)            109.3858         estimate D2E/DX2                !
 ! A15   A(10,9,13)            109.3648         estimate D2E/DX2                !
 ! A16   A(11,9,12)            109.9517         estimate D2E/DX2                !
 ! A17   A(11,9,13)            108.2631         estimate D2E/DX2                !
 ! A18   A(12,9,13)            110.0383         estimate D2E/DX2                !
 ! A19   A(9,10,16)            113.1017         estimate D2E/DX2                !
 ! A20   A(9,11,17)            113.6237         estimate D2E/DX2                !
 ! A21   A(9,12,15)            113.7569         estimate D2E/DX2                !
 ! A22   A(9,13,14)            112.5252         estimate D2E/DX2                !
 ! A23   A(2,14,13)            131.1117         estimate D2E/DX2                !
 ! D1    D(3,1,2,14)           -82.4166         estimate D2E/DX2                !
 ! D2    D(3,1,2,18)            50.4723         estimate D2E/DX2                !
 ! D3    D(4,1,2,14)           157.9641         estimate D2E/DX2                !
 ! D4    D(4,1,2,18)           -69.147          estimate D2E/DX2                !
 ! D5    D(5,1,2,14)            38.3869         estimate D2E/DX2                !
 ! D6    D(5,1,2,18)           171.2758         estimate D2E/DX2                !
 ! D7    D(2,1,3,8)           -154.199          estimate D2E/DX2                !
 ! D8    D(4,1,3,8)            -34.5313         estimate D2E/DX2                !
 ! D9    D(5,1,3,8)             85.7881         estimate D2E/DX2                !
 ! D10   D(2,1,4,7)           -100.0138         estimate D2E/DX2                !
 ! D11   D(3,1,4,7)            140.7097         estimate D2E/DX2                !
 ! D12   D(5,1,4,7)             19.587          estimate D2E/DX2                !
 ! D13   D(2,1,5,6)            -39.7339         estimate D2E/DX2                !
 ! D14   D(3,1,5,6)             80.0535         estimate D2E/DX2                !
 ! D15   D(4,1,5,6)           -159.4953         estimate D2E/DX2                !
 ! D16   D(1,2,14,13)          -80.5013         estimate D2E/DX2                !
 ! D17   D(18,2,14,13)         152.0463         estimate D2E/DX2                !
 ! D18   D(11,9,10,16)         130.3438         estimate D2E/DX2                !
 ! D19   D(12,9,10,16)           9.5908         estimate D2E/DX2                !
 ! D20   D(13,9,10,16)        -110.9862         estimate D2E/DX2                !
 ! D21   D(10,9,11,17)          63.842          estimate D2E/DX2                !
 ! D22   D(12,9,11,17)        -175.7474         estimate D2E/DX2                !
 ! D23   D(13,9,11,17)         -55.5049         estimate D2E/DX2                !
 ! D24   D(10,9,12,15)         172.6026         estimate D2E/DX2                !
 ! D25   D(11,9,12,15)          51.9299         estimate D2E/DX2                !
 ! D26   D(13,9,12,15)         -67.2318         estimate D2E/DX2                !
 ! D27   D(10,9,13,14)         -57.463          estimate D2E/DX2                !
 ! D28   D(11,9,13,14)          62.1705         estimate D2E/DX2                !
 ! D29   D(12,9,13,14)        -177.6412         estimate D2E/DX2                !
 ! D30   D(9,13,14,2)          -52.3683         estimate D2E/DX2                !
 --------------------------------------------------------------------------------
 Trust Radius=3.00D-01 FncErr=1.00D-07 GrdErr=1.00D-06 EigMax=2.50D+02 EigMin=1.00D-04
 Number of steps in this run=     81 maximum allowed number of steps=    108.
 GradGradGradGradGradGradGradGradGradGradGradGradGradGradGradGradGradGrad

                          Input orientation:                          
 ---------------------------------------------------------------------
 Center     Atomic      Atomic             Coordinates (Angstroms)
 Number     Number       Type             X           Y           Z
 ---------------------------------------------------------------------
      1         14           0       -6.213230   -0.436450   -0.341890
      2          8           0       -4.592410   -0.614800   -0.121860
      3          8           0       -6.516980    1.098560   -0.815880
      4          8           0       -6.991860   -0.735750    1.065280
      5          8           0       -6.723480   -1.498410   -1.475650
      6          1           0       -6.119120   -1.610490   -2.227560
      7          1           0       -7.377170   -1.624210    1.118160
      8          1           0       -7.407050    1.412810   -0.596600
      9         14           0       -3.310180   -2.974160   -1.406000
     10          8           0       -1.793190   -2.575070   -0.936310
     11          8           0       -4.230590   -3.301550   -0.091250
     12          8           0       -3.248760   -4.284480   -2.385160
     13          8           0       -3.983840   -1.707880   -2.202900
     14          1           0       -4.004780   -0.897690   -1.665050
     15          1           0       -4.118640   -4.644440   -2.609850
     16          1           0       -1.105940   -3.064130   -1.414280
     17          1           0       -4.357060   -2.538590    0.494560
     18          1           0       -4.218400    0.082820    0.441170
 ---------------------------------------------------------------------
                    Distance matrix (angstroms):
                    1          2          3          4          5
     1  Si   0.000000
     2  O    1.645381   0.000000
     3  O    1.634988   2.668564   0.000000
     4  O    1.635840   2.679793   2.670013   0.000000
     5  O    1.635092   2.674878   2.687414   2.666459   0.000000
     6  H    2.223281   2.784998   3.080598   3.517050   0.971175
     7  H    2.212979   3.211144   3.448755   0.969856   2.677870
     8  H    2.215817   3.501254   0.969052   2.747824   3.116921
     9  Si   4.000000   2.976526   5.217169   4.967139   3.719315
    10  O    4.946088   3.513064   5.985336   5.866484   5.075219
    11  O    3.493205   2.711176   5.011351   3.942779   3.373778
    12  O    5.269760   4.516024   6.490071   6.205628   4.545665
    13  O    3.170185   2.428149   4.027000   4.546891   2.842252
    14  H    2.615482   1.675342   3.319225   4.050133   2.790711
    15  H    5.219016   4.759470   6.477068   6.086036   4.238998
    16  H    5.842870   4.452532   6.853132   6.798060   5.831981
    17  H    2.926433   2.033797   4.428472   3.243166   3.250176
    18  H    2.205033   0.971370   2.809871   2.958319   3.528443
                    6          7          8          9         10
     6  H    0.000000
     7  H    3.574454   0.000000
     8  H    3.668670   3.487805   0.000000
     9  Si   3.228730   4.973345   6.056813   0.000000
    10  O    4.616428   6.025431   6.894492   1.637419   0.000000
    11  O    3.315124   3.765250   5.707054   1.637958   2.680078
    12  O    3.926070   6.032749   7.276636   1.636907   2.672065
    13  O    2.137642   4.748803   4.902782   1.640833   2.674924
    14  H    2.301073   4.432505   4.249169   2.204836   2.869808
    15  H    3.654165   5.799816   7.180327   2.211944   3.534225
    16  H    5.282657   6.914835   7.772746   2.206091   0.969509
    17  H    3.372857   3.216525   5.109465   2.213099   2.936350
    18  H    3.688110   3.653778   3.607399   3.685380   3.852723
                   11         12         13         14         15
    11  O    0.000000
    12  O    2.681821   0.000000
    13  O    2.657016   2.685597   0.000000
    14  H    2.882079   3.544076   0.972692   0.000000
    15  H    2.856437   0.967857   2.967687   3.865714   0.000000
    16  H    3.401502   2.650196   3.277750   3.627619   3.605985
    17  H    0.970194   3.545314   2.847045   2.735063   3.758831
    18  H    3.426015   5.291659   3.201989   2.333066   5.627225
                   16         17         18
    16  H    0.000000
    17  H    3.806526   0.000000
    18  H    4.799312   2.625618   0.000000
 Stoichiometry    H8O8Si2
 Framework group  C1[X(H8O8Si2)]
 Deg. of freedom    48
 Full point group                 C1      NOp   1
 Largest Abelian subgroup         C1      NOp   1
 Largest concise Abelian subgroup C1      NOp   1
                         Standard orientation:                         
 ---------------------------------------------------------------------
 Center     Atomic      Atomic             Coordinates (Angstroms)
 Number     Number       Type             X           Y           Z
 ---------------------------------------------------------------------
      1         14           0       -1.988248   -0.005318   -0.011140
      2          8           0       -0.758387    1.062716    0.221294
      3          8           0       -3.052265    0.636259   -1.073888
      4          8           0       -2.743526   -0.287128    1.412275
      5          8           0       -1.380688   -1.410539   -0.585380
      6          1           0       -0.668305   -1.307982   -1.237434
      7          1           0       -2.475181   -1.114839    1.840652
      8          1           0       -3.956274    0.299345   -0.982685
      9         14           0        2.011720   -0.004730    0.005022
     10          8           0        2.733449    1.448303    0.226249
     11          8           0        1.196248   -0.431808    1.359835
     12          8           0        3.149651   -1.129701   -0.339967
     13          8           0        0.936401    0.104239   -1.229541
     14          1           0        0.263395    0.789986   -1.078071
     15          1           0        2.806725   -2.034217   -0.371604
     16          1           0        3.670665    1.449234   -0.021887
     17          1           0        0.463604    0.165871    1.577294
     18          1           0       -1.080302    1.954554    0.432377
 ---------------------------------------------------------------------
 Rotational constants (GHZ):           2.0083268           0.4972448           0.4944678
 Standard basis: 6-31+G(d,p) (6D, 7F)
 There are   238 symmetry adapted cartesian basis functions of A   symmetry.
 There are   238 symmetry adapted basis functions of A   symmetry.
   238 basis functions,   424 primitive gaussians,   238 cartesian basis functions
    50 alpha electrons       50 beta electrons
       nuclear repulsion energy       866.0324847514 Hartrees.
 NAtoms=   18 NActive=   18 NUniq=   18 SFac= 1.00D+00 NAtFMM=   60 NAOKFM=F Big=F
 Integral buffers will be    131072 words long.
 Raffenetti 2 integral format.
 Two-electron integral symmetry is turned on.
 Nuclear repulsion after empirical dispersion term =      866.0161368749 Hartrees.
 One-electron integrals computed using PRISM.
 NBasis=   238 RedAO= T EigKep=  2.42D-04  NBF=   238
 NBsUse=   238 1.00D-06 EigRej= -1.00D+00 NBFU=   238
 ExpMin= 3.31D-02 ExpMax= 1.61D+04 ExpMxC= 2.43D+03 IAcc=3 IRadAn=         5 AccDes= 0.00D+00
 Harris functional with IExCor=  402 and IRadAn=       5 diagonalized for initial guess.
 HarFok:  IExCor=  402 AccDes= 0.00D+00 IRadAn=         5 IDoV= 1 UseB2=F ITyADJ=14
 ICtDFT=  3500011 ScaDFX=  1.000000  1.000000  1.000000  1.000000
 FoFCou: FMM=F IPFlag=           0 FMFlag=      100000 FMFlg1=           0
         NFxFlg=           0 DoJE=T BraDBF=F KetDBF=T FulRan=T
         wScrn=  0.000000 ICntrl=       500 IOpCl=  0 I1Cent=   200000004 NGrid=           0
         NMat0=    1 NMatS0=      1 NMatT0=    0 NMatD0=    1 NMtDS0=    0 NMtDT0=    0
 Petite list used in FoFCou.
 Requested convergence on RMS density matrix=1.00D-08 within 128 cycles.
 Requested convergence on MAX density matrix=1.00D-06.
 Requested convergence on             energy=1.00D-06.
 No special actions if energy rises.
 SCF Done:  E(RB3LYP) =  -1186.04356927     A.U. after   12 cycles
            NFock= 12  Conv=0.20D-08     -V/T= 2.0063

 **********************************************************************

            Population analysis using the SCF Density.

 **********************************************************************

 Orbital symmetries:
       Occupied  (A) (A) (A) (A) (A) (A) (A) (A) (A) (A) (A) (A)
                 (A) (A) (A) (A) (A) (A) (A) (A) (A) (A) (A) (A)
                 (A) (A) (A) (A) (A) (A) (A) (A) (A) (A) (A) (A)
                 (A) (A) (A) (A) (A) (A) (A) (A) (A) (A) (A) (A)
                 (A) (A)
       Virtual   (A) (A) (A) (A) (A) (A) (A) (A) (A) (A) (A) (A)
                 (A) (A) (A) (A) (A) (A) (A) (A) (A) (A) (A) (A)
                 (A) (A) (A) (A) (A) (A) (A) (A) (A) (A) (A) (A)
                 (A) (A) (A) (A) (A) (A) (A) (A) (A) (A) (A) (A)
                 (A) (A) (A) (A) (A) (A) (A) (A) (A) (A) (A) (A)
                 (A) (A) (A) (A) (A) (A) (A) (A) (A) (A) (A) (A)
                 (A) (A) (A) (A) (A) (A) (A) (A) (A) (A) (A) (A)
                 (A) (A) (A) (A) (A) (A) (A) (A) (A) (A) (A) (A)
                 (A) (A) (A) (A) (A) (A) (A) (A) (A) (A) (A) (A)
                 (A) (A) (A) (A) (A) (A) (A) (A) (A) (A) (A) (A)
                 (A) (A) (A) (A) (A) (A) (A) (A) (A) (A) (A) (A)
                 (A) (A) (A) (A) (A) (A) (A) (A) (A) (A) (A) (A)
                 (A) (A) (A) (A) (A) (A) (A) (A) (A) (A) (A) (A)
                 (A) (A) (A) (A) (A) (A) (A) (A) (A) (A) (A) (A)
                 (A) (A) (A) (A) (A) (A) (A) (A) (A) (A) (A) (A)
                 (A) (A) (A) (A) (A) (A) (A) (A)
 The electronic state is 1-A.
 Alpha  occ. eigenvalues --  -66.23374 -66.20397 -19.21173 -19.18592 -19.18306
 Alpha  occ. eigenvalues --  -19.16911 -19.16843 -19.16019 -19.14869 -19.14553
 Alpha  occ. eigenvalues --   -5.36982  -5.33977  -3.73012  -3.72921  -3.72890
 Alpha  occ. eigenvalues --   -3.70007  -3.69919  -3.69893  -1.08270  -1.04533
 Alpha  occ. eigenvalues --   -1.03774  -1.02531  -1.01507  -1.00565  -0.99821
 Alpha  occ. eigenvalues --   -0.99175  -0.61601  -0.58893  -0.56475  -0.54853
 Alpha  occ. eigenvalues --   -0.54155  -0.53066  -0.52255  -0.51747  -0.45605
 Alpha  occ. eigenvalues --   -0.41881  -0.40977  -0.39917  -0.39545  -0.38704
 Alpha  occ. eigenvalues --   -0.38112  -0.38013  -0.37519  -0.36830  -0.35045
 Alpha  occ. eigenvalues --   -0.34747  -0.34410  -0.32843  -0.32571  -0.30112
 Alpha virt. eigenvalues --   -0.03985  -0.00820   0.00029   0.00835   0.02117
 Alpha virt. eigenvalues --    0.03207   0.04902   0.06965   0.08419   0.09735
 Alpha virt. eigenvalues --    0.10317   0.11022   0.12048   0.12459   0.13070
 Alpha virt. eigenvalues --    0.13473   0.13702   0.14615   0.14790   0.15940
 Alpha virt. eigenvalues --    0.16573   0.17052   0.17565   0.17944   0.18530
 Alpha virt. eigenvalues --    0.19066   0.19378   0.20408   0.21012   0.21758
 Alpha virt. eigenvalues --    0.22251   0.22933   0.23040   0.24193   0.24528
 Alpha virt. eigenvalues --    0.25231   0.26014   0.26681   0.28013   0.28263
 Alpha virt. eigenvalues --    0.28736   0.29132   0.29809   0.30516   0.31036
 Alpha virt. eigenvalues --    0.32037   0.33176   0.34330   0.36445   0.37045
 Alpha virt. eigenvalues --    0.37595   0.38985   0.40122   0.40664   0.43165
 Alpha virt. eigenvalues --    0.43901   0.48122   0.49360   0.51227   0.51760
 Alpha virt. eigenvalues --    0.53992   0.55941   0.60573   0.61540   0.63134
 Alpha virt. eigenvalues --    0.64699   0.66172   0.75393   0.91215   0.93326
 Alpha virt. eigenvalues --    0.94788   0.95672   0.96749   0.97485   0.97899
 Alpha virt. eigenvalues --    0.99436   1.00057   1.01506   1.04465   1.07480
 Alpha virt. eigenvalues --    1.09935   1.11786   1.13607   1.16542   1.17006
 Alpha virt. eigenvalues --    1.17903   1.18607   1.18909   1.20079   1.20790
 Alpha virt. eigenvalues --    1.21491   1.22049   1.23284   1.23589   1.24941
 Alpha virt. eigenvalues --    1.26069   1.26954   1.27882   1.28989   1.30401
 Alpha virt. eigenvalues --    1.30783   1.32358   1.33208   1.35680   1.36532
 Alpha virt. eigenvalues --    1.41726   1.46526   1.48628   1.53160   1.54731
 Alpha virt. eigenvalues --    1.56874   1.57629   1.58193   1.59871   1.60950
 Alpha virt. eigenvalues --    1.62695   1.63382   1.64792   1.67577   1.68333
 Alpha virt. eigenvalues --    1.69613   1.69765   1.71126   1.73493   1.74602
 Alpha virt. eigenvalues --    1.78073   1.81936   1.84687   1.88923   1.91072
 Alpha virt. eigenvalues --    1.92693   1.93465   1.95819   2.01490   2.03554
 Alpha virt. eigenvalues --    2.10437   2.13596   2.15678   2.36572   2.36952
 Alpha virt. eigenvalues --    2.37035   2.38237   2.38669   2.39863   2.42138
 Alpha virt. eigenvalues --    2.46141   2.47526   2.50854   2.56043   2.58649
 Alpha virt. eigenvalues --    2.59261   2.60134   2.61218   2.62441   2.62906
 Alpha virt. eigenvalues --    2.63739   2.66904   2.68251   2.68683   2.70961
 Alpha virt. eigenvalues --    2.72695   2.74420   2.76160   2.77235   2.77891
 Alpha virt. eigenvalues --    2.79570   2.81625   2.82966   2.85193   2.93950
 Alpha virt. eigenvalues --    2.99935   3.03069   3.40181   3.41367   3.42335
 Alpha virt. eigenvalues --    3.44752   3.45858   3.51161   3.54442   3.60922
 Alpha virt. eigenvalues --    4.15394   4.18449   4.19498   4.22929   4.23359
 Alpha virt. eigenvalues --    4.28180   4.39908   4.60344
          Condensed to atoms (all electrons):
               1          2          3          4          5          6
     1  Si  11.933698  -0.121451  -0.022797   0.026309   0.077937   0.043236
     2  O   -0.121451   8.817940   0.078328   0.038783   0.031147  -0.009637
     3  O   -0.022797   0.078328   8.597832  -0.034232  -0.013907  -0.006429
     4  O    0.026309   0.038783  -0.034232   8.539968   0.069150   0.005713
     5  O    0.077937   0.031147  -0.013907   0.069150   8.448139   0.240940
     6  H    0.043236  -0.009637  -0.006429   0.005713   0.240940   0.309250
     7  H    0.041715  -0.007923   0.005343   0.240479  -0.003401   0.000056
     8  H    0.041487   0.002049   0.234330  -0.000659  -0.007158   0.000003
     9  Si   0.064006  -0.100802   0.003541   0.004944  -0.080737   0.005552
    10  O    0.000730   0.026425   0.000121  -0.000527  -0.000225   0.000207
    11  O   -0.042565   0.051620  -0.001566  -0.012197   0.050680  -0.005330
    12  O    0.001929  -0.016605  -0.000182   0.000854  -0.004215   0.000523
    13  O   -0.031507  -0.007818  -0.017245  -0.006701   0.052353   0.013667
    14  H    0.015201  -0.000646   0.001097   0.001823  -0.010296  -0.001351
    15  H   -0.000187   0.000177   0.000001  -0.000011  -0.000380   0.000055
    16  H   -0.000315   0.000155   0.000001  -0.000001   0.000037  -0.000002
    17  H    0.004542  -0.002318   0.000282   0.005618  -0.007048   0.000454
    18  H    0.040416   0.212338  -0.000968  -0.008334   0.005270  -0.000013
               7          8          9         10         11         12
     1  Si   0.041715   0.041487   0.064006   0.000730  -0.042565   0.001929
     2  O   -0.007923   0.002049  -0.100802   0.026425   0.051620  -0.016605
     3  O    0.005343   0.234330   0.003541   0.000121  -0.001566  -0.000182
     4  O    0.240479  -0.000659   0.004944  -0.000527  -0.012197   0.000854
     5  O   -0.003401  -0.007158  -0.080737  -0.000225   0.050680  -0.004215
     6  H    0.000056   0.000003   0.005552   0.000207  -0.005330   0.000523
     7  H    0.344298   0.000067   0.000792  -0.000006  -0.001123  -0.000011
     8  H    0.000067   0.354482  -0.000060  -0.000000   0.000065  -0.000000
     9  Si   0.000792  -0.000060  11.980206  -0.071046  -0.070390   0.046753
    10  O   -0.000006  -0.000000  -0.071046   8.625845   0.080958  -0.014894
    11  O   -0.001123   0.000065  -0.070390   0.080958   8.553988   0.022164
    12  O   -0.000011  -0.000000   0.046753  -0.014894   0.022164   8.507117
    13  O   -0.000088   0.000268  -0.106458   0.076566   0.071323   0.029901
    14  H    0.000000  -0.000023   0.055806  -0.006341  -0.019650   0.008477
    15  H    0.000000   0.000000   0.046574   0.009241  -0.007493   0.238487
    16  H    0.000000  -0.000000   0.035729   0.231893   0.000890  -0.001012
    17  H    0.000199  -0.000002   0.054726  -0.006686   0.234240   0.006899
    18  H    0.000093   0.000071  -0.002730   0.000064   0.002400  -0.000039
              13         14         15         16         17         18
     1  Si  -0.031507   0.015201  -0.000187  -0.000315   0.004542   0.040416
     2  O   -0.007818  -0.000646   0.000177   0.000155  -0.002318   0.212338
     3  O   -0.017245   0.001097   0.000001   0.000001   0.000282  -0.000968
     4  O   -0.006701   0.001823  -0.000011  -0.000001   0.005618  -0.008334
     5  O    0.052353  -0.010296  -0.000380   0.000037  -0.007048   0.005270
     6  H    0.013667  -0.001351   0.000055  -0.000002   0.000454  -0.000013
     7  H   -0.000088   0.000000   0.000000   0.000000   0.000199   0.000093
     8  H    0.000268  -0.000023   0.000000  -0.000000  -0.000002   0.000071
     9  Si  -0.106458   0.055806   0.046574   0.035729   0.054726  -0.002730
    10  O    0.076566  -0.006341   0.009241   0.231893  -0.006686   0.000064
    11  O    0.071323  -0.019650  -0.007493   0.000890   0.234240   0.002400
    12  O    0.029901   0.008477   0.238487  -0.001012   0.006899  -0.000039
    13  O    8.671523   0.219185  -0.008608  -0.004441  -0.022191   0.011361
    14  H    0.219185   0.337637  -0.000024  -0.000070   0.000889  -0.003327
    15  H   -0.008608  -0.000024   0.361565   0.000025  -0.000013   0.000000
    16  H   -0.004441  -0.000070   0.000025   0.359448  -0.000042   0.000003
    17  H   -0.022191   0.000889  -0.000013  -0.000042   0.343786  -0.000511
    18  H    0.011361  -0.003327   0.000000   0.000003  -0.000511   0.327737
 Mulliken charges:
               1
     1  Si   1.927618
     2  O   -0.991762
     3  O   -0.823548
     4  O   -0.870982
     5  O   -0.848285
     6  H    0.403106
     7  H    0.379510
     8  H    0.375080
     9  Si   2.133591
    10  O   -0.952325
    11  O   -0.908014
    12  O   -0.826145
    13  O   -0.941091
    14  H    0.401610
    15  H    0.360592
    16  H    0.377700
    17  H    0.387176
    18  H    0.416168
 Sum of Mulliken charges =  -0.00000
 Mulliken charges with hydrogens summed into heavy atoms:
               1
     1  Si   1.927618
     2  O   -0.575593
     3  O   -0.448468
     4  O   -0.491471
     5  O   -0.445179
     9  Si   2.133591
    10  O   -0.574624
    11  O   -0.520838
    12  O   -0.465553
    13  O   -0.539481
 Electronic spatial extent (au):  <R**2>=           2322.6877
 Charge=             -0.0000 electrons
 Dipole moment (field-independent basis, Debye):
    X=             -2.2796    Y=              0.3355    Z=              0.3956  Tot=              2.3379
 Quadrupole moment (field-independent basis, Debye-Ang):
   XX=            -66.7059   YY=            -66.5904   ZZ=            -76.2157
   XY=              0.0391   XZ=             -2.3707   YZ=              0.7415
 Traceless Quadrupole moment (field-independent basis, Debye-Ang):
   XX=              3.1315   YY=              3.2469   ZZ=             -6.3784
   XY=              0.0391   XZ=             -2.3707   YZ=              0.7415
 Octapole moment (field-independent basis, Debye-Ang**2):
  XXX=            -20.8230  YYY=             -3.7562  ZZZ=              6.4742  XYY=              4.7316
  XXY=              3.2174  XXZ=            -11.9209  XZZ=             -7.9115  YZZ=             -5.9464
  YYZ=              3.1007  XYZ=              2.4381
 Hexadecapole moment (field-independent basis, Debye-Ang**3):
 XXXX=          -1812.6761 YYYY=           -321.6130 ZZZZ=           -359.7767 XXXY=            108.1032
 XXXZ=             58.8450 YYYX=            -59.1606 YYYZ=              5.8762 ZZZX=            -13.4136
 ZZZY=             -2.8140 XXYY=           -378.8992 XXZZ=           -440.0152 YYZZ=           -110.2544
 XXYZ=            -14.1731 YYXZ=            -34.9332 ZZXY=             22.8341
 N-N= 8.660161368749D+02 E-N=-4.542049655500D+03  KE= 1.178619294233D+03
 Calling FoFJK, ICntrl=      2127 FMM=F ISym2X=0 I1Cent= 0 IOpClX= 0 NMat=1 NMatS=1 NMatT=0.
 ***** Axes restored to original set *****
 -------------------------------------------------------------------
 Center     Atomic                   Forces (Hartrees/Bohr)
 Number     Number              X              Y              Z
 -------------------------------------------------------------------
      1       14          -0.026784568   -0.004960736   -0.009959862
      2        8           0.012240661    0.026277447    0.022299991
      3        8          -0.000400054    0.011765081    0.006113282
      4        8          -0.008271489   -0.007616973    0.004724521
      5        8           0.000999123   -0.002497103    0.000208427
      6        1           0.000955882   -0.003680771    0.001860919
      7        1           0.000935679    0.003999309    0.002318862
      8        1           0.004540497    0.000680739   -0.002194910
      9       14          -0.003377378    0.003195569    0.003118369
     10        8           0.015031619   -0.005784711   -0.003756605
     11        8          -0.003815298   -0.007190204    0.012291073
     12        8          -0.005302540   -0.004757808   -0.003032154
     13        8           0.000647916    0.002030508   -0.027456698
     14        1           0.005782902   -0.006299927   -0.004333863
     15        1           0.004310141   -0.001628909   -0.001038292
     16        1          -0.000215945    0.004450479    0.004206530
     17        1           0.000904159   -0.005480203   -0.004216647
     18        1           0.001818694   -0.002501787   -0.001152941
 -------------------------------------------------------------------
 Cartesian Forces:  Max     0.027456698 RMS     0.008744047

 GradGradGradGradGradGradGradGradGradGradGradGradGradGradGradGradGradGrad
 Berny optimization.
 FormGI is forming the generalized inverse of G from B-inverse, IUseBI=4.
 Internal  Forces:  Max     0.020227530 RMS     0.007634687
 Search for a local minimum.
 Step number   1 out of a maximum of   81
 All quantities printed in internal units (Hartrees-Bohrs-Radians)
 Mixed Optimization -- RFO/linear search
 Second derivative matrix not updated -- first step.
 ITU=  0
     Eigenvalues ---    0.00532   0.03739   0.03799   0.03837   0.03844
     Eigenvalues ---    0.03851   0.03865   0.03875   0.03876   0.04563
     Eigenvalues ---    0.06205   0.09121   0.10703   0.10772   0.12173
     Eigenvalues ---    0.12197   0.12246   0.12480   0.12817   0.16000
     Eigenvalues ---    0.16000   0.16000   0.16000   0.16000   0.16000
     Eigenvalues ---    0.16000   0.20131   0.20260   0.20696   0.20836
     Eigenvalues ---    0.21158   0.41231   0.43801   0.44527   0.44613
     Eigenvalues ---    0.44696   0.44868   0.44990   0.45007   0.51733
     Eigenvalues ---    0.53098   0.53138   0.53337   0.53406   0.53477
     Eigenvalues ---    0.53571   0.538171000.000001000.000001000.00000
     Eigenvalues --- 1000.000001000.000001000.000001000.000001000.00000
     Eigenvalues --- 1000.000001000.000001000.000001000.000001000.00000
     Eigenvalues --- 1000.000001000.000001000.000001000.000001000.00000
     Eigenvalues --- 1000.000001000.000001000.000001000.000001000.00000
     Eigenvalues --- 1000.00000
 RFO step:  Lambda=-2.43362397D-02 EMin= 5.31783398D-03
 Linear search not attempted -- first point.
 Maximum step size (   0.300) exceeded in Quadratic search.
    -- Step size scaled by   0.913
 Iteration  1 RMS(Cart)=  0.23147956 RMS(Int)=  0.01540395
 Iteration  2 RMS(Cart)=  0.06008041 RMS(Int)=  0.00083871
 Iteration  3 RMS(Cart)=  0.00153626 RMS(Int)=  0.00037631
 Iteration  4 RMS(Cart)=  0.00000182 RMS(Int)=  0.00037631
 Iteration  5 RMS(Cart)=  0.00000000 RMS(Int)=  0.00037631
 Iteration  1 RMS(Cart)=  0.00014053 RMS(Int)=  0.00001401
 Iteration  2 RMS(Cart)=  0.00000859 RMS(Int)=  0.00001441
 Iteration  3 RMS(Cart)=  0.00000052 RMS(Int)=  0.00001446
 Variable       Old X    -DE/DX   Delta X   Delta X   Delta X     New X
                                 (Linear)    (Quad)   (Total)
    R1        3.10932   0.01387   0.00000   0.03748   0.03780   3.14712
    R2        3.08968   0.00978   0.00000   0.01883   0.01883   3.10851
    R3        3.09129   0.01021   0.00000   0.01972   0.01972   3.11101
    R4        3.08988   0.00197   0.00000   0.00379   0.00379   3.09367
    R5        7.55890   0.01747   0.00000   0.00000  -0.00000   7.55890
    R6        3.16594   0.02023   0.00000   0.21651   0.21686   3.38280
    R7        1.83562  -0.00176   0.00000  -0.00290  -0.00290   1.83272
    R8        1.83124  -0.00445   0.00000  -0.00725  -0.00725   1.82399
    R9        1.83276  -0.00391   0.00000  -0.00639  -0.00639   1.82637
   R10        1.83526  -0.00042   0.00000  -0.00069  -0.00069   1.83456
   R11        3.09427   0.01353   0.00000   0.02627   0.02627   3.12054
   R12        3.09529   0.01065   0.00000   0.02071   0.02071   3.11601
   R13        3.09331   0.00751   0.00000   0.01455   0.01455   3.10786
   R14        3.10072   0.00854   0.00000   0.02527   0.02559   3.12632
   R15        1.83211  -0.00447   0.00000  -0.00731  -0.00731   1.82480
   R16        1.83340  -0.00697   0.00000  -0.01142  -0.01142   1.82198
   R17        1.82899  -0.00303   0.00000  -0.00492  -0.00492   1.82407
   R18        1.83812   0.01173   0.00000   0.02689   0.02725   1.86537
    A1        1.90027  -0.01138   0.00000  -0.05122  -0.05094   1.84932
    A2        1.91135   0.00830   0.00000   0.02704   0.02694   1.93830
    A3        1.90681  -0.00282   0.00000  -0.01272  -0.01227   1.89454
    A4        1.90999  -0.00098   0.00000  -0.00367  -0.00362   1.90637
    A5        1.92919   0.01190   0.00000   0.05517   0.05502   1.98422
    A6        1.90614  -0.00497   0.00000  -0.01454  -0.01464   1.89150
    A7        1.81382  -0.01148   0.00000  -0.01908  -0.01862   1.79521
    A8        1.95946   0.01293   0.00000   0.05355   0.05302   2.01248
    A9        2.11779   0.00134   0.00000   0.00213   0.00163   2.11942
   A10        1.99270   0.00452   0.00000   0.02241   0.02241   2.01510
   A11        1.98626   0.00480   0.00000   0.02378   0.02378   2.01003
   A12        2.00160   0.00198   0.00000   0.00979   0.00979   2.01139
   A13        1.91672   0.00052   0.00000   0.00756   0.00638   1.92310
   A14        1.90914  -0.00136   0.00000  -0.02200  -0.02232   1.88682
   A15        1.90878  -0.00088   0.00000   0.00302   0.00189   1.91067
   A16        1.91902  -0.00679   0.00000  -0.03306  -0.03286   1.88616
   A17        1.88955   0.01332   0.00000   0.06917   0.06882   1.95836
   A18        1.92053  -0.00467   0.00000  -0.02376  -0.02347   1.89706
   A19        1.97400   0.00766   0.00000   0.03796   0.03796   2.01195
   A20        1.98311  -0.00001   0.00000  -0.00003  -0.00003   1.98308
   A21        1.98543   0.00661   0.00000   0.03274   0.03274   2.01817
   A22        1.96394   0.00527   0.00000   0.07408   0.07486   2.03880
   A23        2.28833   0.01888   0.00000   0.10271   0.10378   2.39211
    D1       -1.43844  -0.00377   0.00000  -0.02579  -0.02617  -1.46461
    D2        0.88091  -0.00179   0.00000   0.00040   0.00017   0.88108
    D3        2.75699  -0.00066   0.00000  -0.00658  -0.00658   2.75042
    D4       -1.20684   0.00131   0.00000   0.01962   0.01976  -1.18708
    D5        0.66998   0.00211   0.00000   0.00256   0.00273   0.67270
    D6        2.98933   0.00408   0.00000   0.02876   0.02906   3.01839
    D7       -2.69128  -0.00211   0.00000  -0.00612  -0.00676  -2.69804
    D8       -0.60268   0.00056   0.00000  -0.00620  -0.00616  -0.60884
    D9        1.49729   0.00125   0.00000   0.00808   0.00868   1.50597
   D10       -1.74557  -0.00249   0.00000  -0.01074  -0.01077  -1.75634
   D11        2.45585   0.00699   0.00000   0.03768   0.03759   2.49344
   D12        0.34186  -0.00394   0.00000  -0.01877  -0.01866   0.32320
   D13       -0.69349   0.00690   0.00000   0.05068   0.05084  -0.64265
   D14        1.39720  -0.00157   0.00000   0.01352   0.01333   1.41053
   D15       -2.78372   0.00147   0.00000   0.03414   0.03417  -2.74955
   D16       -1.40501   0.01551   0.00000   0.25069   0.25010  -1.15491
   D17        2.65371   0.00726   0.00000   0.19198   0.19173   2.84543
   D18        2.27493  -0.00816   0.00000  -0.04473  -0.04465   2.23028
   D19        0.16739   0.00075   0.00000   0.00514   0.00519   0.17258
   D20       -1.93707   0.00785   0.00000   0.04597   0.04585  -1.89123
   D21        1.11425   0.00429   0.00000   0.03099   0.03148   1.14573
   D22       -3.06737  -0.00136   0.00000  -0.01230  -0.01198  -3.07935
   D23       -0.96874  -0.00292   0.00000  -0.01850  -0.01930  -0.98805
   D24        3.01248  -0.00005   0.00000  -0.00269  -0.00258   3.00990
   D25        0.90635   0.00441   0.00000   0.02251   0.02233   0.92868
   D26       -1.17342  -0.00488   0.00000  -0.02745  -0.02738  -1.20080
   D27       -1.00292  -0.00175   0.00000   0.00789   0.00749  -0.99543
   D28        1.08508   0.00625   0.00000   0.05972   0.06032   1.14540
   D29       -3.10042   0.00337   0.00000   0.04778   0.04757  -3.05285
   D30       -0.91400   0.01321   0.00000   0.05300   0.05213  -0.86187
         Item               Value     Threshold  Converged?
 Maximum Force            0.019396     0.000450     NO 
 RMS     Force            0.007377     0.000300     NO 
 Maximum Displacement     0.804172     0.001800     NO 
 RMS     Displacement     0.281585     0.001200     NO 
 Predicted change in Energy=-1.462667D-02
 GradGradGradGradGradGradGradGradGradGradGradGradGradGradGradGradGradGrad

                          Input orientation:                          
 ---------------------------------------------------------------------
 Center     Atomic      Atomic             Coordinates (Angstroms)
 Number     Number       Type             X           Y           Z
 ---------------------------------------------------------------------
      1         14           0       -6.192759   -0.408727   -0.281919
      2          8           0       -4.546483   -0.296392   -0.056849
      3          8           0       -6.652981    1.012144   -0.971259
      4          8           0       -6.974993   -0.592643    1.154919
      5          8           0       -6.503143   -1.721018   -1.210166
      6          1           0       -5.854518   -1.895049   -1.911214
      7          1           0       -7.243544   -1.497247    1.363824
      8          1           0       -7.571811    1.267284   -0.821946
      9         14           0       -3.369851   -2.986975   -1.458283
     10          8           0       -1.865467   -2.760071   -0.816258
     11          8           0       -4.421405   -3.474439   -0.285446
     12          8           0       -3.270483   -4.182516   -2.583249
     13          8           0       -3.866421   -1.596541   -2.204653
     14          1           0       -3.892513   -0.779237   -1.651728
     15          1           0       -4.111891   -4.483461   -2.948193
     16          1           0       -1.149144   -3.220663   -1.271454
     17          1           0       -4.581953   -2.806727    0.391289
     18          1           0       -4.243320    0.508369    0.391515
 ---------------------------------------------------------------------
                    Distance matrix (angstroms):
                    1          2          3          4          5
     1  Si   0.000000
     2  O    1.665383   0.000000
     3  O    1.644952   2.643056   0.000000
     4  O    1.646275   2.730166   2.683219   0.000000
     5  O    1.637098   2.681086   2.747673   2.662612   0.000000
     6  H    2.231180   2.775848   3.157979   3.514670   0.970809
     7  H    2.235508   3.276355   3.478278   0.966472   2.687693
     8  H    2.236611   3.490424   0.965214   2.779122   3.197298
     9  Si   4.000000   3.253878   5.197027   5.055561   3.388470
    10  O    4.953766   3.719445   6.097043   5.889868   4.768945
    11  O    3.540663   3.188713   5.057638   4.110987   2.874583
    12  O    5.298801   4.807581   6.405021   6.370594   4.288871
    13  O    3.243402   2.601142   4.011411   4.685910   2.820780
    14  H    2.702736   1.790100   3.360397   4.172981   2.810217
    15  H    5.295515   5.106887   6.369229   6.338086   4.045975
    16  H    5.858687   4.644194   6.949748   6.836248   5.560395
    17  H    2.966194   2.550268   4.552963   3.348423   2.726608
    18  H    2.257187   0.969834   2.813789   3.042540   3.555609
                    6          7          8          9         10
     6  H    0.000000
     7  H    3.579598   0.000000
     8  H    3.759781   3.539489   0.000000
     9  Si   2.751548   5.018872   6.013328   0.000000
    10  O    4.226076   5.938956   6.984410   1.651319   0.000000
    11  O    2.681680   3.820190   5.718114   1.648919   2.706456
    12  O    3.515873   6.210899   7.162675   1.644609   2.668272
    13  O    2.031684   4.914148   4.882959   1.654375   2.699123
    14  H    2.271967   4.564921   4.291156   2.276995   2.954765
    15  H    3.288152   6.108863   7.040102   2.238286   3.544241
    16  H    4.930221   6.859779   7.848208   2.240771   0.965643
    17  H    2.784259   3.121639   5.196995   2.218693   2.973154
    18  H    3.697965   3.737543   3.623161   4.049955   4.218484
                   11         12         13         14         15
    11  O    0.000000
    12  O    2.665687   0.000000
    13  O    2.741872   2.680623   0.000000
    14  H    3.067665   3.582870   0.987114   0.000000
    15  H    2.864287   0.965256   2.991223   3.930677   0.000000
    16  H    3.426997   2.673209   3.300337   3.692051   3.630976
    17  H    0.964151   3.529961   2.952195   2.959724   3.766236
    18  H    4.043854   5.639152   3.363449   2.440459   6.007436
                   16         17         18
    16  H    0.000000
    17  H    3.836696   0.000000
    18  H    5.122994   3.332347   0.000000
 Stoichiometry    H8O8Si2
 Framework group  C1[X(H8O8Si2)]
 Deg. of freedom    48
 Full point group                 C1      NOp   1
 Largest Abelian subgroup         C1      NOp   1
 Largest concise Abelian subgroup C1      NOp   1
                         Standard orientation:                         
 ---------------------------------------------------------------------
 Center     Atomic      Atomic             Coordinates (Angstroms)
 Number     Number       Type             X           Y           Z
 ---------------------------------------------------------------------
      1         14           0       -2.001434   -0.014510   -0.016759
      2          8           0       -0.985505    1.129741    0.640565
      3          8           0       -3.036416    0.808322   -0.995343
      4          8           0       -2.861715   -0.785393    1.156219
      5          8           0       -1.093669   -1.125418   -0.805387
      6          1           0       -0.316056   -0.772384   -1.267074
      7          1           0       -2.528252   -1.657977    1.404149
      8          1           0       -3.891068    0.385294   -1.144529
      9         14           0        1.998482   -0.001927    0.005846
     10          8           0        2.716005    1.100468    1.004215
     11          8           0        1.224242   -1.155083    0.894506
     12          8           0        3.177357   -0.740227   -0.871598
     13          8           0        0.974712    0.779009   -1.032897
     14          1           0        0.262844    1.329233   -0.626829
     15          1           0        2.890252   -1.486969   -1.411660
     16          1           0        3.652752    1.262154    0.834426
     17          1           0        0.477588   -0.815631    1.401326
     18          1           0       -1.426810    1.895047    1.040733
 ---------------------------------------------------------------------
 Rotational constants (GHZ):           1.9662696           0.4931345           0.4881181
 Standard basis: 6-31+G(d,p) (6D, 7F)
 There are   238 symmetry adapted cartesian basis functions of A   symmetry.
 There are   238 symmetry adapted basis functions of A   symmetry.
   238 basis functions,   424 primitive gaussians,   238 cartesian basis functions
    50 alpha electrons       50 beta electrons
       nuclear repulsion energy       859.1342787824 Hartrees.
 NAtoms=   18 NActive=   18 NUniq=   18 SFac= 1.00D+00 NAtFMM=   60 NAOKFM=F Big=F
 Integral buffers will be    131072 words long.
 Raffenetti 2 integral format.
 Two-electron integral symmetry is turned on.
 Nuclear repulsion after empirical dispersion term =      859.1175825113 Hartrees.
 One-electron integrals computed using PRISM.
 NBasis=   238 RedAO= T EigKep=  2.41D-04  NBF=   238
 NBsUse=   238 1.00D-06 EigRej= -1.00D+00 NBFU=   238
 Initial guess from the checkpoint file:  "/localscratch/sarashs.36560086.0/Gau-266981.chk"
 B after Tr=     0.000000    0.000000   -0.000000
         Rot=    0.977236   -0.211672    0.009314   -0.010860 Ang= -24.50 deg.
 ExpMin= 3.31D-02 ExpMax= 1.61D+04 ExpMxC= 2.43D+03 IAcc=3 IRadAn=         5 AccDes= 0.00D+00
 Harris functional with IExCor=  402 and IRadAn=       5 diagonalized for initial guess.
 HarFok:  IExCor=  402 AccDes= 0.00D+00 IRadAn=         5 IDoV= 1 UseB2=F ITyADJ=14
 ICtDFT=  3500011 ScaDFX=  1.000000  1.000000  1.000000  1.000000
 FoFCou: FMM=F IPFlag=           0 FMFlag=      100000 FMFlg1=           0
         NFxFlg=           0 DoJE=T BraDBF=F KetDBF=T FulRan=T
         wScrn=  0.000000 ICntrl=       500 IOpCl=  0 I1Cent=   200000004 NGrid=           0
         NMat0=    1 NMatS0=      1 NMatT0=    0 NMatD0=    1 NMtDS0=    0 NMtDT0=    0
 Petite list used in FoFCou.
 Requested convergence on RMS density matrix=1.00D-08 within 128 cycles.
 Requested convergence on MAX density matrix=1.00D-06.
 Requested convergence on             energy=1.00D-06.
 No special actions if energy rises.
 SCF Done:  E(RB3LYP) =  -1186.05095217     A.U. after   11 cycles
            NFock= 11  Conv=0.40D-08     -V/T= 2.0065
 Calling FoFJK, ICntrl=      2127 FMM=F ISym2X=0 I1Cent= 0 IOpClX= 0 NMat=1 NMatS=1 NMatT=0.
 ***** Axes restored to original set *****
 -------------------------------------------------------------------
 Center     Atomic                   Forces (Hartrees/Bohr)
 Number     Number              X              Y              Z
 -------------------------------------------------------------------
      1       14          -0.011723237    0.000745881   -0.003919919
      2        8           0.001983825    0.007905973    0.005449479
      3        8          -0.000275242    0.003592346    0.004389250
      4        8          -0.002485288   -0.003250718    0.000240215
      5        8          -0.002958969    0.004054273    0.003420190
      6        1           0.000346644    0.000838442   -0.000051901
      7        1          -0.000501315    0.001812383    0.000745246
      8        1           0.000797939    0.000846531   -0.001352695
      9       14           0.012655712   -0.000321889    0.000864009
     10        8           0.002050028   -0.002617139   -0.001967406
     11        8           0.002378616    0.001050298    0.000777096
     12        8          -0.004002563    0.000040640   -0.001093568
     13        8          -0.004048987    0.005112748   -0.003367175
     14        1           0.005137303   -0.014556043   -0.005343920
     15        1           0.002310159   -0.001751331   -0.000875796
     16        1          -0.000394717    0.001409050    0.001571905
     17        1          -0.000908079   -0.001379553    0.001602601
     18        1          -0.000361829   -0.003531889   -0.001087612
 -------------------------------------------------------------------
 Cartesian Forces:  Max     0.014556043 RMS     0.004077085

 GradGradGradGradGradGradGradGradGradGradGradGradGradGradGradGradGradGrad
 Berny optimization.
 Using GEDIIS/GDIIS optimizer.
 FormGI is forming the generalized inverse of G from B-inverse, IUseBI=4.
 Internal  Forces:  Max     0.019611424 RMS     0.004930683
 Search for a local minimum.
 Step number   2 out of a maximum of   81
 All quantities printed in internal units (Hartrees-Bohrs-Radians)
 Mixed Optimization -- RFO/linear search
 Update second derivatives using D2CorX and points    1    2
 DE= -7.38D-03 DEPred=-1.46D-02 R= 5.05D-01
 TightC=F SS=  1.41D+00  RLast= 4.60D-01 DXNew= 5.0454D-01 1.3810D+00
 Trust test= 5.05D-01 RLast= 4.60D-01 DXMaxT set to 5.05D-01
 ITU=  1  0
 Use linear search instead of GDIIS.
     Eigenvalues ---    0.00659   0.03696   0.03827   0.03836   0.03844
     Eigenvalues ---    0.03851   0.03865   0.03876   0.03899   0.04408
     Eigenvalues ---    0.07146   0.08977   0.10651   0.10922   0.11723
     Eigenvalues ---    0.12026   0.12237   0.12800   0.13636   0.15367
     Eigenvalues ---    0.16000   0.16000   0.16000   0.16000   0.16000
     Eigenvalues ---    0.18153   0.19681   0.20202   0.20682   0.20856
     Eigenvalues ---    0.23973   0.40986   0.43658   0.44154   0.44557
     Eigenvalues ---    0.44689   0.44808   0.44967   0.45327   0.52811
     Eigenvalues ---    0.53070   0.53140   0.53366   0.53450   0.53540
     Eigenvalues ---    0.53713   0.538061000.000001000.000001000.00000
     Eigenvalues --- 1000.000001000.000001000.000001000.000001000.00000
     Eigenvalues --- 1000.000001000.000001000.000001000.000001000.00000
     Eigenvalues --- 1000.000001000.000001000.000001000.000001000.00000
     Eigenvalues --- 1000.000001000.000001000.000001000.000001000.00000
     Eigenvalues --- 1000.00000
 RFO step:  Lambda=-8.08399872D-03 EMin= 6.58767086D-03
 Quartic linear search produced a step of -0.23212.
 Iteration  1 RMS(Cart)=  0.20443204 RMS(Int)=  0.01045869
 Iteration  2 RMS(Cart)=  0.02963755 RMS(Int)=  0.00024857
 Iteration  3 RMS(Cart)=  0.00043306 RMS(Int)=  0.00017354
 Iteration  4 RMS(Cart)=  0.00000010 RMS(Int)=  0.00017354
 Iteration  1 RMS(Cart)=  0.00006487 RMS(Int)=  0.00000675
 Iteration  2 RMS(Cart)=  0.00000425 RMS(Int)=  0.00000696
 Iteration  3 RMS(Cart)=  0.00000028 RMS(Int)=  0.00000699
 Variable       Old X    -DE/DX   Delta X   Delta X   Delta X     New X
                                 (Linear)    (Quad)   (Total)
    R1        3.14712   0.00648  -0.00877   0.02715   0.01854   3.16565
    R2        3.10851   0.00242  -0.00437   0.01754   0.01317   3.12168
    R3        3.11101   0.00244  -0.00458   0.01823   0.01365   3.12466
    R4        3.09367  -0.00534  -0.00088  -0.00620  -0.00708   3.08659
    R5        7.55890   0.01477   0.00000   0.00000   0.00000   7.55890
    R6        3.38280   0.00579  -0.05034   0.13587   0.08568   3.46848
    R7        1.83272  -0.00355   0.00067  -0.00712  -0.00645   1.82627
    R8        1.82399  -0.00075   0.00168  -0.00626  -0.00458   1.81941
    R9        1.82637  -0.00139   0.00148  -0.00657  -0.00508   1.82129
   R10        1.83456   0.00012   0.00016  -0.00033  -0.00017   1.83440
   R11        3.12054   0.00119  -0.00610   0.02084   0.01474   3.13528
   R12        3.11601   0.00085  -0.00481   0.01629   0.01149   3.12749
   R13        3.10786   0.00249  -0.00338   0.01462   0.01124   3.11911
   R14        3.12632  -0.00154  -0.00594   0.00494  -0.00085   3.12546
   R15        1.82480  -0.00171   0.00170  -0.00766  -0.00596   1.81884
   R16        1.82198   0.00032   0.00265  -0.00776  -0.00511   1.81687
   R17        1.82407  -0.00114   0.00114  -0.00513  -0.00399   1.82008
   R18        1.86537  -0.01021  -0.00633  -0.00519  -0.01135   1.85402
    A1        1.84932  -0.00629   0.01183  -0.06137  -0.04956   1.79976
    A2        1.93830   0.00258  -0.00625   0.02890   0.02234   1.96064
    A3        1.89454   0.00539   0.00285   0.01761   0.02052   1.91506
    A4        1.90637  -0.00058   0.00084  -0.01318  -0.01224   1.89413
    A5        1.98422   0.00220  -0.01277   0.04689   0.03440   2.01861
    A6        1.89150  -0.00311   0.00340  -0.01757  -0.01434   1.87716
    A7        1.79521   0.00182   0.00432  -0.05667  -0.05188   1.74333
    A8        2.01248  -0.00520  -0.01231   0.05149   0.03915   2.05163
    A9        2.11942   0.00233  -0.00038   0.03182   0.03168   2.15110
   A10        2.01510   0.00282  -0.00520   0.02845   0.02325   2.03836
   A11        2.01003   0.00258  -0.00552   0.02832   0.02280   2.03283
   A12        2.01139  -0.00154  -0.00227  -0.00020  -0.00247   2.00892
   A13        1.92310  -0.00174  -0.00148  -0.00207  -0.00374   1.91936
   A14        1.88682  -0.00002   0.00518  -0.01933  -0.01426   1.87256
   A15        1.91067  -0.00003  -0.00044   0.00109   0.00050   1.91117
   A16        1.88616  -0.00020   0.00763  -0.02434  -0.01672   1.86944
   A17        1.95836   0.00348  -0.01597   0.06354   0.04756   2.00593
   A18        1.89706  -0.00160   0.00545  -0.02246  -0.01700   1.88006
   A19        2.01195   0.00237  -0.00881   0.03724   0.02843   2.04038
   A20        1.98308   0.00398   0.00001   0.01808   0.01809   2.00116
   A21        2.01817   0.00507  -0.00760   0.04587   0.03828   2.05644
   A22        2.03880  -0.01961  -0.01738  -0.10632  -0.12332   1.91548
   A23        2.39211  -0.00418  -0.02409   0.00002  -0.02362   2.36849
    D1       -1.46461  -0.00429   0.00607  -0.07513  -0.06887  -1.53348
    D2        0.88108  -0.00359  -0.00004  -0.04190  -0.04194   0.83914
    D3        2.75042  -0.00123   0.00153  -0.03838  -0.03656   2.71386
    D4       -1.18708  -0.00054  -0.00459  -0.00515  -0.00963  -1.19671
    D5        0.67270  -0.00234  -0.00063  -0.04514  -0.04597   0.62673
    D6        3.01839  -0.00164  -0.00675  -0.01191  -0.01904   2.99935
    D7       -2.69804   0.00125   0.00157  -0.00014   0.00101  -2.69704
    D8       -0.60884   0.00044   0.00143  -0.00755  -0.00571  -0.61455
    D9        1.50597  -0.00249  -0.00202  -0.00807  -0.01007   1.49590
   D10       -1.75634  -0.00445   0.00250  -0.03301  -0.03055  -1.78689
   D11        2.49344   0.00207  -0.00873   0.03296   0.02439   2.51783
   D12        0.32320   0.00175   0.00433  -0.00522  -0.00100   0.32220
   D13       -0.64265   0.00227  -0.01180   0.04090   0.02878  -0.61386
   D14        1.41053  -0.00064  -0.00310   0.00454   0.00169   1.41222
   D15       -2.74955  -0.00217  -0.00793   0.00604  -0.00183  -2.75138
   D16       -1.15491  -0.01219  -0.05805  -0.09207  -0.15033  -1.30524
   D17        2.84543  -0.00849  -0.04450  -0.13544  -0.18011   2.66532
   D18        2.23028  -0.00141   0.01036  -0.03794  -0.02748   2.20279
   D19        0.17258  -0.00017  -0.00120   0.00396   0.00273   0.17531
   D20       -1.89123   0.00179  -0.01064   0.04146   0.03077  -1.86046
   D21        1.14573   0.00039  -0.00731   0.02157   0.01426   1.15999
   D22       -3.07935  -0.00074   0.00278  -0.01723  -0.01440  -3.09375
   D23       -0.98805  -0.00074   0.00448  -0.02234  -0.01791  -1.00595
   D24        3.00990  -0.00064   0.00060  -0.00678  -0.00620   3.00370
   D25        0.92868   0.00156  -0.00518   0.02002   0.01482   0.94350
   D26       -1.20080  -0.00159   0.00636  -0.02895  -0.02255  -1.22335
   D27       -0.99543  -0.00256  -0.00174  -0.03857  -0.04041  -1.03584
   D28        1.14540  -0.00243  -0.01400   0.00287  -0.01097   1.13442
   D29       -3.05285  -0.00159  -0.01104  -0.00291  -0.01401  -3.06686
   D30       -0.86187  -0.01772  -0.01210  -0.00035  -0.01287  -0.87474
         Item               Value     Threshold  Converged?
 Maximum Force            0.021082     0.000450     NO 
 RMS     Force            0.004620     0.000300     NO 
 Maximum Displacement     0.488004     0.001800     NO 
 RMS     Displacement     0.226017     0.001200     NO 
 Predicted change in Energy=-4.993081D-03
 GradGradGradGradGradGradGradGradGradGradGradGradGradGradGradGradGradGrad

                          Input orientation:                          
 ---------------------------------------------------------------------
 Center     Atomic      Atomic             Coordinates (Angstroms)
 Number     Number       Type             X           Y           Z
 ---------------------------------------------------------------------
      1         14           0       -6.234883   -0.424085   -0.317280
      2          8           0       -4.580983   -0.463342   -0.053953
      3          8           0       -6.500493    1.132568   -0.802178
      4          8           0       -7.098138   -0.697972    1.066135
      5          8           0       -6.649318   -1.580609   -1.393633
      6          1           0       -5.997367   -1.743996   -2.094035
      7          1           0       -7.474343   -1.579148    1.170432
      8          1           0       -7.381379    1.490146   -0.650053
      9         14           0       -3.350471   -2.963037   -1.428089
     10          8           0       -1.806038   -2.579708   -0.958554
     11          8           0       -4.240782   -3.431972   -0.114140
     12          8           0       -3.247688   -4.266574   -2.435349
     13          8           0       -3.992183   -1.707863   -2.293078
     14          1           0       -4.003438   -0.896619   -1.741424
     15          1           0       -4.068706   -4.690203   -2.707598
     16          1           0       -1.087664   -3.025521   -1.418524
     17          1           0       -4.403867   -2.736105    0.528940
     18          1           0       -4.194939    0.250129    0.471311
 ---------------------------------------------------------------------
                    Distance matrix (angstroms):
                    1          2          3          4          5
     1  Si   0.000000
     2  O    1.675192   0.000000
     3  O    1.651922   2.606010   0.000000
     4  O    1.653499   2.765089   2.683030   0.000000
     5  O    1.633352   2.705742   2.780881   2.651593   0.000000
     6  H    2.226081   2.794307   3.193219   3.506071   0.970721
     7  H    2.254709   3.334017   3.491844   0.963783   2.693528
     8  H    2.255986   3.466074   0.962790   2.795244   3.243202
     9  Si   4.000000   3.106587   5.204649   5.039512   3.576966
    10  O    4.967153   3.605222   5.986932   5.970479   4.964359
    11  O    3.614566   2.988665   5.139524   4.127019   3.296315
    12  O    5.307944   4.681164   6.511430   6.310410   4.457653
    13  O    3.252933   2.628536   4.072156   4.685206   2.808125
    14  H    2.689018   1.835441   3.351874   4.183182   2.754901
    15  H    5.348430   5.017032   6.591576   6.273470   4.249193
    16  H    5.871463   4.542036   6.853343   6.907736   5.746337
    17  H    3.068247   2.352994   4.597210   3.420768   3.173879
    18  H    2.288627   0.966422   2.777778   3.111475   3.585191
                    6          7          8          9         10
     6  H    0.000000
     7  H    3.586833   0.000000
     8  H    3.802663   3.569786   0.000000
     9  Si   2.989247   5.066929   6.056764   0.000000
    10  O    4.422100   6.137050   6.909654   1.659120   0.000000
    11  O    3.139241   3.941953   5.863258   1.654998   2.714290
    12  O    3.747083   6.171590   7.308523   1.650560   2.665482
    13  O    2.015363   4.913034   4.940997   1.653922   2.705605
    14  H    2.195025   4.581694   4.277642   2.189664   2.876498
    15  H    3.574399   6.026287   7.307804   2.266299   3.554295
    16  H    5.118965   7.041616   7.784128   2.263690   0.962488
    17  H    3.225448   3.343334   5.302527   2.234078   2.997636
    18  H    3.715680   3.819622   3.598403   3.826914   3.969803
                   11         12         13         14         15
    11  O    0.000000
    12  O    2.659100   0.000000
    13  O    2.789646   2.668616   0.000000
    14  H    3.021986   3.522682   0.981105   0.000000
    15  H    2.887695   0.963147   3.011981   3.915231   0.000000
    16  H    3.436390   2.690697   3.307158   3.624670   3.649588
    17  H    0.961447   3.530736   3.031592   2.949339   3.795525
    18  H    3.728635   5.454040   3.393625   2.499579   5.876076
                   16         17         18
    16  H    0.000000
    17  H    3.856629   0.000000
    18  H    4.894539   2.994088   0.000000
 Stoichiometry    H8O8Si2
 Framework group  C1[X(H8O8Si2)]
 Deg. of freedom    48
 Full point group                 C1      NOp   1
 Largest Abelian subgroup         C1      NOp   1
 Largest concise Abelian subgroup C1      NOp   1
                         Standard orientation:                         
 ---------------------------------------------------------------------
 Center     Atomic      Atomic             Coordinates (Angstroms)
 Number     Number       Type             X           Y           Z
 ---------------------------------------------------------------------
      1         14           0       -2.007864   -0.022206   -0.026895
      2          8           0       -0.875181    1.003661    0.659321
      3          8           0       -3.051611    1.017677   -0.773943
      4          8           0       -2.846524   -0.882361    1.109258
      5          8           0       -1.258954   -1.095814   -1.003797
      6          1           0       -0.488057   -0.749821   -1.481611
      7          1           0       -2.583631   -1.801323    1.232848
      8          1           0       -3.953200    0.706935   -0.906380
      9         14           0        1.991910   -0.000699    0.009757
     10          8           0        2.717861    1.260657    0.806410
     11          8           0        1.278133   -1.021605    1.099385
     12          8           0        3.184740   -0.854728   -0.746640
     13          8           0        0.980117    0.592016   -1.156614
     14          1           0        0.296990    1.162741   -0.744087
     15          1           0        2.945480   -1.690386   -1.161471
     16          1           0        3.647547    1.419630    0.614592
     17          1           0        0.533811   -0.642959    1.575820
     18          1           0       -1.204238    1.759847    1.163181
 ---------------------------------------------------------------------
 Rotational constants (GHZ):           1.9359851           0.4899163           0.4829046
 Standard basis: 6-31+G(d,p) (6D, 7F)
 There are   238 symmetry adapted cartesian basis functions of A   symmetry.
 There are   238 symmetry adapted basis functions of A   symmetry.
   238 basis functions,   424 primitive gaussians,   238 cartesian basis functions
    50 alpha electrons       50 beta electrons
       nuclear repulsion energy       855.4185134499 Hartrees.
 NAtoms=   18 NActive=   18 NUniq=   18 SFac= 1.00D+00 NAtFMM=   60 NAOKFM=F Big=F
 Integral buffers will be    131072 words long.
 Raffenetti 2 integral format.
 Two-electron integral symmetry is turned on.
 Nuclear repulsion after empirical dispersion term =      855.4023219629 Hartrees.
 One-electron integrals computed using PRISM.
 NBasis=   238 RedAO= T EigKep=  2.73D-04  NBF=   238
 NBsUse=   238 1.00D-06 EigRej= -1.00D+00 NBFU=   238
 Initial guess from the checkpoint file:  "/localscratch/sarashs.36560086.0/Gau-266981.chk"
 B after Tr=     0.000000   -0.000000    0.000000
         Rot=    0.999927    0.010161   -0.005212    0.004070 Ang=   1.39 deg.
 ExpMin= 3.31D-02 ExpMax= 1.61D+04 ExpMxC= 2.43D+03 IAcc=3 IRadAn=         5 AccDes= 0.00D+00
 Harris functional with IExCor=  402 and IRadAn=       5 diagonalized for initial guess.
 HarFok:  IExCor=  402 AccDes= 0.00D+00 IRadAn=         5 IDoV= 1 UseB2=F ITyADJ=14
 ICtDFT=  3500011 ScaDFX=  1.000000  1.000000  1.000000  1.000000
 FoFCou: FMM=F IPFlag=           0 FMFlag=      100000 FMFlg1=           0
         NFxFlg=           0 DoJE=T BraDBF=F KetDBF=T FulRan=T
         wScrn=  0.000000 ICntrl=       500 IOpCl=  0 I1Cent=   200000004 NGrid=           0
         NMat0=    1 NMatS0=      1 NMatT0=    0 NMatD0=    1 NMtDS0=    0 NMtDT0=    0
 Petite list used in FoFCou.
 Requested convergence on RMS density matrix=1.00D-08 within 128 cycles.
 Requested convergence on MAX density matrix=1.00D-06.
 Requested convergence on             energy=1.00D-06.
 No special actions if energy rises.
 SCF Done:  E(RB3LYP) =  -1186.05548000     A.U. after   11 cycles
            NFock= 11  Conv=0.49D-08     -V/T= 2.0066
 Calling FoFJK, ICntrl=      2127 FMM=F ISym2X=0 I1Cent= 0 IOpClX= 0 NMat=1 NMatS=1 NMatT=0.
 ***** Axes restored to original set *****
 -------------------------------------------------------------------
 Center     Atomic                   Forces (Hartrees/Bohr)
 Number     Number              X              Y              Z
 -------------------------------------------------------------------
      1       14          -0.010149663    0.008858431    0.006514571
      2        8          -0.001945746   -0.000641044    0.003801202
      3        8           0.001259118   -0.002189752    0.002826219
      4        8           0.002070297    0.001294617   -0.003011185
      5        8           0.000656088    0.002374701    0.001613664
      6        1           0.001996418   -0.002335424   -0.001498368
      7        1          -0.000211031   -0.000865029   -0.000094810
      8        1          -0.001424958    0.000568222   -0.000639794
      9       14           0.015010467   -0.015034254   -0.001513396
     10        8          -0.005240475    0.000745348    0.000577425
     11        8           0.000398760    0.003093857   -0.005612180
     12        8          -0.000980854    0.001701838    0.000482413
     13        8          -0.004165616    0.006042048    0.001350392
     14        1           0.004529419   -0.005471746   -0.006270257
     15        1           0.000484241   -0.000719533    0.000043511
     16        1           0.000096555   -0.000383418   -0.000861177
     17        1          -0.000402140    0.002520099    0.003348862
     18        1          -0.001980880    0.000441038   -0.001057094
 -------------------------------------------------------------------
 Cartesian Forces:  Max     0.015034254 RMS     0.004288802

 GradGradGradGradGradGradGradGradGradGradGradGradGradGradGradGradGradGrad
 Berny optimization.
 Using GEDIIS/GDIIS optimizer.
 FormGI is forming the generalized inverse of G from B-inverse, IUseBI=4.
 Internal  Forces:  Max     0.008136520 RMS     0.002305933
 Search for a local minimum.
 Step number   3 out of a maximum of   81
 All quantities printed in internal units (Hartrees-Bohrs-Radians)
 Mixed Optimization -- RFO/linear search
 Update second derivatives using D2CorX and points    1    2    3
 DE= -4.53D-03 DEPred=-4.99D-03 R= 9.07D-01
 TightC=F SS=  1.41D+00  RLast= 3.39D-01 DXNew= 8.4853D-01 1.0163D+00
 Trust test= 9.07D-01 RLast= 3.39D-01 DXMaxT set to 8.49D-01
 ITU=  1  1  0
 Use linear search instead of GDIIS.
     Eigenvalues ---    0.00675   0.03416   0.03803   0.03836   0.03844
     Eigenvalues ---    0.03851   0.03865   0.03875   0.03907   0.04377
     Eigenvalues ---    0.05939   0.09701   0.10633   0.11399   0.11739
     Eigenvalues ---    0.11921   0.13206   0.13478   0.13686   0.15259
     Eigenvalues ---    0.16000   0.16000   0.16000   0.16000   0.16243
     Eigenvalues ---    0.17650   0.19906   0.20676   0.20936   0.22830
     Eigenvalues ---    0.23295   0.40842   0.44050   0.44551   0.44647
     Eigenvalues ---    0.44779   0.44959   0.45208   0.46275   0.52610
     Eigenvalues ---    0.52996   0.53234   0.53370   0.53448   0.53543
     Eigenvalues ---    0.53797   0.543561000.000001000.000001000.00000
     Eigenvalues --- 1000.000001000.000001000.000001000.000001000.00000
     Eigenvalues --- 1000.000001000.000001000.000001000.000001000.00000
     Eigenvalues --- 1000.000001000.000001000.000001000.000001000.00000
     Eigenvalues --- 1000.000001000.000001000.000001000.000001000.00000
     Eigenvalues --- 1000.00000
 RFO step:  Lambda=-2.13990768D-03 EMin= 6.74918741D-03
 Quartic linear search produced a step of -0.01428.
 Iteration  1 RMS(Cart)=  0.07384320 RMS(Int)=  0.00145089
 Iteration  2 RMS(Cart)=  0.00221062 RMS(Int)=  0.00018636
 Iteration  3 RMS(Cart)=  0.00000265 RMS(Int)=  0.00018636
 Iteration  4 RMS(Cart)=  0.00000000 RMS(Int)=  0.00018636
 Iteration  1 RMS(Cart)=  0.00011296 RMS(Int)=  0.00001172
 Iteration  2 RMS(Cart)=  0.00000734 RMS(Int)=  0.00001207
 Iteration  3 RMS(Cart)=  0.00000048 RMS(Int)=  0.00001212
 Variable       Old X    -DE/DX   Delta X   Delta X   Delta X     New X
                                 (Linear)    (Quad)   (Total)
    R1        3.16565  -0.00054  -0.00026   0.00388   0.00334   3.16899
    R2        3.12168  -0.00214  -0.00019  -0.00084  -0.00103   3.12065
    R3        3.12466  -0.00364  -0.00020  -0.00395  -0.00415   3.12051
    R4        3.08659  -0.00078   0.00010  -0.00353  -0.00343   3.08316
    R5        7.55890   0.00814  -0.00000   0.00000   0.00000   7.55890
    R6        3.46848   0.00746  -0.00122   0.11536   0.11387   3.58235
    R7        1.82627  -0.00104   0.00009  -0.00367  -0.00358   1.82269
    R8        1.81941   0.00141   0.00007   0.00124   0.00131   1.82072
    R9        1.82129   0.00086   0.00007   0.00012   0.00020   1.82148
   R10        1.83440   0.00282   0.00000   0.00509   0.00509   1.83949
   R11        3.13528  -0.00478  -0.00021  -0.00611  -0.00632   3.12897
   R12        3.12749  -0.00339  -0.00016  -0.00403  -0.00419   3.12330
   R13        3.11911  -0.00113  -0.00016   0.00076   0.00060   3.11970
   R14        3.12546   0.00290   0.00001   0.00617   0.00593   3.13139
   R15        1.81884   0.00066   0.00009  -0.00050  -0.00041   1.81843
   R16        1.81687   0.00413   0.00007   0.00600   0.00608   1.82295
   R17        1.82008  -0.00011   0.00006  -0.00133  -0.00127   1.81881
   R18        1.85402  -0.00264   0.00016  -0.00785  -0.00796   1.84606
    A1        1.79976   0.00083   0.00071  -0.01005  -0.00928   1.79049
    A2        1.96064   0.00161  -0.00032   0.01318   0.01286   1.97351
    A3        1.91506  -0.00358  -0.00029  -0.01505  -0.01529   1.89977
    A4        1.89413  -0.00121   0.00017  -0.00553  -0.00535   1.88878
    A5        2.01861   0.00181  -0.00049   0.02003   0.01949   2.03811
    A6        1.87716   0.00064   0.00020  -0.00171  -0.00148   1.87567
    A7        1.74333   0.00310   0.00074   0.00346   0.00371   1.74704
    A8        2.05163  -0.00280  -0.00056  -0.00586  -0.00610   2.04553
    A9        2.15110  -0.00010  -0.00045   0.01040   0.01010   2.16120
   A10        2.03836   0.00064  -0.00033   0.01037   0.01003   2.04839
   A11        2.03283  -0.00043  -0.00033   0.00383   0.00350   2.03633
   A12        2.00892   0.00190   0.00004   0.01092   0.01096   2.01988
   A13        1.91936   0.00033   0.00005  -0.00341  -0.00352   1.91584
   A14        1.87256   0.00037   0.00020   0.00719   0.00737   1.87993
   A15        1.91117   0.00045  -0.00001  -0.00255  -0.00272   1.90846
   A16        1.86944   0.00278   0.00024   0.01315   0.01344   1.88288
   A17        2.00593  -0.00558  -0.00068  -0.02113  -0.02189   1.98404
   A18        1.88006   0.00209   0.00024   0.00928   0.00958   1.88964
   A19        2.04038  -0.00110  -0.00041   0.00148   0.00108   2.04146
   A20        2.00116   0.00087  -0.00026   0.01008   0.00982   2.01098
   A21        2.05644   0.00128  -0.00055   0.01837   0.01782   2.07426
   A22        1.91548  -0.00204   0.00176  -0.04619  -0.04508   1.87040
   A23        2.36849  -0.00069   0.00034  -0.00912  -0.00955   2.35894
    D1       -1.53348  -0.00114   0.00098  -0.03496  -0.03404  -1.56752
    D2        0.83914  -0.00060   0.00060  -0.02205  -0.02150   0.81763
    D3        2.71386  -0.00095   0.00052  -0.02881  -0.02831   2.68555
    D4       -1.19671  -0.00041   0.00014  -0.01591  -0.01577  -1.21248
    D5        0.62673  -0.00038   0.00066  -0.02499  -0.02428   0.60245
    D6        2.99935   0.00016   0.00027  -0.01209  -0.01174   2.98761
    D7       -2.69704  -0.00197  -0.00001  -0.01897  -0.01903  -2.71607
    D8       -0.61455  -0.00024   0.00008  -0.01152  -0.01144  -0.62599
    D9        1.49590   0.00091   0.00014  -0.00436  -0.00417   1.49173
   D10       -1.78689   0.00142   0.00044   0.00113   0.00156  -1.78533
   D11        2.51783   0.00026  -0.00035   0.00940   0.00904   2.52687
   D12        0.32220  -0.00161   0.00001  -0.01064  -0.01060   0.31160
   D13       -0.61386   0.00109  -0.00041   0.03031   0.02997  -0.58389
   D14        1.41222   0.00075  -0.00002   0.01948   0.01938   1.43160
   D15       -2.75138   0.00088   0.00003   0.02435   0.02439  -2.72699
   D16       -1.30524  -0.00024   0.00215   0.07898   0.08156  -1.22369
   D17        2.66532   0.00067   0.00257   0.07520   0.07800   2.74332
   D18        2.20279   0.00359   0.00039   0.02092   0.02131   2.22410
   D19        0.17531  -0.00009  -0.00004   0.00309   0.00305   0.17836
   D20       -1.86046  -0.00301  -0.00044  -0.01053  -0.01098  -1.87144
   D21        1.15999  -0.00219  -0.00020  -0.02219  -0.02232   1.13767
   D22       -3.09375  -0.00003   0.00021  -0.00812  -0.00787  -3.10162
   D23       -1.00595   0.00115   0.00026  -0.00011   0.00003  -1.00593
   D24        3.00370  -0.00020   0.00009  -0.00733  -0.00723   2.99647
   D25        0.94350  -0.00222  -0.00021  -0.01385  -0.01406   0.92943
   D26       -1.22335   0.00161   0.00032  -0.00171  -0.00140  -1.22476
   D27       -1.03584   0.00086   0.00058  -0.01462  -0.01411  -1.04995
   D28        1.13442  -0.00251   0.00016  -0.03699  -0.03673   1.09770
   D29       -3.06686  -0.00099   0.00020  -0.02694  -0.02677  -3.09363
   D30       -0.87474  -0.00163   0.00018  -0.07767  -0.07671  -0.95145
         Item               Value     Threshold  Converged?
 Maximum Force            0.007101     0.000450     NO 
 RMS     Force            0.002093     0.000300     NO 
 Maximum Displacement     0.264272     0.001800     NO 
 RMS     Displacement     0.073388     0.001200     NO 
 Predicted change in Energy=-1.117692D-03
 GradGradGradGradGradGradGradGradGradGradGradGradGradGradGradGradGradGrad

                          Input orientation:                          
 ---------------------------------------------------------------------
 Center     Atomic      Atomic             Coordinates (Angstroms)
 Number     Number       Type             X           Y           Z
 ---------------------------------------------------------------------
      1         14           0       -6.244098   -0.436421   -0.315520
      2          8           0       -4.593505   -0.470804   -0.021326
      3          8           0       -6.500354    1.137343   -0.745219
      4          8           0       -7.147859   -0.758364    1.028494
      5          8           0       -6.604381   -1.570967   -1.431279
      6          1           0       -5.922460   -1.730318   -2.107390
      7          1           0       -7.522077   -1.644049    1.096322
      8          1           0       -7.386650    1.492752   -0.616931
      9         14           0       -3.346302   -2.955023   -1.437759
     10          8           0       -1.786072   -2.592176   -1.018685
     11          8           0       -4.217903   -3.323289   -0.082631
     12          8           0       -3.309298   -4.298006   -2.397143
     13          8           0       -3.982988   -1.704488   -2.319034
     14          1           0       -3.956470   -0.909390   -1.752078
     15          1           0       -4.140075   -4.721741   -2.635077
     16          1           0       -1.088473   -3.069892   -1.478150
     17          1           0       -4.336039   -2.596258    0.540299
[...]

                          Input orientation:                          
 ---------------------------------------------------------------------
 Center     Atomic      Atomic             Coordinates (Angstroms)
 Number     Number       Type             X           Y           Z
 ---------------------------------------------------------------------
      1         14           0       -6.420442   -0.576341   -0.496582
      2          8           0       -5.034106    0.038611    0.202078
      3          8           0       -7.579329    0.580949   -0.377017
      4          8           0       -6.991522   -1.926519    0.246799
      5          8           0       -5.971381   -0.986569   -2.031410
      6          1           0       -5.103982   -0.696102   -2.350974
      7          1           0       -6.441202   -2.718806    0.146036
      8          1           0       -8.492612    0.281808   -0.301029
      9         14           0       -3.166638   -2.828391   -1.080562
     10          8           0       -2.002622   -3.985499   -1.087439
     11          8           0       -2.928582   -1.981841    0.299259
     12          8           0       -4.686098   -3.493198   -1.181719
     13          8           0       -3.120233   -1.817751   -2.414924
     14          1           0       -2.278995   -1.382307   -2.596397
     15          1           0       -5.233558   -3.093967   -1.876011
     16          1           0       -2.179356   -4.776654   -1.607752
     17          1           0       -3.516631   -1.213501    0.409767
     18          1           0       -5.165389    0.662169    0.926806
 ---------------------------------------------------------------------
                    Distance matrix (angstroms):
                    1          2          3          4          5
     1  Si   0.000000
     2  O    1.669796   0.000000
     3  O    1.642144   2.666016   0.000000
     4  O    1.643693   2.774025   2.649917   0.000000
     5  O    1.650951   2.630200   2.789199   2.667289   0.000000
     6  H    2.277319   2.657586   3.413900   3.438773   0.968955
     7  H    2.236861   3.096193   3.529490   0.969909   2.821817
     8  H    2.251344   3.503359   0.964025   2.725820   3.310529
     9  Si   4.000000   3.654080   5.620535   4.147891   3.487550
    10  O    5.611470   5.200597   7.242707   5.559560   5.063172
    11  O    3.847321   2.919743   5.353008   4.063656   3.959951
    12  O    3.461996   3.809157   5.061325   3.132112   2.942298
    13  O    4.014040   3.735999   5.458055   4.699306   2.994494
    14  H    4.712790   4.176255   6.072361   5.530627   3.756266
    15  H    3.106438   3.764476   4.610275   2.993274   2.238226
    16  H    6.071585   5.883185   7.705734   5.892332   5.378075
    17  H    3.107984   1.978295   4.510499   3.551032   3.469387
    18  H    2.266076   0.965034   2.744751   3.240135   3.481236
                    6          7          8          9         10
     6  H    0.000000
     7  H    3.480597   0.000000
     8  H    4.079386   3.662217   0.000000
     9  Si   3.148635   3.498475   6.216671   0.000000
    10  O    4.694155   4.777757   7.806940   1.641304   0.000000
    11  O    3.661861   3.592367   6.036794   1.636222   2.606717
    12  O    3.060316   2.333025   5.432847   1.661614   2.729889
    13  O    2.279791   4.289436   6.143220   1.674535   2.776761
    14  H    2.917475   5.160537   6.829863   2.275263   3.021580
    15  H    2.447884   2.384916   4.949530   2.230567   3.443200
    16  H    5.075108   5.047162   8.194679   2.246861   0.963269
    17  H    3.226310   3.299790   5.244194   2.225184   3.495399
    18  H    3.548593   3.697065   3.566885   4.495391   5.971690
                   11         12         13         14         15
    11  O    0.000000
    12  O    2.750702   0.000000
    13  O    2.725884   2.603815   0.000000
    14  H    3.027577   3.500189   0.964482   0.000000
    15  H    3.358801   0.970123   2.526915   3.489725   0.000000
    16  H    3.465402   2.848249   3.208097   3.536798   3.497364
    17  H    0.973838   3.016206   2.915670   3.255343   3.421808
    18  H    3.519646   4.684300   4.636790   4.992405   4.687108
                   16         17         18
    16  H    0.000000
    17  H    4.307522   0.000000
    18  H    6.702326   2.550269   0.000000
 Stoichiometry    H8O8Si2
 Framework group  C1[X(H8O8Si2)]
 Deg. of freedom    48
 Full point group                 C1      NOp   1
 Largest Abelian subgroup         C1      NOp   1
 Largest concise Abelian subgroup C1      NOp   1
                         Standard orientation:                         
 ---------------------------------------------------------------------
 Center     Atomic      Atomic             Coordinates (Angstroms)
 Number     Number       Type             X           Y           Z
 ---------------------------------------------------------------------
      1         14           0       -1.997438   -0.022012   -0.016056
      2          8           0       -1.335959    1.468151    0.344612
      3          8           0       -3.607705    0.203829   -0.245561
      4          8           0       -1.819858   -1.131207    1.183894
      5          8           0       -1.151926   -0.549918   -1.332135
      6          1           0       -0.561305    0.073520   -1.780872
      7          1           0       -0.911146   -1.433820    1.336834
      8          1           0       -4.190801   -0.529653   -0.018959
      9         14           0        2.001930    0.011435    0.046660
     10          8           0        3.597843   -0.175768    0.381172
     11          8           0        1.491974    1.218340    1.026736
     12          8           0        1.163210   -1.405556    0.269473
     13          8           0        1.687560    0.373905   -1.557664
     14          1           0        2.152703    1.133977   -1.926659
     15          1           0        0.608284   -1.645692   -0.489164
     16          1           0        3.985840   -1.034611    0.181841
     17          1           0        0.564628    1.484068    0.893396
     18          1           0       -1.912197    2.086063    0.810899
 ---------------------------------------------------------------------
 Rotational constants (GHZ):           1.9746589           0.4995002           0.4949354

 **********************************************************************

            Population analysis using the SCF Density.

 **********************************************************************

 Orbital symmetries:
       Occupied  (A) (A) (A) (A) (A) (A) (A) (A) (A) (A) (A) (A)
                 (A) (A) (A) (A) (A) (A) (A) (A) (A) (A) (A) (A)
                 (A) (A) (A) (A) (A) (A) (A) (A) (A) (A) (A) (A)
                 (A) (A) (A) (A) (A) (A) (A) (A) (A) (A) (A) (A)
                 (A) (A)
       Virtual   (A) (A) (A) (A) (A) (A) (A) (A) (A) (A) (A) (A)
                 (A) (A) (A) (A) (A) (A) (A) (A) (A) (A) (A) (A)
                 (A) (A) (A) (A) (A) (A) (A) (A) (A) (A) (A) (A)
                 (A) (A) (A) (A) (A) (A) (A) (A) (A) (A) (A) (A)
                 (A) (A) (A) (A) (A) (A) (A) (A) (A) (A) (A) (A)
                 (A) (A) (A) (A) (A) (A) (A) (A) (A) (A) (A) (A)
                 (A) (A) (A) (A) (A) (A) (A) (A) (A) (A) (A) (A)
                 (A) (A) (A) (A) (A) (A) (A) (A) (A) (A) (A) (A)
                 (A) (A) (A) (A) (A) (A) (A) (A) (A) (A) (A) (A)
                 (A) (A) (A) (A) (A) (A) (A) (A) (A) (A) (A) (A)
                 (A) (A) (A) (A) (A) (A) (A) (A) (A) (A) (A) (A)
                 (A) (A) (A) (A) (A) (A) (A) (A) (A) (A) (A) (A)
                 (A) (A) (A) (A) (A) (A) (A) (A) (A) (A) (A) (A)
                 (A) (A) (A) (A) (A) (A) (A) (A) (A) (A) (A) (A)
                 (A) (A) (A) (A) (A) (A) (A) (A) (A) (A) (A) (A)
                 (A) (A) (A) (A) (A) (A) (A) (A)
 The electronic state is 1-A.
 Alpha  occ. eigenvalues --  -66.23338 -66.22402 -19.19063 -19.18116 -19.17980
 Alpha  occ. eigenvalues --  -19.17553 -19.17281 -19.17232 -19.17036 -19.15686
 Alpha  occ. eigenvalues --   -5.36663  -5.35744  -3.72691  -3.72627  -3.72601
 Alpha  occ. eigenvalues --   -3.71764  -3.71752  -3.71642  -1.05904  -1.04846
 Alpha  occ. eigenvalues --   -1.02496  -1.02024  -1.01535  -1.01097  -1.00932
 Alpha  occ. eigenvalues --   -1.00053  -0.60841  -0.59936  -0.55546  -0.54774
 Alpha  occ. eigenvalues --   -0.54299  -0.53461  -0.53279  -0.50139  -0.42359
 Alpha  occ. eigenvalues --   -0.42010  -0.41755  -0.40217  -0.39370  -0.39204
 Alpha  occ. eigenvalues --   -0.38985  -0.37372  -0.37202  -0.36372  -0.36132
 Alpha  occ. eigenvalues --   -0.34623  -0.34356  -0.33809  -0.32850  -0.31804
 Alpha virt. eigenvalues --   -0.03586  -0.01332   0.00664   0.01287   0.02498
 Alpha virt. eigenvalues --    0.03393   0.04837   0.06819   0.08052   0.09936
 Alpha virt. eigenvalues --    0.10622   0.11031   0.11257   0.12511   0.13021
 Alpha virt. eigenvalues --    0.13574   0.14079   0.14813   0.15317   0.15475
 Alpha virt. eigenvalues --    0.15769   0.16061   0.16940   0.17480   0.18129
 Alpha virt. eigenvalues --    0.18677   0.19736   0.20221   0.20457   0.21088
 Alpha virt. eigenvalues --    0.21499   0.22587   0.22981   0.23897   0.24017
 Alpha virt. eigenvalues --    0.25722   0.25755   0.25937   0.27076   0.27418
 Alpha virt. eigenvalues --    0.27786   0.28390   0.29259   0.30615   0.31586
 Alpha virt. eigenvalues --    0.32323   0.32826   0.33887   0.35222   0.37135
 Alpha virt. eigenvalues --    0.37465   0.38931   0.41355   0.42051   0.44270
 Alpha virt. eigenvalues --    0.45277   0.46640   0.47175   0.48023   0.48570
 Alpha virt. eigenvalues --    0.50035   0.57991   0.60671   0.61523   0.62272
 Alpha virt. eigenvalues --    0.65316   0.69188   0.71131   0.92255   0.92943
 Alpha virt. eigenvalues --    0.94106   0.94563   0.95804   0.96972   0.98291
 Alpha virt. eigenvalues --    0.99357   1.01249   1.03777   1.04957   1.06826
 Alpha virt. eigenvalues --    1.10364   1.11982   1.15336   1.16473   1.16940
 Alpha virt. eigenvalues --    1.17823   1.18480   1.19178   1.19859   1.20284
 Alpha virt. eigenvalues --    1.20667   1.21571   1.22318   1.22645   1.23980
 Alpha virt. eigenvalues --    1.25298   1.25930   1.26578   1.28818   1.29170
 Alpha virt. eigenvalues --    1.31413   1.32629   1.33801   1.35402   1.36143
 Alpha virt. eigenvalues --    1.38425   1.47609   1.50338   1.51073   1.54502
 Alpha virt. eigenvalues --    1.55543   1.56688   1.58008   1.59402   1.60421
 Alpha virt. eigenvalues --    1.61795   1.62571   1.65013   1.66546   1.67751
 Alpha virt. eigenvalues --    1.69909   1.70874   1.72557   1.75642   1.76630
 Alpha virt. eigenvalues --    1.77501   1.79034   1.83796   1.83941   1.86700
 Alpha virt. eigenvalues --    1.88872   1.91001   1.97574   1.99669   2.03163
 Alpha virt. eigenvalues --    2.03815   2.12776   2.16134   2.34638   2.35735
 Alpha virt. eigenvalues --    2.37129   2.37838   2.39333   2.40486   2.41178
 Alpha virt. eigenvalues --    2.44354   2.46944   2.48780   2.56837   2.58788
 Alpha virt. eigenvalues --    2.59672   2.59881   2.60489   2.61201   2.61671
 Alpha virt. eigenvalues --    2.62951   2.63585   2.65346   2.65402   2.65621
 Alpha virt. eigenvalues --    2.68597   2.69634   2.71603   2.74357   2.78423
 Alpha virt. eigenvalues --    2.78741   2.80368   2.81109   2.83812   2.84412
 Alpha virt. eigenvalues --    2.99303   3.02919   3.40870   3.42358   3.43898
 Alpha virt. eigenvalues --    3.44491   3.49521   3.51518   3.53632   3.58798
 Alpha virt. eigenvalues --    4.15745   4.18140   4.21738   4.24712   4.27733
 Alpha virt. eigenvalues --    4.32235   4.33520   4.35387
          Condensed to atoms (all electrons):
               1          2          3          4          5          6
     1  Si  11.713438  -0.096615   0.039363   0.129319  -0.020441   0.024605
     2  O   -0.096615   8.758525   0.011537   0.044134   0.096448   0.004926
     3  O    0.039363   0.011537   8.554864  -0.023148  -0.005519  -0.003541
     4  O    0.129319   0.044134  -0.023148   8.499239   0.041185   0.001530
     5  O   -0.020441   0.096448  -0.005519   0.041185   8.551990   0.263004
     6  H    0.024605   0.004926  -0.003541   0.001530   0.263004   0.307972
     7  H    0.029892  -0.008163   0.007804   0.231004  -0.003396   0.000056
     8  H    0.031690   0.004098   0.237280  -0.000918  -0.004202   0.000002
     9  Si  -0.001145   0.021397  -0.001016  -0.015430   0.025753   0.000301
    10  O   -0.001213  -0.000125  -0.000072   0.001305   0.003168  -0.000221
    11  O    0.000017  -0.020266   0.000258   0.002693  -0.027547   0.002067
    12  O    0.013697  -0.007177   0.003896   0.006627   0.007307  -0.005606
    13  O    0.009741  -0.009992   0.001396  -0.004879  -0.013795   0.001500
    14  H   -0.001195  -0.000270   0.000005   0.000013   0.001369  -0.000525
    15  H   -0.003833  -0.000686  -0.000491   0.000040   0.008491  -0.001906
    16  H    0.000117   0.000002   0.000000  -0.000004   0.000010  -0.000000
    17  H    0.011541   0.004239   0.000314   0.000610  -0.003320  -0.000114
    18  H    0.019621   0.235145   0.003615  -0.006944   0.006245   0.000039
               7          8          9         10         11         12
     1  Si   0.029892   0.031690  -0.001145  -0.001213   0.000017   0.013697
     2  O   -0.008163   0.004098   0.021397  -0.000125  -0.020266  -0.007177
     3  O    0.007804   0.237280  -0.001016  -0.000072   0.000258   0.003896
     4  O    0.231004  -0.000918  -0.015430   0.001305   0.002693   0.006627
     5  O   -0.003396  -0.004202   0.025753   0.003168  -0.027547   0.007307
     6  H    0.000056   0.000002   0.000301  -0.000221   0.002067  -0.005606
     7  H    0.319508   0.000067  -0.001350  -0.000222  -0.000204   0.017129
     8  H    0.000067   0.352560   0.000118   0.000000   0.000001  -0.000039
     9  Si  -0.001350   0.000118  11.714121   0.024385   0.054244  -0.027028
    10  O   -0.000222   0.000000   0.024385   8.576840   0.058142  -0.026000
    11  O   -0.000204   0.000001   0.054244   0.058142   8.515744   0.043259
    12  O    0.017129  -0.000039  -0.027028  -0.026000   0.043259   8.553729
    13  O    0.000363  -0.000012   0.051973  -0.066498   0.005987   0.146355
    14  H   -0.000003  -0.000000   0.020882  -0.005111  -0.006973   0.006756
    15  H   -0.002360   0.000001   0.030701   0.001991  -0.002563   0.248834
    16  H    0.000002  -0.000000   0.039448   0.229314   0.003472  -0.003553
    17  H    0.000138  -0.000001   0.039454   0.003454   0.220350  -0.005799
    18  H    0.000121   0.000061  -0.001364  -0.000036   0.001663  -0.000024
              13         14         15         16         17         18
     1  Si   0.009741  -0.001195  -0.003833   0.000117   0.011541   0.019621
     2  O   -0.009992  -0.000270  -0.000686   0.000002   0.004239   0.235145
     3  O    0.001396   0.000005  -0.000491   0.000000   0.000314   0.003615
     4  O   -0.004879   0.000013   0.000040  -0.000004   0.000610  -0.006944
     5  O   -0.013795   0.001369   0.008491   0.000010  -0.003320   0.006245
     6  H    0.001500  -0.000525  -0.001906  -0.000000  -0.000114   0.000039
     7  H    0.000363  -0.000003  -0.002360   0.000002   0.000138   0.000121
     8  H   -0.000012  -0.000000   0.000001  -0.000000  -0.000001   0.000061
     9  Si   0.051973   0.020882   0.030701   0.039448   0.039454  -0.001364
    10  O   -0.066498  -0.005111   0.001991   0.229314   0.003454  -0.000036
    11  O    0.005987  -0.006973  -0.002563   0.003472   0.220350   0.001663
    12  O    0.146355   0.006756   0.248834  -0.003553  -0.005799  -0.000024
    13  O    8.621187   0.253544  -0.002994  -0.005473  -0.005259   0.000282
    14  H    0.253544   0.347788   0.000049   0.000074   0.000116  -0.000001
    15  H   -0.002994   0.000049   0.314422   0.000121   0.000191  -0.000004
    16  H   -0.005473   0.000074   0.000121   0.366349  -0.000068   0.000000
    17  H   -0.005259   0.000116   0.000191  -0.000068   0.319703  -0.000764
    18  H    0.000282  -0.000001  -0.000004   0.000000  -0.000764   0.339949
 Mulliken charges:
               1
     1  Si   2.101401
     2  O   -1.037156
     3  O   -0.826544
     4  O   -0.906377
     5  O   -0.926750
     6  H    0.405913
     7  H    0.409615
     8  H    0.379295
     9  Si   2.024556
    10  O   -0.799100
    11  O   -0.850344
    12  O   -0.972365
    13  O   -0.983426
    14  H    0.383483
    15  H    0.409996
    16  H    0.370190
    17  H    0.415217
    18  H    0.402397
 Sum of Mulliken charges =  -0.00000
 Mulliken charges with hydrogens summed into heavy atoms:
               1
     1  Si   2.101401
     2  O   -0.634759
     3  O   -0.447249
     4  O   -0.496762
     5  O   -0.520837
     9  Si   2.024556
    10  O   -0.428910
    11  O   -0.435127
    12  O   -0.562369
    13  O   -0.599943
 Electronic spatial extent (au):  <R**2>=           2320.3634
 Charge=             -0.0000 electrons
 Dipole moment (field-independent basis, Debye):
    X=             -0.7684    Y=              0.2025    Z=             -1.6427  Tot=              1.8248
 Quadrupole moment (field-independent basis, Debye-Ang):
   XX=            -67.3174   YY=            -67.7521   ZZ=            -74.5210
   XY=             -4.6178   XZ=             -9.2245   YZ=             -1.4655
 Traceless Quadrupole moment (field-independent basis, Debye-Ang):
   XX=              2.5461   YY=              2.1114   ZZ=             -4.6575
   XY=             -4.6178   XZ=             -9.2245   YZ=             -1.4655
 Octapole moment (field-independent basis, Debye-Ang**2):
  XXX=            -16.8880  YYY=              9.5161  ZZZ=             -7.6404  XYY=             -0.8836
  XXY=            -32.5817  XXZ=            -10.9921  XZZ=              4.4789  YZZ=             10.1007
  YYZ=             -3.1285  XYZ=            -17.0914
 Hexadecapole moment (field-independent basis, Debye-Ang**3):
 XXXX=          -1864.7133 YYYY=           -347.7394 ZZZZ=           -349.5687 XXXY=            -18.8614
 XXXZ=            -88.2060 YYYX=            -30.8635 YYYZ=             11.1316 ZZZX=            -17.4487
 ZZZY=            -21.7543 XXYY=           -355.1797 XXZZ=           -425.6835 YYZZ=           -109.8345
 XXYZ=             -3.9884 YYXZ=            -28.5904 ZZXY=             -6.8408
 N-N= 8.563748934548D+02 E-N=-4.522243024820D+03  KE= 1.178197485357D+03
 1\1\GINC-GRA1309\FOpt\RB3LYP\6-31+G(d,p)\H8O8Si2\SARASHS\29-Jul-2020\0
 \\#n B3LYP/6-31+G(d,p) EmpiricalDispersion=GD3 Opt=modredundant\\Title
 \\0,1\Si,-6.4204422582,-0.5763411754,-0.4965820932\O,-5.0341061461,0.0
 386106872,0.2020784627\O,-7.5793294624,0.5809490087,-0.3770166602\O,-6
 .9915222864,-1.9265189898,0.2467985447\O,-5.9713812756,-0.9865692467,-
 2.0314102828\H,-5.1039820252,-0.6961018858,-2.3509740993\H,-6.44120235
 32,-2.7188062235,0.1460364448\H,-8.4926119518,0.2818077535,-0.30102938
 93\Si,-3.1666380938,-2.8283907236,-1.080562169\O,-2.0026222927,-3.9854
 989128,-1.0874385694\O,-2.928581664,-1.9818408506,0.2992588025\O,-4.68
 60984978,-3.4931980786,-1.1817190494\O,-3.1202328859,-1.8177507562,-2.
 4149241223\H,-2.2789950514,-1.3823069982,-2.5963965069\H,-5.2335584798
 ,-3.093966789,-1.876010974\H,-2.1793558544,-4.776654162,-1.6077516623\
 H,-3.5166306606,-1.2135011823,0.4097670169\H,-5.1653887607,0.662168525
 2,0.9268063064\\Version=ES64L-G16RevB.01\State=1-A\HF=-1186.070396\RMS
 D=9.206e-09\RMSF=7.092e-04\Dipole=-0.1623085,0.45656,-0.5297386\Quadru
 pole=-0.7952351,1.809868,-1.0146329,0.8071358,-6.1587213,5.2894542\PG=
 C01 [X(H8O8Si2)]\\@


 NATURE WILL TELL YOU A DIRECT LIE IF SHE CAN.

                                -- CHARLES DARWIN
 Job cpu time:       0 days  4 hours 30 minutes  3.4 seconds.
 Elapsed time:       0 days  0 hours 17 minutes 57.5 seconds.
 File lengths (MBytes):  RWF=     40 Int=      0 D2E=      0 Chk=      5 Scr=      1
 Normal termination of Gaussian 16 at Wed Jul 29 17:30:25 2020.
