 Entering Gaussian System, Link 0=g16
 Initial command:
 /opt/software/gaussian/g16.b01/l1.exe "/localscratch/sarashs.36560095.0/Gau-7022.inp" -scrdir="/localscratch/sarashs.36560095.0/"
 Entering Link 1 = /opt/software/gaussian/g16.b01/l1.exe PID=      7023.
  
 Copyright (c) 1988-2017, Gaussian, Inc.  All Rights Reserved.
  
 This is part of the Gaussian(R) 16 program.  It is based on
 the Gaussian(R) 09 system (copyright 2009, Gaussian, Inc.),
 the Gaussian(R) 03 system (copyright 2003, Gaussian, Inc.),
 the Gaussian(R) 98 system (copyright 1998, Gaussian, Inc.),
 the Gaussian(R) 94 system (copyright 1995, Gaussian, Inc.),
 the Gaussian 92(TM) system (copyright 1992, Gaussian, Inc.),
 the Gaussian 90(TM) system (copyright 1990, Gaussian, Inc.),
 the Gaussian 88(TM) system (copyright 1988, Gaussian, Inc.),
 the Gaussian 86(TM) system (copyright 1986, Carnegie Mellon
 University), and the Gaussian 82(TM) system (copyright 1983,
 Carnegie Mellon University). Gaussian is a federally registered
 trademark of Gaussian, Inc.
  
 This software contains proprietary and confidential information,
 including trade secrets, belonging to Gaussian, Inc.
  
 This software is provided under written license and may be
 used, copied, transmitted, or stored only in accord with that
 written license.
  
 The following legend is applicable only to US Government
 contracts under FAR:
  
                    RESTRICTED RIGHTS LEGEND
  
 Use, reproduction and disclosure by the US Government is
 subject to restrictions as set forth in subparagraphs (a)
 and (c) of the Commercial Computer Software - Restricted
 Rights clause in FAR 52.227-19.
  
 Gaussian, Inc.
 340 Quinnipiac St., Bldg. 40, Wallingford CT 06492
  
  
 ---------------------------------------------------------------
 Warning -- This program may not be used in any manner that
 competes with the business of Gaussian, Inc. or will provide
 assistance to any competitor of Gaussian, Inc.  The licensee
 of this program is prohibited from giving any competitor of
 Gaussian, Inc. access to this program.  By using this program,
 the user acknowledges that Gaussian, Inc. is engaged in the
 business of creating and licensing software in the field of
 computational chemistry and represents and warrants to the
 licensee that it is not a competitor of Gaussian, Inc. and that
 it will not use this program in any manner prohibited above.
 ---------------------------------------------------------------
  

 Cite this work as:
 Gaussian 16, Revision B.01,
 M. J. Frisch, G. W. Trucks, H. B. Schlegel, G. E. Scuseria, 
 M. A. Robb, J. R. Cheeseman, G. Scalmani, V. Barone, 
 G. A. Petersson, H. Nakatsuji, X. Li, M. Caricato, A. V. Marenich, 
 J. Bloino, B. G. Janesko, R. Gomperts, B. Mennucci, H. P. Hratchian, 
 J. V. Ortiz, A. F. Izmaylov, J. L. Sonnenberg, D. Williams-Young, 
 F. Ding, F. Lipparini, F. Egidi, J. Goings, B. Peng, A. Petrone, 
 T. Henderson, D. Ranasinghe, V. G. Zakrzewski, J. Gao, N. Rega, 
 G. Zheng, W. Liang, M. Hada, M. Ehara, K. Toyota, R. Fukuda, 
 J. Hasegawa, M. Ishida, T. Nakajima, Y. Honda, O. Kitao, H. Nakai, 
 T. Vreven, K. Throssell, J. A. Montgomery, Jr., J. E. Peralta, 
 F. Ogliaro, M. J. Bearpark, J. J. Heyd, E. N. Brothers, K. N. Kudin, 
 V. N. Staroverov, T. A. Keith, R. Kobayashi, J. Normand, 
 K. Raghavachari, A. P. Rendell, J. C. Burant, S. S. Iyengar, 
 J. Tomasi, M. Cossi, J. M. Millam, M. Klene, C. Adamo, R. Cammi, 
 J. W. Ochterski, R. L. Martin, K. Morokuma, O. Farkas, 
 J. B. Foresman, and D. J. Fox, Gaussian, Inc., Wallingford CT, 2016.
 
 ******************************************
 Gaussian 16:  ES64L-G16RevB.01 20-Dec-2017
                29-Jul-2020 
 ******************************************
 %NProcShared=16
 Will use up to   16 processors via shared memory.
 -------------------------------------------------------------
 #n B3LYP/6-31+G(d,p) EmpiricalDispersion=GD3 Opt=modredundant
 -------------------------------------------------------------
 1/18=120,19=15,26=3,38=1/1,3;
 2/9=110,12=2,17=6,18=5,40=1/2;
 3/5=1,6=6,7=111,11=2,25=1,30=1,71=1,74=-5,124=31/1,2,3;
 4//1;
 5/5=2,38=5/2;
 6/7=2,8=2,9=2,10=2,28=1/1;
 7//1,2,3,16;
 1/18=20,19=15,26=3/3(2);
 2/9=110/2;
 99//99;
 2/9=110/2;
 3/5=1,6=6,7=111,11=2,25=1,30=1,71=1,74=-5,124=31/1,2,3;
 4/5=5,16=3,69=1/1;
 5/5=2,38=5/2;
 7//1,2,3,16;
 1/18=20,19=15,26=3/3(-5);
 2/9=110/2;
 6/7=2,8=2,9=2,10=2,19=2,28=1/1;
 99/9=1/99;
 -----
 Title
 -----
 Symbolic Z-matrix:
 Charge =  0 Multiplicity = 1
 Si                   -7.15672   0.38831   0.00395 
 O                    -5.5359    0.20996   0.22398 
 O                    -7.46047   1.92332  -0.47004 
 O                    -7.93535   0.08901   1.41112 
 O                    -7.66697  -0.67365  -1.12981 
 H                    -7.06261  -0.78573  -1.88172 
 H                    -8.32066  -0.79945   1.464 
 H                    -8.35054   2.23757  -0.25076 
 Si                   -3.31018  -2.97416  -1.406 
 O                    -1.79319  -2.57507  -0.93631 
 O                    -4.23059  -3.30155  -0.09125 
 O                    -3.24876  -4.28448  -2.38516 
 O                    -3.98384  -1.70788  -2.2029 
 H                    -4.00478  -0.89769  -1.66505 
 H                    -4.11864  -4.64444  -2.60985 
 H                    -1.10594  -3.06413  -1.41428 
 H                    -4.35706  -2.53859   0.49456 
 H                    -5.16189   0.90758   0.78701 
 
 Add virtual bond connecting atoms H14        and O2         Dist= 5.05D+00.
 The following ModRedundant input section has been read:
 B       1       9 F                                                           
 

 GradGradGradGradGradGradGradGradGradGradGradGradGradGradGradGradGradGrad
 Berny optimization.
 Initialization pass.
                           ----------------------------
                           !    Initial Parameters    !
                           ! (Angstroms and Degrees)  !
 --------------------------                            --------------------------
 ! Name  Definition              Value          Derivative Info.                !
 --------------------------------------------------------------------------------
 ! R1    R(1,2)                  1.6454         estimate D2E/DX2                !
 ! R2    R(1,3)                  1.635          estimate D2E/DX2                !
 ! R3    R(1,4)                  1.6358         estimate D2E/DX2                !
 ! R4    R(1,5)                  1.6351         estimate D2E/DX2                !
 ! R5    R(1,9)                  5.3            Frozen                          !
 ! R6    R(2,14)                 2.672          estimate D2E/DX2                !
 ! R7    R(2,18)                 0.9714         estimate D2E/DX2                !
 ! R8    R(3,8)                  0.9691         estimate D2E/DX2                !
 ! R9    R(4,7)                  0.9699         estimate D2E/DX2                !
 ! R10   R(5,6)                  0.9712         estimate D2E/DX2                !
 ! R11   R(9,10)                 1.6374         estimate D2E/DX2                !
 ! R12   R(9,11)                 1.638          estimate D2E/DX2                !
 ! R13   R(9,12)                 1.6369         estimate D2E/DX2                !
 ! R14   R(9,13)                 1.6408         estimate D2E/DX2                !
 ! R15   R(10,16)                0.9695         estimate D2E/DX2                !
 ! R16   R(11,17)                0.9702         estimate D2E/DX2                !
 ! R17   R(12,15)                0.9679         estimate D2E/DX2                !
 ! R18   R(13,14)                0.9727         estimate D2E/DX2                !
 ! A1    A(2,1,3)              108.8772         estimate D2E/DX2                !
 ! A2    A(2,1,4)              109.5124         estimate D2E/DX2                !
 ! A3    A(2,1,5)              109.2523         estimate D2E/DX2                !
 ! A4    A(3,1,4)              109.4344         estimate D2E/DX2                !
 ! A5    A(3,1,5)              110.5346         estimate D2E/DX2                !
 ! A6    A(4,1,5)              109.214          estimate D2E/DX2                !
 ! A7    A(1,2,14)             120.9882         estimate D2E/DX2                !
 ! A8    A(1,2,18)             112.2687         estimate D2E/DX2                !
 ! A9    A(14,2,18)            119.1342         estimate D2E/DX2                !
 ! A10   A(1,3,8)              114.1731         estimate D2E/DX2                !
 ! A11   A(1,4,7)              113.8041         estimate D2E/DX2                !
 ! A12   A(1,5,6)              114.6833         estimate D2E/DX2                !
 ! A13   A(10,9,11)            109.82           estimate D2E/DX2                !
 ! A14   A(10,9,12)            109.3858         estimate D2E/DX2                !
 ! A15   A(10,9,13)            109.3648         estimate D2E/DX2                !
 ! A16   A(11,9,12)            109.9517         estimate D2E/DX2                !
 ! A17   A(11,9,13)            108.2631         estimate D2E/DX2                !
 ! A18   A(12,9,13)            110.0383         estimate D2E/DX2                !
 ! A19   A(9,10,16)            113.1017         estimate D2E/DX2                !
 ! A20   A(9,11,17)            113.6237         estimate D2E/DX2                !
 ! A21   A(9,12,15)            113.7569         estimate D2E/DX2                !
 ! A22   A(9,13,14)            112.5252         estimate D2E/DX2                !
 ! A23   A(2,14,13)            138.4639         estimate D2E/DX2                !
 ! D1    D(3,1,2,14)           -98.8012         estimate D2E/DX2                !
 ! D2    D(3,1,2,18)            50.4723         estimate D2E/DX2                !
 ! D3    D(4,1,2,14)           141.5795         estimate D2E/DX2                !
 ! D4    D(4,1,2,18)           -69.147          estimate D2E/DX2                !
 ! D5    D(5,1,2,14)            22.0023         estimate D2E/DX2                !
 ! D6    D(5,1,2,18)           171.2758         estimate D2E/DX2                !
 ! D7    D(2,1,3,8)           -154.199          estimate D2E/DX2                !
 ! D8    D(4,1,3,8)            -34.5313         estimate D2E/DX2                !
 ! D9    D(5,1,3,8)             85.7881         estimate D2E/DX2                !
 ! D10   D(2,1,4,7)           -100.0138         estimate D2E/DX2                !
 ! D11   D(3,1,4,7)            140.7097         estimate D2E/DX2                !
 ! D12   D(5,1,4,7)             19.587          estimate D2E/DX2                !
 ! D13   D(2,1,5,6)            -39.7339         estimate D2E/DX2                !
 ! D14   D(3,1,5,6)             80.0535         estimate D2E/DX2                !
 ! D15   D(4,1,5,6)           -159.4953         estimate D2E/DX2                !
 ! D16   D(1,2,14,13)          -52.2718         estimate D2E/DX2                !
 ! D17   D(18,2,14,13)         160.5018         estimate D2E/DX2                !
 ! D18   D(11,9,10,16)         130.3438         estimate D2E/DX2                !
 ! D19   D(12,9,10,16)           9.5908         estimate D2E/DX2                !
 ! D20   D(13,9,10,16)        -110.9862         estimate D2E/DX2                !
 ! D21   D(10,9,11,17)          63.842          estimate D2E/DX2                !
 ! D22   D(12,9,11,17)        -175.7474         estimate D2E/DX2                !
 ! D23   D(13,9,11,17)         -55.5049         estimate D2E/DX2                !
 ! D24   D(10,9,12,15)         172.6026         estimate D2E/DX2                !
 ! D25   D(11,9,12,15)          51.9299         estimate D2E/DX2                !
 ! D26   D(13,9,12,15)         -67.2318         estimate D2E/DX2                !
 ! D27   D(10,9,13,14)         -57.463          estimate D2E/DX2                !
 ! D28   D(11,9,13,14)          62.1705         estimate D2E/DX2                !
 ! D29   D(12,9,13,14)        -177.6412         estimate D2E/DX2                !
 ! D30   D(9,13,14,2)          -82.9723         estimate D2E/DX2                !
 --------------------------------------------------------------------------------
 Trust Radius=3.00D-01 FncErr=1.00D-07 GrdErr=1.00D-06 EigMax=2.50D+02 EigMin=1.00D-04
 Number of steps in this run=     81 maximum allowed number of steps=    108.
 GradGradGradGradGradGradGradGradGradGradGradGradGradGradGradGradGradGrad

                          Input orientation:                          
 ---------------------------------------------------------------------
 Center     Atomic      Atomic             Coordinates (Angstroms)
 Number     Number       Type             X           Y           Z
 ---------------------------------------------------------------------
      1         14           0       -7.156720    0.388310    0.003950
      2          8           0       -5.535900    0.209960    0.223980
      3          8           0       -7.460470    1.923320   -0.470040
      4          8           0       -7.935350    0.089010    1.411120
      5          8           0       -7.666970   -0.673650   -1.129810
      6          1           0       -7.062610   -0.785730   -1.881720
      7          1           0       -8.320660   -0.799450    1.464000
      8          1           0       -8.350540    2.237570   -0.250760
      9         14           0       -3.310180   -2.974160   -1.406000
     10          8           0       -1.793190   -2.575070   -0.936310
     11          8           0       -4.230590   -3.301550   -0.091250
     12          8           0       -3.248760   -4.284480   -2.385160
     13          8           0       -3.983840   -1.707880   -2.202900
     14          1           0       -4.004780   -0.897690   -1.665050
     15          1           0       -4.118640   -4.644440   -2.609850
     16          1           0       -1.105940   -3.064130   -1.414280
     17          1           0       -4.357060   -2.538590    0.494560
     18          1           0       -5.161890    0.907580    0.787010
 ---------------------------------------------------------------------
                    Distance matrix (angstroms):
                    1          2          3          4          5
     1  Si   0.000000
     2  O    1.645381   0.000000
     3  O    1.634988   2.668564   0.000000
     4  O    1.635840   2.679793   2.670013   0.000000
     5  O    1.635092   2.674878   2.687414   2.666459   0.000000
     6  H    2.223281   2.784998   3.080598   3.517050   0.971175
     7  H    2.212979   3.211144   3.448755   0.969856   2.677870
     8  H    2.215817   3.501254   0.969052   2.747824   3.116921
     9  Si   5.300003   4.212990   6.487391   6.221846   4.934597
    10  O    6.199449   4.807343   7.250585   7.094637   6.176903
    11  O    4.710241   3.759509   6.154257   5.241971   4.448952
    12  O    6.543314   5.677906   7.742284   7.450053   5.842480
    13  O    4.396745   3.460744   5.317459   5.648397   3.973236
    14  H    3.791317   2.672013   4.618218   5.087807   3.707872
    15  H    6.433541   5.796932   7.673466   7.289789   5.527055
    16  H    7.109336   5.747009   8.133037   8.035298   6.988736
    17  H    4.079894   3.002899   5.519986   4.533048   4.131838
    18  H    2.205033   0.971370   2.809871   2.958319   3.528443
                    6          7          8          9         10
     6  H    0.000000
     7  H    3.574454   0.000000
     8  H    3.668670   3.487805   0.000000
     9  Si   4.369927   6.170184   7.341794   0.000000
    10  O    5.644672   7.177895   8.162740   1.637419   0.000000
    11  O    4.189925   5.040633   6.905163   1.637958   2.680078
    12  O    5.200015   7.258487   8.551079   1.636907   2.672065
    13  O    3.229914   5.751470   6.200443   1.640833   2.674924
    14  H    3.067541   5.331738   5.542175   2.204836   2.869808
    15  H    4.907828   7.002655   8.416433   2.211944   3.534225
    16  H    6.394648   8.091073   9.052405   2.206091   0.969509
    17  H    4.004900   4.435600   6.270175   2.213099   2.936350
    18  H    3.688110   3.653778   3.607399   4.827632   5.142647
                   11         12         13         14         15
    11  O    0.000000
    12  O    2.681821   0.000000
    13  O    2.657016   2.685597   0.000000
    14  H    2.882079   3.544076   0.972692   0.000000
    15  H    2.856437   0.967857   2.967687   3.865714   0.000000
    16  H    3.401502   2.650196   3.277750   3.627619   3.605985
    17  H    0.970194   3.545314   2.847045   2.735063   3.758831
    18  H    4.399481   6.378104   4.143428   3.257376   6.591810
                   16         17         18
    16  H    0.000000
    17  H    3.806526   0.000000
    18  H    6.088587   3.550967   0.000000
 Stoichiometry    H8O8Si2
 Framework group  C1[X(H8O8Si2)]
 Deg. of freedom    48
 Full point group                 C1      NOp   1
 Largest Abelian subgroup         C1      NOp   1
 Largest concise Abelian subgroup C1      NOp   1
                         Standard orientation:                         
 ---------------------------------------------------------------------
 Center     Atomic      Atomic             Coordinates (Angstroms)
 Number     Number       Type             X           Y           Z
 ---------------------------------------------------------------------
      1         14           0       -2.638264   -0.004177   -0.009663
      2          8           0       -1.407544    1.063319    0.220681
      3          8           0       -3.703632    0.637722   -1.070861
      4          8           0       -3.391460   -0.285397    1.414972
      5          8           0       -2.032257   -1.409778   -0.584612
      6          1           0       -1.320841   -1.307663   -1.237790
      7          1           0       -3.122837   -1.113162    1.843070
      8          1           0       -4.607656    0.301247   -0.978196
      9         14           0        2.661722   -0.005883    0.003510
     10          8           0        3.384475    1.446849    0.223372
     11          8           0        1.848158   -0.432353    1.359660
     12          8           0        3.798589   -1.131445   -0.343061
     13          8           0        1.584536    0.103385   -1.229399
     14          1           0        0.912088    0.789472   -1.076996
     15          1           0        3.455191   -2.035805   -0.374014
     16          1           0        4.321305    1.447300   -0.026221
     17          1           0        1.116133    0.165705    1.578159
     18          1           0       -1.728713    1.955343    0.432116
 ---------------------------------------------------------------------
 Rotational constants (GHZ):           2.0083117           0.3168968           0.3157670
 Standard basis: 6-31+G(d,p) (6D, 7F)
 There are   238 symmetry adapted cartesian basis functions of A   symmetry.
 There are   238 symmetry adapted basis functions of A   symmetry.
   238 basis functions,   424 primitive gaussians,   238 cartesian basis functions
    50 alpha electrons       50 beta electrons
       nuclear repulsion energy       787.8366644058 Hartrees.
 NAtoms=   18 NActive=   18 NUniq=   18 SFac= 1.00D+00 NAtFMM=   60 NAOKFM=F Big=F
 Integral buffers will be    131072 words long.
 Raffenetti 2 integral format.
 Two-electron integral symmetry is turned on.
 Nuclear repulsion after empirical dispersion term =      787.8247785776 Hartrees.
 One-electron integrals computed using PRISM.
 NBasis=   238 RedAO= T EigKep=  2.77D-04  NBF=   238
 NBsUse=   238 1.00D-06 EigRej= -1.00D+00 NBFU=   238
 ExpMin= 3.31D-02 ExpMax= 1.61D+04 ExpMxC= 2.43D+03 IAcc=3 IRadAn=         5 AccDes= 0.00D+00
 Harris functional with IExCor=  402 and IRadAn=       5 diagonalized for initial guess.
 HarFok:  IExCor=  402 AccDes= 0.00D+00 IRadAn=         5 IDoV= 1 UseB2=F ITyADJ=14
 ICtDFT=  3500011 ScaDFX=  1.000000  1.000000  1.000000  1.000000
 FoFCou: FMM=F IPFlag=           0 FMFlag=      100000 FMFlg1=           0
         NFxFlg=           0 DoJE=T BraDBF=F KetDBF=T FulRan=T
         wScrn=  0.000000 ICntrl=       500 IOpCl=  0 I1Cent=   200000004 NGrid=           0
         NMat0=    1 NMatS0=      1 NMatT0=    0 NMatD0=    1 NMtDS0=    0 NMtDT0=    0
 Petite list used in FoFCou.
 Requested convergence on RMS density matrix=1.00D-08 within 128 cycles.
 Requested convergence on MAX density matrix=1.00D-06.
 Requested convergence on             energy=1.00D-06.
 No special actions if energy rises.
 SCF Done:  E(RB3LYP) =  -1186.04580396     A.U. after   11 cycles
            NFock= 11  Conv=0.41D-08     -V/T= 2.0065

 **********************************************************************

            Population analysis using the SCF Density.

 **********************************************************************

 Orbital symmetries:
       Occupied  (A) (A) (A) (A) (A) (A) (A) (A) (A) (A) (A) (A)
                 (A) (A) (A) (A) (A) (A) (A) (A) (A) (A) (A) (A)
                 (A) (A) (A) (A) (A) (A) (A) (A) (A) (A) (A) (A)
                 (A) (A) (A) (A) (A) (A) (A) (A) (A) (A) (A) (A)
                 (A) (A)
       Virtual   (A) (A) (A) (A) (A) (A) (A) (A) (A) (A) (A) (A)
                 (A) (A) (A) (A) (A) (A) (A) (A) (A) (A) (A) (A)
                 (A) (A) (A) (A) (A) (A) (A) (A) (A) (A) (A) (A)
                 (A) (A) (A) (A) (A) (A) (A) (A) (A) (A) (A) (A)
                 (A) (A) (A) (A) (A) (A) (A) (A) (A) (A) (A) (A)
                 (A) (A) (A) (A) (A) (A) (A) (A) (A) (A) (A) (A)
                 (A) (A) (A) (A) (A) (A) (A) (A) (A) (A) (A) (A)
                 (A) (A) (A) (A) (A) (A) (A) (A) (A) (A) (A) (A)
                 (A) (A) (A) (A) (A) (A) (A) (A) (A) (A) (A) (A)
                 (A) (A) (A) (A) (A) (A) (A) (A) (A) (A) (A) (A)
                 (A) (A) (A) (A) (A) (A) (A) (A) (A) (A) (A) (A)
                 (A) (A) (A) (A) (A) (A) (A) (A) (A) (A) (A) (A)
                 (A) (A) (A) (A) (A) (A) (A) (A) (A) (A) (A) (A)
                 (A) (A) (A) (A) (A) (A) (A) (A) (A) (A) (A) (A)
                 (A) (A) (A) (A) (A) (A) (A) (A) (A) (A) (A) (A)
                 (A) (A) (A) (A) (A) (A) (A) (A)
 The electronic state is 1-A.
 Alpha  occ. eigenvalues --  -66.22517 -66.20998 -19.18830 -19.17937 -19.17726
 Alpha  occ. eigenvalues --  -19.17691 -19.17287 -19.16433 -19.16099 -19.16092
 Alpha  occ. eigenvalues --   -5.36122  -5.34604  -3.72123  -3.72098  -3.72026
 Alpha  occ. eigenvalues --   -3.70629  -3.70541  -3.70524  -1.06154  -1.04666
 Alpha  occ. eigenvalues --   -1.02549  -1.01906  -1.01812  -1.01122  -1.00568
 Alpha  occ. eigenvalues --   -1.00051  -0.60408  -0.58974  -0.54604  -0.54302
 Alpha  occ. eigenvalues --   -0.53869  -0.53413  -0.52305  -0.52112  -0.42430
 Alpha  occ. eigenvalues --   -0.41133  -0.40404  -0.39852  -0.39531  -0.39067
 Alpha  occ. eigenvalues --   -0.38572  -0.38054  -0.37746  -0.36694  -0.35272
 Alpha  occ. eigenvalues --   -0.35093  -0.33840  -0.33391  -0.33244  -0.30791
 Alpha virt. eigenvalues --   -0.04107  -0.01510   0.00230   0.00974   0.01512
 Alpha virt. eigenvalues --    0.02241   0.03801   0.05278   0.08687   0.09710
 Alpha virt. eigenvalues --    0.10072   0.10862   0.11307   0.11963   0.12667
 Alpha virt. eigenvalues --    0.13565   0.14055   0.14570   0.15441   0.15528
 Alpha virt. eigenvalues --    0.16225   0.16292   0.17013   0.17559   0.18098
 Alpha virt. eigenvalues --    0.18201   0.18628   0.19027   0.19354   0.19871
 Alpha virt. eigenvalues --    0.20161   0.21001   0.22001   0.23043   0.23488
 Alpha virt. eigenvalues --    0.23971   0.25336   0.25647   0.25837   0.26229
 Alpha virt. eigenvalues --    0.27006   0.27559   0.27986   0.29385   0.29924
 Alpha virt. eigenvalues --    0.30368   0.31588   0.33045   0.33422   0.34502
 Alpha virt. eigenvalues --    0.35201   0.37012   0.38110   0.40969   0.42001
 Alpha virt. eigenvalues --    0.43371   0.45098   0.46161   0.46719   0.47599
 Alpha virt. eigenvalues --    0.48610   0.50256   0.60890   0.62172   0.63117
 Alpha virt. eigenvalues --    0.63909   0.64381   0.66791   0.93755   0.94424
 Alpha virt. eigenvalues --    0.94989   0.95542   0.96200   0.97007   0.98072
 Alpha virt. eigenvalues --    0.98375   0.99643   1.01172   1.02031   1.03139
 Alpha virt. eigenvalues --    1.05441   1.06526   1.14744   1.15157   1.16198
 Alpha virt. eigenvalues --    1.17149   1.17548   1.17865   1.18634   1.19231
 Alpha virt. eigenvalues --    1.20722   1.21196   1.22599   1.23025   1.23470
 Alpha virt. eigenvalues --    1.24655   1.25075   1.25291   1.26523   1.27379
 Alpha virt. eigenvalues --    1.29409   1.30115   1.30592   1.32213   1.34245
 Alpha virt. eigenvalues --    1.35141   1.45527   1.48324   1.49128   1.53992
 Alpha virt. eigenvalues --    1.54767   1.55580   1.56388   1.56558   1.57328
 Alpha virt. eigenvalues --    1.58977   1.60128   1.62627   1.63450   1.65047
 Alpha virt. eigenvalues --    1.66559   1.68477   1.68523   1.69545   1.72352
 Alpha virt. eigenvalues --    1.74474   1.75197   1.78539   1.85714   1.86286
 Alpha virt. eigenvalues --    1.87989   1.91345   1.92557   2.00255   2.01685
 Alpha virt. eigenvalues --    2.08517   2.10077   2.15413   2.35047   2.35284
 Alpha virt. eigenvalues --    2.36707   2.36975   2.37616   2.38055   2.38321
 Alpha virt. eigenvalues --    2.40625   2.47137   2.49025   2.58664   2.58965
 Alpha virt. eigenvalues --    2.59529   2.60273   2.60587   2.61237   2.61734
 Alpha virt. eigenvalues --    2.62225   2.63653   2.64515   2.68675   2.69370
 Alpha virt. eigenvalues --    2.70794   2.71662   2.72949   2.73322   2.77196
 Alpha virt. eigenvalues --    2.78372   2.78520   2.79550   2.81574   2.82057
 Alpha virt. eigenvalues --    2.98586   3.00530   3.38235   3.39786   3.41051
 Alpha virt. eigenvalues --    3.42636   3.44208   3.44877   3.46545   3.49495
 Alpha virt. eigenvalues --    4.10369   4.13836   4.15678   4.18426   4.19887
 Alpha virt. eigenvalues --    4.20402   4.22807   4.34477
          Condensed to atoms (all electrons):
               1          2          3          4          5          6
     1  Si  11.684044  -0.002402   0.075783   0.056283   0.078400   0.032817
     2  O   -0.002402   8.576943   0.034374   0.014135   0.038363  -0.005873
     3  O    0.075783   0.034374   8.485000   0.014883  -0.016634  -0.007195
     4  O    0.056283   0.014135   0.014883   8.493021   0.063030   0.006439
     5  O    0.078400   0.038363  -0.016634   0.063030   8.463925   0.249425
     6  H    0.032817  -0.005873  -0.007195   0.006439   0.249425   0.344607
     7  H    0.035765  -0.006221   0.004322   0.241743  -0.002907   0.000077
     8  H    0.035765   0.004382   0.240929  -0.002451  -0.007079   0.000086
     9  Si  -0.002640  -0.002146   0.000726  -0.000184  -0.002712   0.000325
    10  O    0.000474  -0.000606  -0.000004  -0.000013   0.000025   0.000011
    11  O   -0.003373   0.002557  -0.000185  -0.000093   0.000288  -0.000188
    12  O    0.000879  -0.000323  -0.000004  -0.000001   0.000005  -0.000033
    13  O   -0.010893   0.006944  -0.000539  -0.000116   0.007142   0.002039
    14  H    0.003003   0.004332  -0.000092   0.000091  -0.001649   0.000081
    15  H   -0.000102   0.000023   0.000000   0.000000  -0.000004   0.000001
    16  H   -0.000067   0.000011   0.000000   0.000000   0.000000  -0.000000
    17  H    0.001832   0.003856   0.000037  -0.000044  -0.000495   0.000014
    18  H    0.041113   0.229248  -0.003761  -0.008044   0.007688   0.000093
               7          8          9         10         11         12
     1  Si   0.035765   0.035765  -0.002640   0.000474  -0.003373   0.000879
     2  O   -0.006221   0.004382  -0.002146  -0.000606   0.002557  -0.000323
     3  O    0.004322   0.240929   0.000726  -0.000004  -0.000185  -0.000004
     4  O    0.241743  -0.002451  -0.000184  -0.000013  -0.000093  -0.000001
     5  O   -0.002907  -0.007079  -0.002712   0.000025   0.000288   0.000005
     6  H    0.000077   0.000086   0.000325   0.000011  -0.000188  -0.000033
     7  H    0.352451   0.000099  -0.000023  -0.000000  -0.000016  -0.000000
     8  H    0.000099   0.358428  -0.000016   0.000000   0.000001   0.000000
     9  Si  -0.000023  -0.000016  11.714112   0.020770   0.036612   0.052558
    10  O   -0.000000   0.000000   0.020770   8.514813   0.046027   0.030275
    11  O   -0.000016   0.000001   0.036612   0.046027   8.494799   0.030160
    12  O   -0.000000   0.000000   0.052558   0.030275   0.030160   8.472305
    13  O    0.000007   0.000007   0.053111   0.027923   0.026955   0.036388
    14  H   -0.000001  -0.000000   0.049917  -0.006903  -0.017824   0.007340
    15  H   -0.000000   0.000000   0.033486   0.007390  -0.007094   0.250960
    16  H   -0.000000   0.000000   0.029292   0.243018   0.001811  -0.000469
    17  H    0.000004  -0.000000   0.050058  -0.008545   0.231172   0.007500
    18  H    0.000087   0.000137   0.000480  -0.000008   0.000073  -0.000001
              13         14         15         16         17         18
     1  Si  -0.010893   0.003003  -0.000102  -0.000067   0.001832   0.041113
     2  O    0.006944   0.004332   0.000023   0.000011   0.003856   0.229248
     3  O   -0.000539  -0.000092   0.000000   0.000000   0.000037  -0.003761
     4  O   -0.000116   0.000091   0.000000   0.000000  -0.000044  -0.008044
     5  O    0.007142  -0.001649  -0.000004   0.000000  -0.000495   0.007688
     6  H    0.002039   0.000081   0.000001  -0.000000   0.000014   0.000093
     7  H    0.000007  -0.000001  -0.000000  -0.000000   0.000004   0.000087
     8  H    0.000007  -0.000000   0.000000   0.000000  -0.000000   0.000137
     9  Si   0.053111   0.049917   0.033486   0.029292   0.050058   0.000480
    10  O    0.027923  -0.006903   0.007390   0.243018  -0.008545  -0.000008
    11  O    0.026955  -0.017824  -0.007094   0.001811   0.231172   0.000073
    12  O    0.036388   0.007340   0.250960  -0.000469   0.007500  -0.000001
    13  O    8.482226   0.227380  -0.007672  -0.002661  -0.015514   0.000658
    14  H    0.227380   0.360120   0.000013   0.000009   0.000432  -0.000221
    15  H   -0.007672   0.000013   0.358276   0.000067   0.000031   0.000000
    16  H   -0.002661   0.000009   0.000067   0.353497  -0.000027   0.000000
    17  H   -0.015514   0.000432   0.000031  -0.000027   0.361676  -0.000038
    18  H    0.000658  -0.000221   0.000000   0.000000  -0.000038   0.357873
 Mulliken charges:
               1
     1  Si   1.973319
     2  O   -0.897597
     3  O   -0.827640
     4  O   -0.878679
     5  O   -0.876811
     6  H    0.377276
     7  H    0.374614
     8  H    0.369713
     9  Si   1.966273
    10  O   -0.874650
    11  O   -0.841682
    12  O   -0.887541
    13  O   -0.833384
    14  H    0.373974
    15  H    0.364624
    16  H    0.375517
    17  H    0.368051
    18  H    0.374623
 Sum of Mulliken charges =  -0.00000
 Mulliken charges with hydrogens summed into heavy atoms:
               1
     1  Si   1.973319
     2  O   -0.522974
     3  O   -0.457927
     4  O   -0.504065
     5  O   -0.499535
     9  Si   1.966273
    10  O   -0.499132
    11  O   -0.473632
    12  O   -0.522916
    13  O   -0.459410
 Electronic spatial extent (au):  <R**2>=           3397.5895
 Charge=             -0.0000 electrons
 Dipole moment (field-independent basis, Debye):
    X=             -1.9435    Y=              0.0818    Z=              0.2580  Tot=              1.9622
 Quadrupole moment (field-independent basis, Debye-Ang):
   XX=            -67.2385   YY=            -66.7789   ZZ=            -75.8096
   XY=              0.4421   XZ=             -2.4810   YZ=              0.7850
 Traceless Quadrupole moment (field-independent basis, Debye-Ang):
   XX=              2.7039   YY=              3.1634   ZZ=             -5.8673
   XY=              0.4421   XZ=             -2.4810   YZ=              0.7850
 Octapole moment (field-independent basis, Debye-Ang**2):
  XXX=            -25.1930  YYY=             -4.2896  ZZZ=              5.9257  XYY=              5.5018
  XXY=              0.5992  XXZ=            -13.3596  XZZ=             -9.8688  YZZ=             -6.3032
  YYZ=              3.1450  XYZ=              2.4562
 Hexadecapole moment (field-independent basis, Debye-Ang**3):
 XXXX=          -2981.2005 YYYY=           -322.4602 ZZZZ=           -357.3691 XXXY=            140.9374
 XXXZ=             61.8803 YYYX=            -79.6278 YYYZ=              5.8800 ZZZX=            -13.2611
 ZZZY=             -2.6453 XXYY=           -579.9766 XXZZ=           -678.9371 YYZZ=           -110.3789
 XXYZ=            -17.4449 YYXZ=            -44.3464 ZZXY=             32.2213
 N-N= 7.878247785776D+02 E-N=-4.385614464724D+03  KE= 1.178398968977D+03
 Calling FoFJK, ICntrl=      2127 FMM=F ISym2X=0 I1Cent= 0 IOpClX= 0 NMat=1 NMatS=1 NMatT=0.
 ***** Axes restored to original set *****
 -------------------------------------------------------------------
 Center     Atomic                   Forces (Hartrees/Bohr)
 Number     Number              X              Y              Z
 -------------------------------------------------------------------
      1       14          -0.002072713   -0.002257619   -0.003088487
      2        8           0.013763881    0.005271126   -0.000692711
      3        8          -0.003795773    0.012519975    0.004920915
      4        8          -0.012506510   -0.007996696    0.004225523
      5        8           0.006710252   -0.009064423   -0.006899822
      6        1          -0.004836467   -0.002544048    0.002646507
      7        1           0.001249364    0.004493613    0.002875185
      8        1           0.004534273    0.000834195   -0.002180499
      9       14          -0.001795223    0.001092306    0.001168961
     10        8           0.013965469   -0.006070263   -0.003733546
     11        8          -0.004619940    0.001471818    0.012184171
     12        8          -0.005319411   -0.003533723   -0.002156643
     13        8          -0.005307432    0.014843109   -0.002311975
     14        1          -0.002511784   -0.002006258   -0.005161815
     15        1           0.004135569   -0.001586311   -0.001389788
     16        1           0.000052787    0.004410496    0.004223081
     17        1          -0.002934973   -0.005101368   -0.000923900
     18        1           0.001288632   -0.004775930   -0.003705155
 -------------------------------------------------------------------
 Cartesian Forces:  Max     0.014843109 RMS     0.005821844

 GradGradGradGradGradGradGradGradGradGradGradGradGradGradGradGradGradGrad
 Berny optimization.
 FormGI is forming the generalized inverse of G from B-inverse, IUseBI=4.
 Internal  Forces:  Max     0.014717129 RMS     0.005583519
 Search for a local minimum.
 Step number   1 out of a maximum of   81
 All quantities printed in internal units (Hartrees-Bohrs-Radians)
 Mixed Optimization -- RFO/linear search
 Second derivative matrix not updated -- first step.
 ITU=  0
     Eigenvalues ---    0.00349   0.01612   0.03291   0.03739   0.03799
     Eigenvalues ---    0.03837   0.03844   0.03851   0.03865   0.03875
     Eigenvalues ---    0.03876   0.07034   0.10703   0.10772   0.12173
     Eigenvalues ---    0.12197   0.12246   0.12480   0.15050   0.16000
     Eigenvalues ---    0.16000   0.16000   0.16000   0.16000   0.16000
     Eigenvalues ---    0.16000   0.20131   0.20260   0.20696   0.20836
     Eigenvalues ---    0.21402   0.41336   0.43803   0.44527   0.44613
     Eigenvalues ---    0.44696   0.44868   0.44990   0.45007   0.51767
     Eigenvalues ---    0.53098   0.53138   0.53337   0.53406   0.53477
     Eigenvalues ---    0.53571   0.538171000.000001000.000001000.00000
     Eigenvalues --- 1000.000001000.000001000.000001000.000001000.00000
     Eigenvalues --- 1000.000001000.000001000.000001000.000001000.00000
     Eigenvalues --- 1000.000001000.000001000.000001000.000001000.00000
     Eigenvalues --- 1000.000001000.000001000.000001000.000001000.00000
     Eigenvalues --- 1000.00000
 RFO step:  Lambda=-7.95273028D-03 EMin= 3.49313416D-03
 Linear search not attempted -- first point.
 Iteration  1 RMS(Cart)=  0.06533934 RMS(Int)=  0.00142942
 Iteration  2 RMS(Cart)=  0.00217632 RMS(Int)=  0.00019595
 Iteration  3 RMS(Cart)=  0.00000267 RMS(Int)=  0.00019594
 Iteration  4 RMS(Cart)=  0.00000000 RMS(Int)=  0.00019594
 Iteration  1 RMS(Cart)=  0.00000177 RMS(Int)=  0.00000019
 Iteration  2 RMS(Cart)=  0.00000013 RMS(Int)=  0.00000020
 Variable       Old X    -DE/DX   Delta X   Delta X   Delta X     New X
                                 (Linear)    (Quad)   (Total)
    R1        3.10932   0.01154   0.00000   0.02868   0.02868   3.13800
    R2        3.08968   0.01161   0.00000   0.02534   0.02534   3.11502
    R3        3.09129   0.01211   0.00000   0.02651   0.02651   3.11780
    R4        3.08988   0.00990   0.00000   0.02163   0.02163   3.11151
    R5       10.01555  -0.00235   0.00000   0.00000   0.00000  10.01555
    R6        5.04937  -0.00325   0.00000  -0.07908  -0.07908   4.97029
    R7        1.83562  -0.00508   0.00000  -0.00943  -0.00943   1.82619
    R8        1.83124  -0.00439   0.00000  -0.00807  -0.00807   1.82317
    R9        1.83276  -0.00446   0.00000  -0.00822  -0.00822   1.82454
   R10        1.83526  -0.00477   0.00000  -0.00884  -0.00884   1.82642
   R11        3.09427   0.01272   0.00000   0.02802   0.02802   3.12229
   R12        3.09529   0.01401   0.00000   0.03091   0.03091   3.12620
   R13        3.09331   0.00618   0.00000   0.01358   0.01358   3.10688
   R14        3.10072   0.01472   0.00000   0.03500   0.03500   3.13572
   R15        1.83211  -0.00427   0.00000  -0.00787  -0.00787   1.82424
   R16        1.83340  -0.00419   0.00000  -0.00773  -0.00773   1.82567
   R17        1.82899  -0.00280   0.00000  -0.00513  -0.00513   1.82385
   R18        1.83812  -0.00692   0.00000  -0.01098  -0.01098   1.82714
    A1        1.90027  -0.00691   0.00000  -0.03407  -0.03366   1.86660
    A2        1.91135   0.01116   0.00000   0.05004   0.05004   1.96140
    A3        1.90681  -0.00663   0.00000  -0.03444  -0.03398   1.87283
    A4        1.90999  -0.00371   0.00000  -0.01498  -0.01460   1.89539
    A5        1.92919   0.01100   0.00000   0.05602   0.05577   1.98496
    A6        1.90614  -0.00481   0.00000  -0.02214  -0.02177   1.88437
    A7        2.11164  -0.00504   0.00000  -0.01974  -0.01974   2.09190
    A8        1.95946   0.00555   0.00000   0.02727   0.02725   1.98671
    A9        2.07928  -0.00085   0.00000  -0.01108  -0.01102   2.06826
   A10        1.99270   0.00476   0.00000   0.02832   0.02832   2.02102
   A11        1.98626   0.00572   0.00000   0.03406   0.03406   2.02031
   A12        2.00160   0.00670   0.00000   0.03989   0.03989   2.04149
   A13        1.91672   0.00172   0.00000   0.01213   0.01180   1.92852
   A14        1.90914  -0.00279   0.00000  -0.02004  -0.02001   1.88913
   A15        1.90878   0.00202   0.00000   0.01476   0.01448   1.92326
   A16        1.91902  -0.00165   0.00000  -0.01300  -0.01295   1.90607
   A17        1.88955   0.00201   0.00000   0.01655   0.01631   1.90586
   A18        1.92053  -0.00123   0.00000  -0.00981  -0.00972   1.91081
   A19        1.97400   0.00799   0.00000   0.04756   0.04756   2.02155
   A20        1.98311   0.00721   0.00000   0.04295   0.04295   2.02606
   A21        1.98543   0.00677   0.00000   0.04029   0.04029   2.02572
   A22        1.96394   0.00306   0.00000   0.03140   0.03139   1.99533
   A23        2.41665  -0.00183   0.00000   0.00358   0.00357   2.42022
    D1       -1.72441  -0.00202   0.00000  -0.00576  -0.00616  -1.73057
    D2        0.88091  -0.00263   0.00000  -0.01455  -0.01504   0.86587
    D3        2.47103   0.00001   0.00000   0.00321   0.00323   2.47426
    D4       -1.20684  -0.00060   0.00000  -0.00558  -0.00564  -1.21248
    D5        0.38401   0.00317   0.00000   0.02093   0.02143   0.40544
    D6        2.98933   0.00255   0.00000   0.01213   0.01255   3.00188
    D7       -2.69128  -0.00439   0.00000  -0.02169  -0.02213  -2.71341
    D8       -0.60268   0.00281   0.00000   0.00976   0.00986  -0.59282
    D9        1.49729   0.00139   0.00000   0.00792   0.00826   1.50554
   D10       -1.74557   0.00048   0.00000   0.00946   0.00953  -1.73604
   D11        2.45585   0.00442   0.00000   0.02991   0.02987   2.48572
   D12        0.34186  -0.00380   0.00000  -0.01584  -0.01587   0.32598
   D13       -0.69349   0.00472   0.00000   0.02962   0.03017  -0.66332
   D14        1.39720  -0.00120   0.00000   0.00040   0.00013   1.39733
   D15       -2.78372  -0.00199   0.00000   0.00270   0.00243  -2.78129
   D16       -0.91231   0.00093   0.00000  -0.03109  -0.03098  -0.94329
   D17        2.80128  -0.00017   0.00000  -0.03273  -0.03283   2.76845
   D18        2.27493  -0.00235   0.00000  -0.01637  -0.01649   2.25844
   D19        0.16739   0.00038   0.00000   0.00468   0.00467   0.17206
   D20       -1.93707   0.00235   0.00000   0.01996   0.02010  -1.91698
   D21        1.11425   0.00357   0.00000   0.03908   0.03921   1.15346
   D22       -3.06737   0.00016   0.00000   0.01376   0.01376  -3.05361
   D23       -0.96874  -0.00108   0.00000   0.00423   0.00409  -0.96465
   D24        3.01248  -0.00022   0.00000  -0.00178  -0.00175   3.01074
   D25        0.90635   0.00046   0.00000   0.00402   0.00395   0.91030
   D26       -1.17342  -0.00024   0.00000  -0.00223  -0.00219  -1.17560
   D27       -1.00292  -0.00184   0.00000  -0.00473  -0.00488  -1.00780
   D28        1.08508   0.00260   0.00000   0.02828   0.02842   1.11350
   D29       -3.10042   0.00109   0.00000   0.01677   0.01677  -3.08365
   D30       -1.44814   0.00272   0.00000   0.00955   0.00956  -1.43858
         Item               Value     Threshold  Converged?
 Maximum Force            0.014834     0.000450     NO 
 RMS     Force            0.005616     0.000300     NO 
 Maximum Displacement     0.203798     0.001800     NO 
 RMS     Displacement     0.066237     0.001200     NO 
 Predicted change in Energy=-4.163688D-03
 GradGradGradGradGradGradGradGradGradGradGradGradGradGradGradGradGradGrad

                          Input orientation:                          
 ---------------------------------------------------------------------
 Center     Atomic      Atomic             Coordinates (Angstroms)
 Number     Number       Type             X           Y           Z
 ---------------------------------------------------------------------
      1         14           0       -7.164470    0.394623    0.007437
      2          8           0       -5.526655    0.231108    0.227148
      3          8           0       -7.432350    1.949329   -0.470414
      4          8           0       -8.015101    0.116163    1.393425
      5          8           0       -7.624014   -0.728997   -1.104942
      6          1           0       -7.017065   -0.892760   -1.839051
      7          1           0       -8.409632   -0.761326    1.474410
      8          1           0       -8.312520    2.299220   -0.286895
      9         14           0       -3.313550   -2.963341   -1.401296
     10          8           0       -1.766675   -2.574863   -0.969814
     11          8           0       -4.205097   -3.360500   -0.065568
     12          8           0       -3.255546   -4.255127   -2.416657
     13          8           0       -4.031069   -1.682881   -2.175275
     14          1           0       -4.056025   -0.867264   -1.656621
     15          1           0       -4.105047   -4.648522   -2.651362
     16          1           0       -1.067618   -3.025865   -1.459518
     17          1           0       -4.367210   -2.646435    0.564655
     18          1           0       -5.134447    0.926369    0.771827
 ---------------------------------------------------------------------
                    Distance matrix (angstroms):
                    1          2          3          4          5
     1  Si   0.000000
     2  O    1.660557   0.000000
     3  O    1.648397   2.659050   0.000000
     4  O    1.649871   2.750596   2.678431   0.000000
     5  O    1.646539   2.663678   2.759129   2.666286   0.000000
     6  H    2.255793   2.784525   3.181682   3.530283   0.966499
     7  H    2.244695   3.294259   3.476359   0.965505   2.696534
     8  H    2.243243   3.507473   0.964781   2.770861   3.211439
     9  Si   5.300003   4.213569   6.478069   6.276813   4.864177
    10  O    6.237713   4.841863   7.267571   7.202038   6.142793
    11  O    4.781650   3.838209   6.226825   5.360222   4.437804
    12  O    6.540344   5.681016   7.728443   7.501884   5.765215
    13  O    4.347236   3.416397   5.260058   5.643110   3.868432
    14  H    3.744847   2.630163   4.554103   5.093544   3.613034
    15  H    6.470131   5.841025   7.704486   7.372316   5.489737
    16  H    7.143060   5.773710   8.138838   8.141200   6.956124
    17  H    4.169316   3.120654   5.620276   4.650368   4.131695
    18  H    2.233393   0.966381   2.805347   3.056303   3.529936
                    6          7          8          9         10
     6  H    0.000000
     7  H    3.596601   0.000000
     8  H    3.778377   3.532501   0.000000
     9  Si   4.265555   6.252088   7.343441   0.000000
    10  O    5.581365   7.306985   8.189698   1.652245   0.000000
    11  O    4.140308   5.177389   6.996595   1.654315   2.716760
    12  O    5.078205   7.342456   8.548002   1.644091   2.670839
    13  O    3.107010   5.774191   6.144423   1.659354   2.715925
    14  H    2.966764   5.363625   5.479099   2.238302   2.937468
    15  H    4.821353   7.117706   8.459589   2.242536   3.549034
    16  H    6.331675   8.224430   9.067534   2.247557   0.965346
    17  H    3.984333   4.552194   6.383582   2.252907   3.020347
    18  H    3.697319   3.750837   3.620188   4.813312   5.160797
                   11         12         13         14         15
    11  O    0.000000
    12  O    2.688796   0.000000
    13  O    2.701029   2.697434   0.000000
    14  H    2.961401   3.563150   0.966879   0.000000
    15  H    2.890560   0.965141   3.004523   3.910220   0.000000
    16  H    3.449471   2.685932   3.331359   3.691745   3.644102
    17  H    0.966101   3.565377   2.923807   2.862928   3.797347
    18  H    4.465666   6.367464   4.087914   3.205850   6.622484
                   16         17         18
    16  H    0.000000
    17  H    3.889544   0.000000
    18  H    6.094108   3.660124   0.000000
 Stoichiometry    H8O8Si2
 Framework group  C1[X(H8O8Si2)]
 Deg. of freedom    48
 Full point group                 C1      NOp   1
 Largest Abelian subgroup         C1      NOp   1
 Largest concise Abelian subgroup C1      NOp   1
                         Standard orientation:                         
 ---------------------------------------------------------------------
 Center     Atomic      Atomic             Coordinates (Angstroms)
 Number     Number       Type             X           Y           Z
 ---------------------------------------------------------------------
      1         14           0       -2.645376   -0.003264   -0.013254
      2          8           0       -1.412396    0.981020    0.504814
      3          8           0       -3.695069    0.945872   -0.858534
      4          8           0       -3.460001   -0.702112    1.239771
      5          8           0       -1.967941   -1.205167   -0.911920
      6          1           0       -1.225944   -0.961643   -1.481357
      7          1           0       -3.212764   -1.612549    1.445145
      8          1           0       -4.604797    0.627939   -0.904542
      9         14           0        2.654588   -0.001814    0.006982
     10          8           0        3.415114    1.343124    0.592351
     11          8           0        1.898943   -0.818854    1.230993
     12          8           0        3.787944   -0.977657   -0.675858
     13          8           0        1.531942    0.427273   -1.137136
     14          1           0        0.857817    1.044495   -0.821783
     15          1           0        3.483642   -1.849803   -0.955605
     16          1           0        4.339904    1.448295    0.336234
     17          1           0        1.159483   -0.362499    1.653237
     18          1           0       -1.714587    1.788878    0.940632
 ---------------------------------------------------------------------
 Rotational constants (GHZ):           1.9844031           0.3159638           0.3138705
 Standard basis: 6-31+G(d,p) (6D, 7F)
 There are   238 symmetry adapted cartesian basis functions of A   symmetry.
 There are   238 symmetry adapted basis functions of A   symmetry.
   238 basis functions,   424 primitive gaussians,   238 cartesian basis functions
    50 alpha electrons       50 beta electrons
       nuclear repulsion energy       783.4610956634 Hartrees.
 NAtoms=   18 NActive=   18 NUniq=   18 SFac= 1.00D+00 NAtFMM=   60 NAOKFM=F Big=F
 Integral buffers will be    131072 words long.
 Raffenetti 2 integral format.
 Two-electron integral symmetry is turned on.
 Nuclear repulsion after empirical dispersion term =      783.4493750462 Hartrees.
 One-electron integrals computed using PRISM.
 NBasis=   238 RedAO= T EigKep=  2.87D-04  NBF=   238
 NBsUse=   238 1.00D-06 EigRej= -1.00D+00 NBFU=   238
 Initial guess from the checkpoint file:  "/localscratch/sarashs.36560095.0/Gau-7023.chk"
 B after Tr=    -0.000000   -0.000000   -0.000000
         Rot=    0.990103   -0.140341    0.000230   -0.000426 Ang= -16.14 deg.
 ExpMin= 3.31D-02 ExpMax= 1.61D+04 ExpMxC= 2.43D+03 IAcc=3 IRadAn=         5 AccDes= 0.00D+00
 Harris functional with IExCor=  402 and IRadAn=       5 diagonalized for initial guess.
 HarFok:  IExCor=  402 AccDes= 0.00D+00 IRadAn=         5 IDoV= 1 UseB2=F ITyADJ=14
 ICtDFT=  3500011 ScaDFX=  1.000000  1.000000  1.000000  1.000000
 FoFCou: FMM=F IPFlag=           0 FMFlag=      100000 FMFlg1=           0
         NFxFlg=           0 DoJE=T BraDBF=F KetDBF=T FulRan=T
         wScrn=  0.000000 ICntrl=       500 IOpCl=  0 I1Cent=   200000004 NGrid=           0
         NMat0=    1 NMatS0=      1 NMatT0=    0 NMatD0=    1 NMtDS0=    0 NMtDT0=    0
 Petite list used in FoFCou.
 Requested convergence on RMS density matrix=1.00D-08 within 128 cycles.
 Requested convergence on MAX density matrix=1.00D-06.
 Requested convergence on             energy=1.00D-06.
 No special actions if energy rises.
 SCF Done:  E(RB3LYP) =  -1186.05093274     A.U. after   10 cycles
            NFock= 10  Conv=0.23D-08     -V/T= 2.0067
 Calling FoFJK, ICntrl=      2127 FMM=F ISym2X=0 I1Cent= 0 IOpClX= 0 NMat=1 NMatS=1 NMatT=0.
 ***** Axes restored to original set *****
 -------------------------------------------------------------------
 Center     Atomic                   Forces (Hartrees/Bohr)
 Number     Number              X              Y              Z
 -------------------------------------------------------------------
      1       14           0.000162019   -0.003092018   -0.002705022
      2        8           0.001993469    0.000836749   -0.001264650
      3        8           0.000453360    0.000924318    0.003727738
      4        8          -0.003157353   -0.000655754   -0.002570424
      5        8           0.002727070   -0.000455796    0.001139554
      6        1          -0.000607080   -0.001497400    0.000600394
      7        1           0.000739063    0.000706988    0.000904470
      8        1           0.000579498    0.000603197   -0.000569520
      9       14          -0.001446342    0.002741881    0.001789509
     10        8           0.000289883   -0.002772069   -0.002013162
     11        8           0.001970319    0.001307468    0.000876638
     12        8          -0.002582285    0.000588167    0.000608318
     13        8          -0.000288135    0.000648666    0.001216528
     14        1          -0.002044052    0.001580270   -0.000377084
     15        1           0.001700025   -0.000706672   -0.000699163
     16        1          -0.000224423    0.001328982    0.001174841
     17        1          -0.001790538   -0.001363905   -0.000558578
     18        1           0.001525501   -0.000723075   -0.001280385
 -------------------------------------------------------------------
 Cartesian Forces:  Max     0.003727738 RMS     0.001575646

 GradGradGradGradGradGradGradGradGradGradGradGradGradGradGradGradGradGrad
 Berny optimization.
 Using GEDIIS/GDIIS optimizer.
 FormGI is forming the generalized inverse of G from B-inverse, IUseBI=4.
 Internal  Forces:  Max     0.005363831 RMS     0.001707556
 Search for a local minimum.
 Step number   2 out of a maximum of   81
 All quantities printed in internal units (Hartrees-Bohrs-Radians)
 Mixed Optimization -- RFO/linear search
 Update second derivatives using D2CorX and points    1    2
 DE= -5.13D-03 DEPred=-4.16D-03 R= 1.23D+00
 TightC=F SS=  1.41D+00  RLast= 2.08D-01 DXNew= 5.0454D-01 6.2530D-01
 Trust test= 1.23D+00 RLast= 2.08D-01 DXMaxT set to 5.05D-01
 ITU=  1  0
 Use linear search instead of GDIIS.
     Eigenvalues ---    0.00359   0.01551   0.03311   0.03736   0.03740
     Eigenvalues ---    0.03811   0.03844   0.03851   0.03859   0.03870
     Eigenvalues ---    0.03876   0.06971   0.10638   0.10859   0.11252
     Eigenvalues ---    0.12038   0.12402   0.12444   0.13029   0.15102
     Eigenvalues ---    0.16000   0.16000   0.16000   0.16000   0.16000
     Eigenvalues ---    0.16225   0.17971   0.20597   0.20685   0.20846
     Eigenvalues ---    0.21309   0.41493   0.43810   0.44554   0.44680
     Eigenvalues ---    0.44762   0.44931   0.44989   0.49070   0.52368
     Eigenvalues ---    0.53118   0.53256   0.53292   0.53389   0.53464
     Eigenvalues ---    0.53747   0.539231000.000001000.000001000.00000
     Eigenvalues --- 1000.000001000.000001000.000001000.000001000.00000
     Eigenvalues --- 1000.000001000.000001000.000001000.000001000.00000
     Eigenvalues --- 1000.000001000.000001000.000001000.000001000.00000
     Eigenvalues --- 1000.000001000.000001000.000001000.000001000.00000
     Eigenvalues --- 1000.00000
 RFO step:  Lambda=-1.38822414D-03 EMin= 3.59334633D-03
 Quartic linear search produced a step of  0.46064.
 Iteration  1 RMS(Cart)=  0.10822511 RMS(Int)=  0.00338140
 Iteration  2 RMS(Cart)=  0.00606945 RMS(Int)=  0.00027424
 Iteration  3 RMS(Cart)=  0.00001646 RMS(Int)=  0.00027413
 Iteration  4 RMS(Cart)=  0.00000001 RMS(Int)=  0.00027413
 Iteration  1 RMS(Cart)=  0.00008966 RMS(Int)=  0.00001031
 Iteration  2 RMS(Cart)=  0.00000684 RMS(Int)=  0.00001067
 Iteration  3 RMS(Cart)=  0.00000052 RMS(Int)=  0.00001073
 Variable       Old X    -DE/DX   Delta X   Delta X   Delta X     New X
                                 (Linear)    (Quad)   (Total)
    R1        3.13800   0.00125   0.01321  -0.00418   0.00928   3.14728
    R2        3.11502   0.00036   0.01167  -0.00690   0.00477   3.11979
    R3        3.11780  -0.00016   0.01221  -0.00895   0.00326   3.12107
    R4        3.11151  -0.00043   0.00996  -0.00828   0.00169   3.11319
    R5       10.01555  -0.00342   0.00000   0.00000  -0.00000  10.01555
    R6        4.97029  -0.00237  -0.03643  -0.14719  -0.18333   4.78696
    R7        1.82619  -0.00062  -0.00434   0.00130  -0.00305   1.82315
    R8        1.82317  -0.00042  -0.00372   0.00143  -0.00228   1.82089
    R9        1.82454  -0.00087  -0.00379   0.00026  -0.00353   1.82101
   R10        1.82642  -0.00058  -0.00407   0.00122  -0.00285   1.82357
   R11        3.12229  -0.00050   0.01291  -0.01052   0.00238   3.12468
   R12        3.12620   0.00017   0.01424  -0.00926   0.00498   3.13118
   R13        3.10688   0.00012   0.00625  -0.00393   0.00232   3.10920
   R14        3.13572   0.00111   0.01612  -0.00685   0.00952   3.14525
   R15        1.82424  -0.00138  -0.00362  -0.00124  -0.00486   1.81938
   R16        1.82567  -0.00107  -0.00356  -0.00046  -0.00402   1.82165
   R17        1.82385  -0.00104  -0.00236  -0.00117  -0.00353   1.82032
   R18        1.82714  -0.00046  -0.00506   0.00279  -0.00203   1.82511
    A1        1.86660  -0.00277  -0.01551  -0.01001  -0.02496   1.84165
    A2        1.96140   0.00536   0.02305   0.02031   0.04334   2.00474
    A3        1.87283  -0.00334  -0.01565  -0.01493  -0.02998   1.84286
    A4        1.89539  -0.00218  -0.00673  -0.00999  -0.01629   1.87910
    A5        1.98496   0.00527   0.02569   0.02353   0.04893   2.03389
    A6        1.88437  -0.00200  -0.01003  -0.00755  -0.01709   1.86728
    A7        2.09190  -0.00368  -0.00909  -0.02744  -0.03629   2.05562
    A8        1.98671   0.00320   0.01255   0.01460   0.02663   2.01333
    A9        2.06826  -0.00011  -0.00508  -0.00323  -0.00854   2.05972
   A10        2.02102   0.00166   0.01305   0.00609   0.01913   2.04015
   A11        2.02031   0.00129   0.01569   0.00090   0.01658   2.03690
   A12        2.04149   0.00215   0.01837   0.00683   0.02521   2.06669
   A13        1.92852   0.00036   0.00543   0.00021   0.00540   1.93392
   A14        1.88913  -0.00065  -0.00922  -0.00078  -0.00997   1.87917
   A15        1.92326   0.00049   0.00667   0.00098   0.00745   1.93070
   A16        1.90607  -0.00041  -0.00596  -0.00087  -0.00680   1.89928
   A17        1.90586   0.00043   0.00751   0.00050   0.00784   1.91370
   A18        1.91081  -0.00025  -0.00448  -0.00006  -0.00447   1.90633
   A19        2.02155   0.00205   0.02191   0.00348   0.02539   2.04694
   A20        2.02606   0.00267   0.01978   0.01054   0.03032   2.05638
   A21        2.02572   0.00305   0.01856   0.01483   0.03338   2.05910
   A22        1.99533   0.00226   0.01446   0.01450   0.02942   2.02475
   A23        2.42022   0.00032   0.00164   0.00389   0.00613   2.42635
    D1       -1.73057  -0.00092  -0.00284   0.00692   0.00370  -1.72688
    D2        0.86587  -0.00188  -0.00693  -0.02252  -0.03006   0.83582
    D3        2.47426   0.00043   0.00149   0.01385   0.01541   2.48967
    D4       -1.21248  -0.00054  -0.00260  -0.01559  -0.01834  -1.23082
    D5        0.40544   0.00191   0.00987   0.02088   0.03141   0.43685
    D6        3.00188   0.00095   0.00578  -0.00855  -0.00234   2.99954
    D7       -2.71341  -0.00223  -0.01019  -0.01018  -0.02088  -2.73429
    D8       -0.59282   0.00135   0.00454   0.00266   0.00737  -0.58546
    D9        1.50554   0.00068   0.00380   0.00124   0.00539   1.51093
   D10       -1.73604   0.00064   0.00439   0.01471   0.01915  -1.71689
   D11        2.48572   0.00225   0.01376   0.02134   0.03510   2.52082
   D12        0.32598  -0.00160  -0.00731   0.00344  -0.00392   0.32206
   D13       -0.66332   0.00258   0.01390   0.02528   0.03984  -0.62348
   D14        1.39733   0.00002   0.00006   0.01677   0.01649   1.41382
   D15       -2.78129  -0.00079   0.00112   0.01382   0.01462  -2.76667
   D16       -0.94329  -0.00009  -0.01427  -0.08620  -0.10025  -1.04354
   D17        2.76845  -0.00002  -0.01512  -0.06034  -0.07600   2.69245
   D18        2.25844  -0.00049  -0.00760   0.00195  -0.00573   2.25270
   D19        0.17206   0.00019   0.00215   0.00337   0.00551   0.17757
   D20       -1.91698   0.00060   0.00926   0.00334   0.01270  -1.90428
   D21        1.15346   0.00144   0.01806   0.02423   0.04238   1.19584
   D22       -3.05361   0.00061   0.00634   0.02286   0.02921  -3.02440
   D23       -0.96465   0.00032   0.00189   0.02256   0.02435  -0.94030
   D24        3.01074  -0.00008  -0.00080  -0.00045  -0.00123   3.00951
   D25        0.91030   0.00011   0.00182   0.00027   0.00204   0.91233
   D26       -1.17560  -0.00002  -0.00101   0.00023  -0.00075  -1.17636
   D27       -1.00780  -0.00013  -0.00225   0.01148   0.00912  -0.99868
   D28        1.11350   0.00091   0.01309   0.01268   0.02587   1.13937
   D29       -3.08365   0.00052   0.00773   0.01188   0.01960  -3.06405
   D30       -1.43858   0.00009   0.00440  -0.04259  -0.03870  -1.47728
         Item               Value     Threshold  Converged?
 Maximum Force            0.005364     0.000450     NO 
 RMS     Force            0.001667     0.000300     NO 
 Maximum Displacement     0.280846     0.001800     NO 
 RMS     Displacement     0.110870     0.001200     NO 
 Predicted change in Energy=-1.141241D-03
 GradGradGradGradGradGradGradGradGradGradGradGradGradGradGradGradGradGrad

                          Input orientation:                          
 ---------------------------------------------------------------------
 Center     Atomic      Atomic             Coordinates (Angstroms)
 Number     Number       Type             X           Y           Z
 ---------------------------------------------------------------------
      1         14           0       -7.173212    0.400849   -0.002193
      2          8           0       -5.542787    0.184552    0.259948
      3          8           0       -7.342464    1.980040   -0.452804
      4          8           0       -8.128426    0.152405    1.322047
      5          8           0       -7.596063   -0.732854   -1.120203
      6          1           0       -6.961872   -0.953013   -1.813412
      7          1           0       -8.556040   -0.708301    1.392237
      8          1           0       -8.207045    2.382411   -0.314714
      9         14           0       -3.313571   -2.957309   -1.386382
     10          8           0       -1.753590   -2.510529   -1.068683
     11          8           0       -4.085100   -3.428907    0.002078
     12          8           0       -3.266176   -4.231477   -2.426249
     13          8           0       -4.149929   -1.703875   -2.093213
     14          1           0       -4.180192   -0.878954   -1.591844
     15          1           0       -4.093283   -4.683319   -2.625311
     16          1           0       -1.062182   -2.907866   -1.608135
     17          1           0       -4.273275   -2.753641    0.663781
     18          1           0       -5.118882    0.858720    0.804542
 ---------------------------------------------------------------------
                    Distance matrix (angstroms):
                    1          2          3          4          5
     1  Si   0.000000
     2  O    1.665469   0.000000
     3  O    1.650921   2.640195   0.000000
     4  O    1.651597   2.795463   2.666099   0.000000
     5  O    1.647432   2.638635   2.805268   2.651732   0.000000
     6  H    2.271149   2.758021   3.255596   3.523337   0.964991
     7  H    2.255408   3.340502   3.479098   0.963637   2.689705
     8  H    2.256783   3.501299   0.963573   2.767327   3.275208
     9  Si   5.300003   4.189403   6.440572   6.339459   4.833094
    10  O    6.243863   4.835984   7.195834   7.310632   6.107150
    11  O    4.919704   3.904924   6.330406   5.560270   4.566736
    12  O    6.526823   5.648002   7.687233   7.543847   5.717871
    13  O    4.235856   3.323189   5.143390   5.562214   3.710185
    14  H    3.622575   2.533149   4.412621   5.014281   3.451372
    15  H    6.497344   5.841400   7.725110   7.432916   5.490082
    16  H    7.132414   5.755746   8.041664   8.239116   6.903649
    17  H    4.336353   3.226099   5.751036   4.872433   4.278680
    18  H    2.254049   0.964769   2.789729   3.134333   3.517694
                    6          7          8          9         10
     6  H    0.000000
     7  H    3.588515   0.000000
     8  H    3.862850   3.547955   0.000000
     9  Si   4.184455   6.345253   7.321692   0.000000
    10  O    5.486956   7.455030   8.133660   1.653507   0.000000
    11  O    4.207359   5.415121   7.131775   1.656949   2.725048
    12  O    4.978159   7.414598   8.521402   1.645319   2.663187
    13  O    2.923886   5.705554   6.026690   1.664392   2.728148
    14  H    2.791473   5.299236   5.336957   2.261152   2.970544
    15  H    4.775266   7.201226   8.496261   2.263185   3.552220
    16  H    6.218516   8.366494   8.983821   2.262824   0.962772
    17  H    4.075206   4.801680   6.543014   2.272814   3.067467
    18  H    3.678677   3.822956   3.620928   4.756193   5.117226
                   11         12         13         14         15
    11  O    0.000000
    12  O    2.685429   0.000000
    13  O    2.714808   2.698278   0.000000
    14  H    3.008636   3.573663   0.965807   0.000000
    15  H    2.911492   0.963272   3.027115   3.943197   0.000000
    16  H    3.464435   2.697934   3.349489   3.720045   3.657110
    17  H    0.963974   3.570230   2.952667   2.934443   3.817615
    18  H    4.482901   6.307189   3.987825   3.105368   6.597722
                   16         17         18
    16  H    0.000000
    17  H    3.936561   0.000000
    18  H    6.038626   3.712683   0.000000
 Stoichiometry    H8O8Si2
 Framework group  C1[X(H8O8Si2)]
 Deg. of freedom    48
 Full point group                 C1      NOp   1
 Largest Abelian subgroup         C1      NOp   1
 Largest concise Abelian subgroup C1      NOp   1
                         Standard orientation:                         
 ---------------------------------------------------------------------
 Center     Atomic      Atomic             Coordinates (Angstroms)
 Number     Number       Type             X           Y           Z
 ---------------------------------------------------------------------
      1         14           0       -2.649943   -0.003654   -0.017357
      2          8           0       -1.398168    0.898693    0.609235
      3          8           0       -3.653016    1.082602   -0.751818
      4          8           0       -3.539435   -0.829288    1.102868
      5          8           0       -1.941307   -1.126882   -0.992152
      6          1           0       -1.156401   -0.871359   -1.491989
      7          1           0       -3.323717   -1.760302    1.226460
      8          1           0       -4.572824    0.818887   -0.865310
      9         14           0        2.649980    0.000714    0.011546
     10          8           0        3.415823    1.357324    0.565782
     11          8           0        2.018170   -0.873753    1.269164
     12          8           0        3.768427   -0.921270   -0.766976
     13          8           0        1.436778    0.406179   -1.053321
     14          1           0        0.758766    1.004942   -0.714846
     15          1           0        3.506671   -1.802659   -1.054256
     16          1           0        4.313550    1.515072    0.255729
     17          1           0        1.277488   -0.492972    1.754595
     18          1           0       -1.662231    1.680715    1.108726
 ---------------------------------------------------------------------
 Rotational constants (GHZ):           1.9903382           0.3161258           0.3129028
 Standard basis: 6-31+G(d,p) (6D, 7F)
 There are   238 symmetry adapted cartesian basis functions of A   symmetry.
 There are   238 symmetry adapted basis functions of A   symmetry.
   238 basis functions,   424 primitive gaussians,   238 cartesian basis functions
    50 alpha electrons       50 beta electrons
       nuclear repulsion energy       783.1114290857 Hartrees.
 NAtoms=   18 NActive=   18 NUniq=   18 SFac= 1.00D+00 NAtFMM=   60 NAOKFM=F Big=F
 Integral buffers will be    131072 words long.
 Raffenetti 2 integral format.
 Two-electron integral symmetry is turned on.
 Nuclear repulsion after empirical dispersion term =      783.0996524327 Hartrees.
 One-electron integrals computed using PRISM.
 NBasis=   238 RedAO= T EigKep=  2.88D-04  NBF=   238
 NBsUse=   238 1.00D-06 EigRej= -1.00D+00 NBFU=   238
 Initial guess from the checkpoint file:  "/localscratch/sarashs.36560095.0/Gau-7023.chk"
 B after Tr=     0.000000    0.000000    0.000000
         Rot=    0.999477   -0.032313   -0.001199   -0.000325 Ang=  -3.71 deg.
 ExpMin= 3.31D-02 ExpMax= 1.61D+04 ExpMxC= 2.43D+03 IAcc=3 IRadAn=         5 AccDes= 0.00D+00
 Harris functional with IExCor=  402 and IRadAn=       5 diagonalized for initial guess.
 HarFok:  IExCor=  402 AccDes= 0.00D+00 IRadAn=         5 IDoV= 1 UseB2=F ITyADJ=14
 ICtDFT=  3500011 ScaDFX=  1.000000  1.000000  1.000000  1.000000
 FoFCou: FMM=F IPFlag=           0 FMFlag=      100000 FMFlg1=           0
         NFxFlg=           0 DoJE=T BraDBF=F KetDBF=T FulRan=T
         wScrn=  0.000000 ICntrl=       500 IOpCl=  0 I1Cent=   200000004 NGrid=           0
         NMat0=    1 NMatS0=      1 NMatT0=    0 NMatD0=    1 NMtDS0=    0 NMtDT0=    0
 Petite list used in FoFCou.
 Requested convergence on RMS density matrix=1.00D-08 within 128 cycles.
 Requested convergence on MAX density matrix=1.00D-06.
 Requested convergence on             energy=1.00D-06.
 No special actions if energy rises.
 SCF Done:  E(RB3LYP) =  -1186.05256133     A.U. after   10 cycles
            NFock= 10  Conv=0.33D-08     -V/T= 2.0068
 Calling FoFJK, ICntrl=      2127 FMM=F ISym2X=0 I1Cent= 0 IOpClX= 0 NMat=1 NMatS=1 NMatT=0.
 ***** Axes restored to original set *****
 -------------------------------------------------------------------
 Center     Atomic                   Forces (Hartrees/Bohr)
 Number     Number              X              Y              Z
 -------------------------------------------------------------------
      1       14           0.002709343   -0.003378862   -0.002390807
      2        8          -0.000557345   -0.000995134   -0.000105833
      3        8           0.000718416   -0.002023933    0.001576938
      4        8           0.000319371    0.001928762   -0.002439281
      5        8          -0.000652079    0.002418965    0.001518854
      6        1           0.001289851   -0.001077870    0.000137865
      7        1           0.000681327   -0.001004279    0.000173458
      8        1          -0.000526154    0.000098569   -0.000015476
      9       14          -0.002734826    0.002613214    0.001018934
     10        8          -0.003075262   -0.000489056    0.000322704
     11        8           0.003028588    0.000597772   -0.002018755
     12        8          -0.000403590    0.001429153    0.000922130
     13        8           0.000922052   -0.002338963    0.001311447
     14        1          -0.001442360    0.001459675    0.001721551
     15        1           0.000096434   -0.000120008   -0.000106314
     16        1           0.000222416   -0.000208154   -0.000549334
     17        1          -0.001311798    0.000300455   -0.000421171
     18        1           0.000715614    0.000789693   -0.000656910
 -------------------------------------------------------------------
 Cartesian Forces:  Max     0.003378862 RMS     0.001471224

 GradGradGradGradGradGradGradGradGradGradGradGradGradGradGradGradGradGrad
 Berny optimization.
 Using GEDIIS/GDIIS optimizer.
 FormGI is forming the generalized inverse of G from B-inverse, IUseBI=4.
 Internal  Forces:  Max     0.004014469 RMS     0.001220550
 Search for a local minimum.
 Step number   3 out of a maximum of   81
 All quantities printed in internal units (Hartrees-Bohrs-Radians)
 Mixed Optimization -- RFO/linear search
 Update second derivatives using D2CorX and points    1    2    3
 DE= -1.63D-03 DEPred=-1.14D-03 R= 1.43D+00
 TightC=F SS=  1.41D+00  RLast= 2.76D-01 DXNew= 8.4853D-01 8.2809D-01
 Trust test= 1.43D+00 RLast= 2.76D-01 DXMaxT set to 8.28D-01
 ITU=  1  1  0
 Use linear search instead of GDIIS.
     Eigenvalues ---    0.00387   0.00974   0.03055   0.03599   0.03739
     Eigenvalues ---    0.03809   0.03844   0.03851   0.03857   0.03870
     Eigenvalues ---    0.03876   0.06817   0.10518   0.10872   0.11175
     Eigenvalues ---    0.11902   0.12374   0.12521   0.12604   0.14941
     Eigenvalues ---    0.16000   0.16000   0.16000   0.16000   0.16018
     Eigenvalues ---    0.16872   0.18173   0.20677   0.20851   0.20919
     Eigenvalues ---    0.21806   0.41422   0.43788   0.44569   0.44683
     Eigenvalues ---    0.44775   0.44932   0.44997   0.50528   0.52657
     Eigenvalues ---    0.53116   0.53263   0.53367   0.53459   0.53556
     Eigenvalues ---    0.53795   0.618171000.000001000.000001000.00000
     Eigenvalues --- 1000.000001000.000001000.000001000.000001000.00000
     Eigenvalues --- 1000.000001000.000001000.000001000.000001000.00000
     Eigenvalues --- 1000.000001000.000001000.000001000.000001000.00000
     Eigenvalues --- 1000.000001000.000001000.000001000.000001000.00000
     Eigenvalues --- 1000.00000
 RFO step:  Lambda=-9.70024563D-04 EMin= 3.86834099D-03
 Quartic linear search produced a step of  0.62465.
 Iteration  1 RMS(Cart)=  0.13951735 RMS(Int)=  0.00815684
 Iteration  2 RMS(Cart)=  0.01620524 RMS(Int)=  0.00094302
 Iteration  3 RMS(Cart)=  0.00013186 RMS(Int)=  0.00094124
 Iteration  4 RMS(Cart)=  0.00000050 RMS(Int)=  0.00094124
 Iteration  1 RMS(Cart)=  0.00061787 RMS(Int)=  0.00007696
 Iteration  2 RMS(Cart)=  0.00005300 RMS(Int)=  0.00007993
 Iteration  3 RMS(Cart)=  0.00000455 RMS(Int)=  0.00008044
 Iteration  4 RMS(Cart)=  0.00000039 RMS(Int)=  0.00008049
 Variable       Old X    -DE/DX   Delta X   Delta X   Delta X     New X
                                 (Linear)    (Quad)   (Total)
    R1        3.14728  -0.00159   0.00580  -0.00040   0.00721   3.15449
    R2        3.11979  -0.00229   0.00298  -0.00317  -0.00019   3.11960
    R3        3.12107  -0.00253   0.00204  -0.00341  -0.00137   3.11969
    R4        3.11319  -0.00221   0.00105  -0.00301  -0.00196   3.11124
    R5       10.01555  -0.00401  -0.00000   0.00000   0.00000  10.01555
    R6        4.78696  -0.00209  -0.11452  -0.13434  -0.24680   4.54016
    R7        1.82315   0.00050  -0.00190   0.00006  -0.00184   1.82131
    R8        1.82089   0.00051  -0.00143   0.00021  -0.00122   1.81967
    R9        1.82101   0.00061  -0.00221   0.00074  -0.00147   1.81954
   R10        1.82357   0.00099  -0.00178   0.00154  -0.00024   1.82332
   R11        3.12468  -0.00292   0.00149  -0.00422  -0.00273   3.12194
   R12        3.13118  -0.00310   0.00311  -0.00480  -0.00169   3.12949
   R13        3.10920  -0.00154   0.00145  -0.00271  -0.00126   3.10794
   R14        3.14525  -0.00262   0.00595  -0.00251   0.00540   3.15064
   R15        1.81938   0.00055  -0.00304   0.00097  -0.00207   1.81731
   R16        1.82165   0.00018  -0.00251  -0.00024  -0.00275   1.81890
   R17        1.82032  -0.00000  -0.00221  -0.00030  -0.00251   1.81781
   R18        1.82511   0.00093  -0.00127   0.00149   0.00190   1.82701
    A1        1.84165  -0.00011  -0.01559  -0.00241  -0.01749   1.82416
    A2        2.00474   0.00114   0.02707   0.00903   0.03608   2.04082
    A3        1.84286  -0.00104  -0.01873  -0.00805  -0.02626   1.81659
    A4        1.87910  -0.00084  -0.01017  -0.00548  -0.01534   1.86376
    A5        2.03389   0.00107   0.03056   0.00951   0.03986   2.07375
    A6        1.86728  -0.00008  -0.01067  -0.00157  -0.01181   1.85547
    A7        2.05562  -0.00343  -0.02267  -0.02975  -0.05001   2.00561
    A8        2.01333   0.00175   0.01663   0.00653   0.02041   2.03375
    A9        2.05972   0.00084  -0.00533  -0.00011  -0.00737   2.05235
   A10        2.04015  -0.00016   0.01195   0.00040   0.01236   2.05251
   A11        2.03690  -0.00077   0.01036  -0.00335   0.00701   2.04391
   A12        2.06669  -0.00032   0.01575   0.00006   0.01581   2.08250
   A13        1.93392  -0.00009   0.00337   0.00032   0.00360   1.93752
   A14        1.87917   0.00023  -0.00623   0.00003  -0.00618   1.87298
   A15        1.93070  -0.00024   0.00465  -0.00101   0.00357   1.93427
   A16        1.89928   0.00005  -0.00425  -0.00024  -0.00447   1.89481
   A17        1.91370   0.00002   0.00490   0.00142   0.00626   1.91996
   A18        1.90633   0.00003  -0.00280  -0.00056  -0.00333   1.90300
   A19        2.04694  -0.00042   0.01586   0.00085   0.01671   2.06365
   A20        2.05638   0.00019   0.01894   0.00427   0.02321   2.07959
   A21        2.05910   0.00034   0.02085   0.00440   0.02525   2.08435
   A22        2.02475   0.00149   0.01838   0.01814   0.03919   2.06394
   A23        2.42635   0.00177   0.00383   0.01355   0.02115   2.44751
    D1       -1.72688   0.00019   0.00231   0.01758   0.01965  -1.70723
    D2        0.83582  -0.00090  -0.01878  -0.02137  -0.04064   0.79517
    D3        2.48967   0.00066   0.00963   0.02089   0.03057   2.52024
    D4       -1.23082  -0.00043  -0.01146  -0.01807  -0.02972  -1.26054
    D5        0.43685   0.00083   0.01962   0.02318   0.04336   0.48021
    D6        2.99954  -0.00026  -0.00146  -0.01578  -0.01693   2.98261
    D7       -2.73429  -0.00061  -0.01304  -0.00666  -0.02009  -2.75438
    D8       -0.58546   0.00022   0.00460  -0.00031   0.00445  -0.58101
    D9        1.51093   0.00017   0.00337  -0.00027   0.00333   1.51426
   D10       -1.71689   0.00075   0.01196   0.01952   0.03148  -1.68542
   D11        2.52082   0.00078   0.02193   0.02090   0.04286   2.56368
   D12        0.32206   0.00006  -0.00245   0.01366   0.01117   0.33323
   D13       -0.62348   0.00105   0.02489   0.02724   0.05267  -0.57081
   D14        1.41382   0.00079   0.01030   0.02396   0.03395   1.44777
   D15       -2.76667   0.00033   0.00913   0.02186   0.03075  -2.73592
   D16       -1.04354  -0.00012  -0.06262   0.05149  -0.01151  -1.05506
   D17        2.69245   0.00076  -0.04747   0.08965   0.04039   2.73284
   D18        2.25270   0.00022  -0.00358   0.00306  -0.00055   2.25215
   D19        0.17757   0.00006   0.00344   0.00314   0.00658   0.18415
   D20       -1.90428   0.00002   0.00793   0.00439   0.01235  -1.89193
   D21        1.19584   0.00055   0.02647   0.02577   0.05228   1.24811
   D22       -3.02440   0.00081   0.01824   0.02586   0.04410  -2.98030
   D23       -0.94030   0.00089   0.01521   0.02587   0.04105  -0.89925
   D24        3.00951   0.00006  -0.00077   0.00045  -0.00031   3.00920
   D25        0.91233   0.00000   0.00127   0.00019   0.00144   0.91378
   D26       -1.17636  -0.00008  -0.00047  -0.00106  -0.00153  -1.17788
   D27       -0.99868   0.00065   0.00570   0.01812   0.02378  -0.97489
   D28        1.13937   0.00039   0.01616   0.01880   0.03500   1.17437
   D29       -3.06405   0.00049   0.01225   0.01903   0.03127  -3.03278
   D30       -1.47728  -0.00074  -0.02418  -0.11150  -0.13885  -1.61613
         Item               Value     Threshold  Converged?
 Maximum Force            0.003099     0.000450     NO 
 RMS     Force            0.001123     0.000300     NO 
 Maximum Displacement     0.364570     0.001800     NO 
 RMS     Displacement     0.150472     0.001200     NO 
 Predicted change in Energy=-7.416578D-04
 GradGradGradGradGradGradGradGradGradGradGradGradGradGradGradGradGradGrad

                          Input orientation:                          
 ---------------------------------------------------------------------
 Center     Atomic      Atomic             Coordinates (Angstroms)
 Number     Number       Type             X           Y           Z
 ---------------------------------------------------------------------
      1         14           0       -7.179318    0.409909   -0.016526
      2          8           0       -5.567655    0.159914    0.339209
      3          8           0       -7.255736    1.984881   -0.505225
      4          8           0       -8.253756    0.243534    1.225761
      5          8           0       -7.538860   -0.775762   -1.100747
      6          1           0       -6.858033   -1.077051   -1.714471
      7          1           0       -8.700163   -0.605519    1.308996
      8          1           0       -8.107891    2.429401   -0.446372
      9         14           0       -3.315700   -2.955968   -1.370543
     10          8           0       -1.752255   -2.457990   -1.178274
     11          8           0       -3.927159   -3.553745    0.047658
     12          8           0       -3.311210   -4.162236   -2.488477
     13          8           0       -4.272071   -1.706751   -1.922383
     14          1           0       -4.295939   -0.887585   -1.409425
     15          1           0       -4.120058   -4.655749   -2.654457
     16          1           0       -1.092983   -2.777874   -1.801058
     17          1           0       -4.124169   -2.945062    0.766778
     18          1           0       -5.131134    0.842582    0.861047
 ---------------------------------------------------------------------
                    Distance matrix (angstroms):
[...]

                          Input orientation:                          
 ---------------------------------------------------------------------
 Center     Atomic      Atomic             Coordinates (Angstroms)
 Number     Number       Type             X           Y           Z
 ---------------------------------------------------------------------
      1         14           0       -7.170436    0.509551   -0.112859
      2          8           0       -5.515493    0.697514   -0.210074
      3          8           0       -7.794662    1.398704   -1.352029
      4          8           0       -7.874506    1.096246    1.259806
      5          8           0       -7.402364   -1.114364   -0.157160
      6          1           0       -6.669220   -1.649979   -0.505783
      7          1           0       -7.890954    0.500146    2.017439
      8          1           0       -8.696956    1.719088   -1.240780
      9         14           0       -3.392988   -3.027527   -1.257412
     10          8           0       -2.093599   -2.484039   -0.401927
     11          8           0       -3.895184   -4.563484   -0.922988
     12          8           0       -2.945731   -3.024572   -2.844377
     13          8           0       -4.658764   -2.034066   -0.860191
     14          1           0       -4.490058   -1.094189   -0.675640
     15          1           0       -3.445730   -3.597078   -3.437264
     16          1           0       -1.223266   -2.712046   -0.748051
     17          1           0       -4.445033   -4.682127   -0.140282
     18          1           0       -5.199146    1.571153   -0.468938
 ---------------------------------------------------------------------
                    Distance matrix (angstroms):
                    1          2          3          4          5
     1  Si   0.000000
     2  O    1.668417   0.000000
     3  O    1.647966   2.643924   0.000000
     4  O    1.650496   2.807931   2.630501   0.000000
     5  O    1.640991   2.616483   2.810181   2.667865   0.000000
     6  H    2.251483   2.632347   3.358157   3.480197   0.972586
     7  H    2.248868   3.262450   3.488551   0.964164   2.752134
     8  H    2.250655   3.496809   0.963928   2.705049   3.298280
     9  Si   5.300003   4.413375   6.243012   6.589833   4.576663
    10  O    5.900798   4.676371   6.962794   6.999906   5.488069
    11  O    6.092558   5.550833   7.137064   7.254801   4.978277
    12  O    6.148118   5.234230   6.730870   7.623535   5.543610
    13  O    3.651984   2.935672   4.675433   4.963289   2.977826
    14  H    3.173820   2.116240   4.194333   4.471963   2.958168
    15  H    6.464480   5.756925   6.944008   7.981467   5.707706
    16  H    6.793451   5.507970   7.774721   7.922977   6.409601
    17  H    5.863624   5.485553   7.047329   6.863754   4.634115
    18  H    2.267108   0.964537   2.747051   3.220504   3.487603
                    6          7          8          9         10
     6  H    0.000000
     7  H    3.533033   0.000000
     8  H    4.000318   3.570917   0.000000
     9  Si   3.632668   6.587930   7.117774   0.000000
    10  O    4.652176   6.954712   7.872374   1.647922   0.000000
    11  O    4.044484   7.088910   7.913831   1.650213   2.800233
    12  O    4.606832   7.779212   7.625643   1.648789   2.642700
    13  O    2.077272   5.014982   5.526121   1.657389   2.644344
    14  H    2.255327   4.621762   5.092338   2.297785   2.783813
    15  H    4.772385   8.142545   7.788552   2.253646   3.504337
    16  H    5.553835   7.900897   8.702515   2.250927   0.963985
    17  H    3.778164   6.586812   7.763086   2.256652   3.229442
    18  H    3.540927   3.817716   3.585010   5.003174   5.108179
                   11         12         13         14         15
    11  O    0.000000
    12  O    2.638455   0.000000
    13  O    2.642906   2.802246   0.000000
    14  H    3.528606   3.288578   0.972569   0.000000
    15  H    2.730848   0.963990   3.248963   3.870612   0.000000
    16  H    3.255391   2.731142   3.503552   3.646180   3.599234
    17  H    0.963867   3.508208   2.752485   3.627938   3.611929
    18  H    6.288104   5.642808   3.666428   2.765788   6.212570
                   16         17         18
    16  H    0.000000
    17  H    3.824969   0.000000
    18  H    5.850753   6.307155   0.000000
 Stoichiometry    H8O8Si2
 Framework group  C1[X(H8O8Si2)]
 Deg. of freedom    48
 Full point group                 C1      NOp   1
 Largest Abelian subgroup         C1      NOp   1
 Largest concise Abelian subgroup C1      NOp   1
                         Standard orientation:                         
 ---------------------------------------------------------------------
 Center     Atomic      Atomic             Coordinates (Angstroms)
 Number     Number       Type             X           Y           Z
 ---------------------------------------------------------------------
      1         14           0       -2.651808   -0.008124   -0.023020
      2          8           0       -1.581572    1.075415    0.658270
      3          8           0       -3.415296    0.816068   -1.228667
      4          8           0       -3.847672   -0.551921    0.976145
      5          8           0       -1.720384   -1.287980   -0.455767
      6          1           0       -0.764683   -1.125054   -0.533317
      7          1           0       -3.628294   -1.311813    1.527552
      8          1           0       -4.294538    0.505711   -1.473144
      9         14           0        2.648089   -0.005466    0.010547
     10          8           0        3.017356    0.736304    1.434999
     11          8           0        3.245065   -1.530330   -0.193443
     12          8           0        3.314723    0.913760   -1.184914
     13          8           0        0.997400   -0.150505   -0.023047
     14          1           0        0.447614    0.541834    0.382281
     15          1           0        3.474044    0.477852   -2.029827
     16          1           0        3.864107    1.195255    1.475551
     17          1           0        2.760998   -2.248648    0.229330
     18          1           0       -1.884146    1.988637    0.727593
 ---------------------------------------------------------------------
 Rotational constants (GHZ):           2.0031905           0.3162512           0.3128908

 **********************************************************************

            Population analysis using the SCF Density.

 **********************************************************************

 Orbital symmetries:
       Occupied  (A) (A) (A) (A) (A) (A) (A) (A) (A) (A) (A) (A)
                 (A) (A) (A) (A) (A) (A) (A) (A) (A) (A) (A) (A)
                 (A) (A) (A) (A) (A) (A) (A) (A) (A) (A) (A) (A)
                 (A) (A) (A) (A) (A) (A) (A) (A) (A) (A) (A) (A)
                 (A) (A)
       Virtual   (A) (A) (A) (A) (A) (A) (A) (A) (A) (A) (A) (A)
                 (A) (A) (A) (A) (A) (A) (A) (A) (A) (A) (A) (A)
                 (A) (A) (A) (A) (A) (A) (A) (A) (A) (A) (A) (A)
                 (A) (A) (A) (A) (A) (A) (A) (A) (A) (A) (A) (A)
                 (A) (A) (A) (A) (A) (A) (A) (A) (A) (A) (A) (A)
                 (A) (A) (A) (A) (A) (A) (A) (A) (A) (A) (A) (A)
                 (A) (A) (A) (A) (A) (A) (A) (A) (A) (A) (A) (A)
                 (A) (A) (A) (A) (A) (A) (A) (A) (A) (A) (A) (A)
                 (A) (A) (A) (A) (A) (A) (A) (A) (A) (A) (A) (A)
                 (A) (A) (A) (A) (A) (A) (A) (A) (A) (A) (A) (A)
                 (A) (A) (A) (A) (A) (A) (A) (A) (A) (A) (A) (A)
                 (A) (A) (A) (A) (A) (A) (A) (A) (A) (A) (A) (A)
                 (A) (A) (A) (A) (A) (A) (A) (A) (A) (A) (A) (A)
                 (A) (A) (A) (A) (A) (A) (A) (A) (A) (A) (A) (A)
                 (A) (A) (A) (A) (A) (A) (A) (A) (A) (A) (A) (A)
                 (A) (A) (A) (A) (A) (A) (A) (A)
 The electronic state is 1-A.
 Alpha  occ. eigenvalues --  -66.22467 -66.22309 -19.17896 -19.17168 -19.17159
 Alpha  occ. eigenvalues --  -19.17120 -19.17118 -19.17056 -19.17054 -19.15916
 Alpha  occ. eigenvalues --   -5.35779  -5.35649  -3.71760  -3.71759  -3.71752
 Alpha  occ. eigenvalues --   -3.71665  -3.71620  -3.71590  -1.04924  -1.04657
 Alpha  occ. eigenvalues --   -1.01628  -1.01213  -1.01081  -1.00909  -1.00551
 Alpha  occ. eigenvalues --   -0.99941  -0.60178  -0.59760  -0.54451  -0.53801
 Alpha  occ. eigenvalues --   -0.53561  -0.53285  -0.52905  -0.52556  -0.41179
 Alpha  occ. eigenvalues --   -0.40970  -0.39401  -0.39210  -0.38573  -0.38439
 Alpha  occ. eigenvalues --   -0.38271  -0.37461  -0.36305  -0.36141  -0.35713
 Alpha  occ. eigenvalues --   -0.35433  -0.33467  -0.32949  -0.32839  -0.32258
 Alpha virt. eigenvalues --   -0.03147  -0.01594   0.00959   0.01608   0.01986
 Alpha virt. eigenvalues --    0.02451   0.03758   0.06563   0.10038   0.10191
 Alpha virt. eigenvalues --    0.10559   0.11467   0.12257   0.12325   0.12906
 Alpha virt. eigenvalues --    0.14010   0.14738   0.15071   0.15340   0.15492
 Alpha virt. eigenvalues --    0.15964   0.16259   0.16701   0.16950   0.17431
 Alpha virt. eigenvalues --    0.18471   0.18973   0.19198   0.19715   0.20327
 Alpha virt. eigenvalues --    0.21028   0.21862   0.22253   0.22605   0.23265
 Alpha virt. eigenvalues --    0.24131   0.24843   0.25525   0.26409   0.26645
 Alpha virt. eigenvalues --    0.27428   0.27576   0.28526   0.29873   0.30602
 Alpha virt. eigenvalues --    0.31648   0.32663   0.33446   0.34449   0.35766
 Alpha virt. eigenvalues --    0.36455   0.38409   0.38981   0.40648   0.42981
 Alpha virt. eigenvalues --    0.43284   0.43950   0.45704   0.47166   0.47574
 Alpha virt. eigenvalues --    0.49710   0.56721   0.60625   0.61428   0.61729
 Alpha virt. eigenvalues --    0.63349   0.67015   0.70319   0.92971   0.93551
 Alpha virt. eigenvalues --    0.94158   0.94641   0.95826   0.96189   0.98923
 Alpha virt. eigenvalues --    1.00019   1.00305   1.00819   1.01808   1.03349
 Alpha virt. eigenvalues --    1.05588   1.12707   1.15046   1.15544   1.16658
 Alpha virt. eigenvalues --    1.16908   1.18247   1.18387   1.18646   1.19203
 Alpha virt. eigenvalues --    1.19938   1.20840   1.22552   1.22801   1.23783
 Alpha virt. eigenvalues --    1.24682   1.25579   1.25758   1.26579   1.29404
 Alpha virt. eigenvalues --    1.30104   1.31224   1.32578   1.33501   1.36309
 Alpha virt. eigenvalues --    1.40000   1.47610   1.48493   1.49067   1.53256
 Alpha virt. eigenvalues --    1.54947   1.55624   1.56674   1.59028   1.59770
 Alpha virt. eigenvalues --    1.60954   1.61582   1.62310   1.62647   1.64643
 Alpha virt. eigenvalues --    1.65606   1.67202   1.70943   1.71831   1.73550
 Alpha virt. eigenvalues --    1.74182   1.76113   1.79124   1.87691   1.89602
 Alpha virt. eigenvalues --    1.90176   1.91342   1.93141   1.93461   2.03171
 Alpha virt. eigenvalues --    2.04315   2.11093   2.11731   2.34233   2.35541
 Alpha virt. eigenvalues --    2.37917   2.38209   2.38520   2.38939   2.39730
 Alpha virt. eigenvalues --    2.40587   2.45207   2.46812   2.57433   2.59379
 Alpha virt. eigenvalues --    2.59763   2.60503   2.60988   2.61140   2.61793
 Alpha virt. eigenvalues --    2.62738   2.63806   2.65214   2.65661   2.65998
 Alpha virt. eigenvalues --    2.66834   2.67651   2.69687   2.71259   2.78942
 Alpha virt. eigenvalues --    2.79873   2.80691   2.82771   2.84088   2.86109
 Alpha virt. eigenvalues --    3.00288   3.01785   3.40082   3.41564   3.42239
 Alpha virt. eigenvalues --    3.42620   3.45195   3.47000   3.52133   3.62315
 Alpha virt. eigenvalues --    4.11777   4.12542   4.17510   4.17892   4.19258
 Alpha virt. eigenvalues --    4.21906   4.29280   4.30357
          Condensed to atoms (all electrons):
               1          2          3          4          5          6
     1  Si  11.591420  -0.011100   0.097646   0.056796   0.155295   0.013902
     2  O   -0.011100   8.606911   0.052027   0.031350   0.028652  -0.001627
     3  O    0.097646   0.052027   8.451448   0.018446   0.000196  -0.004251
     4  O    0.056796   0.031350   0.018446   8.484998   0.042716   0.004216
     5  O    0.155295   0.028652   0.000196   0.042716   8.431522   0.230741
     6  H    0.013902  -0.001627  -0.004251   0.004216   0.230741   0.303217
     7  H    0.025238  -0.006240   0.006275   0.244196  -0.001964   0.000056
     8  H    0.022528   0.004537   0.244593  -0.001312  -0.005234   0.000006
     9  Si  -0.001065  -0.008539  -0.000171   0.000449  -0.003345   0.002221
    10  O   -0.000301  -0.001618   0.000019   0.000005  -0.000357   0.000143
    11  O   -0.000337   0.000925  -0.000019   0.000010   0.000624  -0.000482
    12  O   -0.001395  -0.000082   0.000054  -0.000000  -0.000169   0.000307
    13  O   -0.011713   0.006240   0.000087  -0.003879   0.012158   0.016207
    14  H    0.004997   0.005133  -0.000768   0.000441   0.000833   0.000631
    15  H   -0.000003  -0.000020  -0.000000   0.000000  -0.000017   0.000001
    16  H    0.000022   0.000039   0.000000  -0.000000   0.000004  -0.000001
    17  H   -0.000088   0.000008  -0.000000  -0.000000   0.000018  -0.000018
    18  H    0.030878   0.232941   0.000005  -0.006077   0.005676   0.000107
               7          8          9         10         11         12
     1  Si   0.025238   0.022528  -0.001065  -0.000301  -0.000337  -0.001395
     2  O   -0.006240   0.004537  -0.008539  -0.001618   0.000925  -0.000082
     3  O    0.006275   0.244593  -0.000171   0.000019  -0.000019   0.000054
     4  O    0.244196  -0.001312   0.000449   0.000005   0.000010  -0.000000
     5  O   -0.001964  -0.005234  -0.003345  -0.000357   0.000624  -0.000169
     6  H    0.000056   0.000006   0.002221   0.000143  -0.000482   0.000307
     7  H    0.359298   0.000083  -0.000041   0.000000  -0.000000   0.000000
     8  H    0.000083   0.359259  -0.000013  -0.000000  -0.000000  -0.000000
     9  Si  -0.000041  -0.000013  11.867993  -0.011611  -0.004946   0.038044
    10  O    0.000000  -0.000000  -0.011611   8.567202  -0.007631   0.043284
    11  O   -0.000000  -0.000000  -0.004946  -0.007631   8.499989   0.045168
    12  O    0.000000  -0.000000   0.038044   0.043284   0.045168   8.495831
    13  O    0.000034   0.000048  -0.068512   0.092071   0.108881   0.032534
    14  H    0.000000  -0.000002  -0.009753   0.001095   0.006131  -0.003558
    15  H   -0.000000  -0.000000   0.035161   0.006387  -0.003623   0.242903
    16  H    0.000000   0.000000   0.028592   0.233384  -0.004830  -0.002586
    17  H   -0.000000   0.000000   0.021066  -0.006846   0.248306   0.006296
    18  H    0.000064   0.000069   0.000336  -0.000034   0.000002   0.000001
              13         14         15         16         17         18
     1  Si  -0.011713   0.004997  -0.000003   0.000022  -0.000088   0.030878
     2  O    0.006240   0.005133  -0.000020   0.000039   0.000008   0.232941
     3  O    0.000087  -0.000768  -0.000000   0.000000  -0.000000   0.000005
     4  O   -0.003879   0.000441   0.000000  -0.000000  -0.000000  -0.006077
     5  O    0.012158   0.000833  -0.000017   0.000004   0.000018   0.005676
     6  H    0.016207   0.000631   0.000001  -0.000001  -0.000018   0.000107
     7  H    0.000034   0.000000  -0.000000   0.000000  -0.000000   0.000064
     8  H    0.000048  -0.000002  -0.000000   0.000000   0.000000   0.000069
     9  Si  -0.068512  -0.009753   0.035161   0.028592   0.021066   0.000336
    10  O    0.092071   0.001095   0.006387   0.233384  -0.006846  -0.000034
    11  O    0.108881   0.006131  -0.003623  -0.004830   0.248306   0.000002
    12  O    0.032534  -0.003558   0.242903  -0.002586   0.006296   0.000001
    13  O    8.552409   0.257913  -0.010229   0.004892  -0.001624   0.000333
    14  H    0.257913   0.308543   0.000068   0.000024   0.000058  -0.000135
    15  H   -0.010229   0.000068   0.357815   0.000074   0.000081  -0.000000
    16  H    0.004892   0.000024   0.000074   0.361788   0.000065   0.000000
    17  H   -0.001624   0.000058   0.000081   0.000065   0.360937   0.000000
    18  H    0.000333  -0.000135  -0.000000   0.000000   0.000000   0.347655
 Mulliken charges:
               1
     1  Si   2.027280
     2  O   -0.939538
     3  O   -0.865584
     4  O   -0.872354
     5  O   -0.897352
     6  H    0.434623
     7  H    0.373002
     8  H    0.375439
     9  Si   2.114133
    10  O   -0.915194
    11  O   -0.888168
    12  O   -0.896633
    13  O   -0.987852
    14  H    0.428347
    15  H    0.371401
    16  H    0.378531
    17  H    0.371739
    18  H    0.388177
 Sum of Mulliken charges =  -0.00000
 Mulliken charges with hydrogens summed into heavy atoms:
               1
     1  Si   2.027280
     2  O   -0.551360
     3  O   -0.490145
     4  O   -0.499352
     5  O   -0.462728
     9  Si   2.114133
    10  O   -0.536663
    11  O   -0.516429
    12  O   -0.525232
    13  O   -0.559505
 Electronic spatial extent (au):  <R**2>=           3417.6415
 Charge=              0.0000 electrons
 Dipole moment (field-independent basis, Debye):
    X=             -0.0239    Y=             -0.0239    Z=              0.4962  Tot=              0.4973
 Quadrupole moment (field-independent basis, Debye-Ang):
   XX=            -66.0281   YY=            -67.6776   ZZ=            -69.8816
   XY=              0.5373   XZ=             -0.3919   YZ=             -0.5362
 Traceless Quadrupole moment (field-independent basis, Debye-Ang):
   XX=              1.8343   YY=              0.1848   ZZ=             -2.0192
   XY=              0.5373   XZ=             -0.3919   YZ=             -0.5362
 Octapole moment (field-independent basis, Debye-Ang**2):
  XXX=             -5.6872  YYY=             -0.3338  ZZZ=            -12.6055  XYY=             -4.2465
  XXY=              9.8102  XXZ=             -9.5081  XZZ=              5.2816  YZZ=             -6.6150
  YYZ=             21.4878  XYZ=              7.1104
 Hexadecapole moment (field-independent basis, Debye-Ang**3):
 XXXX=          -3216.1749 YYYY=           -321.7374 ZZZZ=           -314.4318 XXXY=            113.0709
 XXXZ=            172.8497 YYYX=            -39.9393 YYYZ=              0.8408 ZZZX=            -60.4395
 ZZZY=            -10.8218 XXYY=           -615.0046 XXZZ=           -527.8497 YYZZ=           -114.9968
 XXYZ=              6.1717 YYXZ=             -3.9158 ZZXY=             26.8354
 N-N= 7.878766913738D+02 E-N=-4.385670209276D+03  KE= 1.178149887366D+03
 1\1\GINC-GRA1323\FOpt\RB3LYP\6-31+G(d,p)\H8O8Si2\SARASHS\29-Jul-2020\0
 \\#n B3LYP/6-31+G(d,p) EmpiricalDispersion=GD3 Opt=modredundant\\Title
 \\0,1\Si,-7.1704362896,0.5095505206,-0.1128592385\O,-5.5154934489,0.69
 75138636,-0.2100740205\O,-7.7946619292,1.398703726,-1.3520285318\O,-7.
 87450618,1.0962459048,1.2598062438\O,-7.4023640341,-1.1143638469,-0.15
 71595817\H,-6.6692195448,-1.6499787444,-0.5057834565\H,-7.8909540879,0
 .5001464153,2.0174390761\H,-8.6969560348,1.719088044,-1.2407801515\Si,
 -3.3929883929,-3.0275272829,-1.2574120491\O,-2.0935990051,-2.484038652
 3,-0.4019272807\O,-3.8951835895,-4.5634839857,-0.9229881889\O,-2.94573
 06041,-3.0245724569,-2.8443767979\O,-4.6587642752,-2.0340664459,-0.860
 1909395\H,-4.4900575625,-1.0941894761,-0.6756401699\H,-3.4457296473,-3
 .5970776217,-3.4372636483\H,-1.2232663095,-2.7120457829,-0.7480511732\
 H,-4.4450330474,-4.6821269361,-0.140281968\H,-5.1991460173,1.571152757
 6,-0.4689381239\\Version=ES64L-G16RevB.01\State=1-A\HF=-1186.0639126\R
 MSD=8.344e-09\RMSF=1.004e-03\Dipole=0.0746348,0.0345163,0.1775525\Quad
 rupole=0.3675743,0.2147144,-0.5822887,-0.771384,-1.2688112,-0.0667381\
 PG=C01 [X(H8O8Si2)]\\@


 ASKING DUMB QUESTIONS IS EASIER THAN CORECTING DUMB MISTAKES.
 Job cpu time:       0 days  3 hours 33 minutes  5.7 seconds.
 Elapsed time:       0 days  0 hours 17 minutes 37.6 seconds.
 File lengths (MBytes):  RWF=     40 Int=      0 D2E=      0 Chk=      5 Scr=      1
 Normal termination of Gaussian 16 at Wed Jul 29 17:47:15 2020.
