 Entering Gaussian System, Link 0=g16
 Initial command:
 /opt/software/gaussian/g16.b01/l1.exe "/localscratch/sarashs.37136504.0/Gau-11726.inp" -scrdir="/localscratch/sarashs.37136504.0/"
 Entering Link 1 = /opt/software/gaussian/g16.b01/l1.exe PID=     11727.
  
 Copyright (c) 1988-2017, Gaussian, Inc.  All Rights Reserved.
  
 This is part of the Gaussian(R) 16 program.  It is based on
 the Gaussian(R) 09 system (copyright 2009, Gaussian, Inc.),
 the Gaussian(R) 03 system (copyright 2003, Gaussian, Inc.),
 the Gaussian(R) 98 system (copyright 1998, Gaussian, Inc.),
 the Gaussian(R) 94 system (copyright 1995, Gaussian, Inc.),
 the Gaussian 92(TM) system (copyright 1992, Gaussian, Inc.),
 the Gaussian 90(TM) system (copyright 1990, Gaussian, Inc.),
 the Gaussian 88(TM) system (copyright 1988, Gaussian, Inc.),
 the Gaussian 86(TM) system (copyright 1986, Carnegie Mellon
 University), and the Gaussian 82(TM) system (copyright 1983,
 Carnegie Mellon University). Gaussian is a federally registered
 trademark of Gaussian, Inc.
  
 This software contains proprietary and confidential information,
 including trade secrets, belonging to Gaussian, Inc.
  
 This software is provided under written license and may be
 used, copied, transmitted, or stored only in accord with that
 written license.
  
 The following legend is applicable only to US Government
 contracts under FAR:
  
                    RESTRICTED RIGHTS LEGEND
  
 Use, reproduction and disclosure by the US Government is
 subject to restrictions as set forth in subparagraphs (a)
 and (c) of the Commercial Computer Software - Restricted
 Rights clause in FAR 52.227-19.
  
 Gaussian, Inc.
 340 Quinnipiac St., Bldg. 40, Wallingford CT 06492
  
  
 ---------------------------------------------------------------
 Warning -- This program may not be used in any manner that
 competes with the business of Gaussian, Inc. or will provide
 assistance to any competitor of Gaussian, Inc.  The licensee
 of this program is prohibited from giving any competitor of
 Gaussian, Inc. access to this program.  By using this program,
 the user acknowledges that Gaussian, Inc. is engaged in the
 business of creating and licensing software in the field of
 computational chemistry and represents and warrants to the
 licensee that it is not a competitor of Gaussian, Inc. and that
 it will not use this program in any manner prohibited above.
 ---------------------------------------------------------------
  

 Cite this work as:
 Gaussian 16, Revision B.01,
 M. J. Frisch, G. W. Trucks, H. B. Schlegel, G. E. Scuseria, 
 M. A. Robb, J. R. Cheeseman, G. Scalmani, V. Barone, 
 G. A. Petersson, H. Nakatsuji, X. Li, M. Caricato, A. V. Marenich, 
 J. Bloino, B. G. Janesko, R. Gomperts, B. Mennucci, H. P. Hratchian, 
 J. V. Ortiz, A. F. Izmaylov, J. L. Sonnenberg, D. Williams-Young, 
 F. Ding, F. Lipparini, F. Egidi, J. Goings, B. Peng, A. Petrone, 
 T. Henderson, D. Ranasinghe, V. G. Zakrzewski, J. Gao, N. Rega, 
 G. Zheng, W. Liang, M. Hada, M. Ehara, K. Toyota, R. Fukuda, 
 J. Hasegawa, M. Ishida, T. Nakajima, Y. Honda, O. Kitao, H. Nakai, 
 T. Vreven, K. Throssell, J. A. Montgomery, Jr., J. E. Peralta, 
 F. Ogliaro, M. J. Bearpark, J. J. Heyd, E. N. Brothers, K. N. Kudin, 
 V. N. Staroverov, T. A. Keith, R. Kobayashi, J. Normand, 
 K. Raghavachari, A. P. Rendell, J. C. Burant, S. S. Iyengar, 
 J. Tomasi, M. Cossi, J. M. Millam, M. Klene, C. Adamo, R. Cammi, 
 J. W. Ochterski, R. L. Martin, K. Morokuma, O. Farkas, 
 J. B. Foresman, and D. J. Fox, Gaussian, Inc., Wallingford CT, 2016.
 
 ******************************************
 Gaussian 16:  ES64L-G16RevB.01 20-Dec-2017
                11-Aug-2020 
 ******************************************
 %NProcShared=16
 Will use up to   16 processors via shared memory.
 -------------------------------------------------------------
 #n B3LYP/6-31+G(d,p) EmpiricalDispersion=GD3 Opt=modredundant
 -------------------------------------------------------------
 1/18=120,19=15,26=3,38=1/1,3;
 2/9=110,12=2,17=6,18=5,40=1/2;
 3/5=1,6=6,7=111,11=2,25=1,30=1,71=1,74=-5,124=31/1,2,3;
 4//1;
 5/5=2,38=5/2;
 6/7=2,8=2,9=2,10=2,28=1/1;
 7//1,2,3,16;
 1/18=20,19=15,26=3/3(2);
 2/9=110/2;
 99//99;
 2/9=110/2;
 3/5=1,6=6,7=111,11=2,25=1,30=1,71=1,74=-5,124=31/1,2,3;
 4/5=5,16=3,69=1/1;
 5/5=2,38=5/2;
 7//1,2,3,16;
 1/18=20,19=15,26=3/3(-5);
 2/9=110/2;
 6/7=2,8=2,9=2,10=2,19=2,28=1/1;
 99/9=1/99;
 -----
 Title
 -----
 Symbolic Z-matrix:
 Charge =  0 Multiplicity = 1
 Si                   -1.97199   0.03198   0.02178 
 O                    -1.49839  -1.04281  -1.16096 
 O                    -3.61529   0.07731   0.01517 
 O                    -1.38578   1.53664  -0.16122 
 O                    -1.32513  -0.62357   1.41007 
 H                    -1.61852  -1.51781   1.62751 
 H                    -0.41713   1.65614  -0.27249 
 H                    -4.03179   0.8972    0.30533 
 Si                    4.02664  -0.0684   -0.05834 
 O                     5.66404   0.03142  -0.13458 
 O                     3.42546   1.4652   -0.39511 
 O                     3.61929  -0.51454   1.47404 
 O                     3.43379  -1.06217  -1.2129 
 H                     2.47446  -1.20603  -1.28469 
 H                     2.66685  -0.58465   1.6601 
 H                     6.16175  -0.59824   0.39864 
 H                     3.89273   2.18734   0.04407 
 H                    -1.95012  -0.97878  -2.01163 
 
 Add virtual bond connecting atoms O11        and H7         Dist= 7.27D+00.
 Add virtual bond connecting atoms H14        and O2         Dist= 7.52D+00.
 Add virtual bond connecting atoms H15        and O5         Dist= 7.56D+00.
 The following ModRedundant input section has been read:
 B       1       9 F                                                           
 

 GradGradGradGradGradGradGradGradGradGradGradGradGradGradGradGradGradGrad
 Berny optimization.
 Initialization pass.
                           ----------------------------
                           !    Initial Parameters    !
                           ! (Angstroms and Degrees)  !
 --------------------------                            --------------------------
 ! Name  Definition              Value          Derivative Info.                !
 --------------------------------------------------------------------------------
 ! R1    R(1,2)                  1.6668         estimate D2E/DX2                !
 ! R2    R(1,3)                  1.6439         estimate D2E/DX2                !
 ! R3    R(1,4)                  1.6252         estimate D2E/DX2                !
 ! R4    R(1,5)                  1.666          estimate D2E/DX2                !
 ! R5    R(1,9)                  6.0            Frozen                          !
 ! R6    R(2,14)                 3.9781         estimate D2E/DX2                !
 ! R7    R(2,18)                 0.9653         estimate D2E/DX2                !
 ! R8    R(3,8)                  0.9643         estimate D2E/DX2                !
 ! R9    R(4,7)                  0.9823         estimate D2E/DX2                !
 ! R10   R(5,6)                  0.9659         estimate D2E/DX2                !
 ! R11   R(5,15)                 4.0            estimate D2E/DX2                !
 ! R12   R(7,11)                 3.8493         estimate D2E/DX2                !
 ! R13   R(9,10)                 1.6422         estimate D2E/DX2                !
 ! R14   R(9,11)                 1.6813         estimate D2E/DX2                !
 ! R15   R(9,12)                 1.6472         estimate D2E/DX2                !
 ! R16   R(9,13)                 1.6346         estimate D2E/DX2                !
 ! R17   R(10,16)                0.9636         estimate D2E/DX2                !
 ! R18   R(11,17)                0.9658         estimate D2E/DX2                !
 ! R19   R(12,15)                0.973          estimate D2E/DX2                !
 ! R20   R(13,14)                0.9727         estimate D2E/DX2                !
 ! A1    A(2,1,3)              107.3944         estimate D2E/DX2                !
 ! A2    A(2,1,4)              114.4947         estimate D2E/DX2                !
 ! A3    A(2,1,5)              103.1351         estimate D2E/DX2                !
 ! A4    A(3,1,4)              109.5475         estimate D2E/DX2                !
 ! A5    A(3,1,5)              113.7235         estimate D2E/DX2                !
 ! A6    A(4,1,5)              108.5478         estimate D2E/DX2                !
 ! A7    A(1,2,14)             109.4072         estimate D2E/DX2                !
 ! A8    A(1,2,18)             116.7164         estimate D2E/DX2                !
 ! A9    A(14,2,18)            116.2738         estimate D2E/DX2                !
 ! A10   A(1,3,8)              116.9996         estimate D2E/DX2                !
 ! A11   A(1,4,7)              118.7559         estimate D2E/DX2                !
 ! A12   A(1,5,6)              115.7177         estimate D2E/DX2                !
 ! A13   A(1,5,15)             115.8334         estimate D2E/DX2                !
 ! A14   A(6,5,15)             107.3415         estimate D2E/DX2                !
 ! A15   A(10,9,11)            106.9645         estimate D2E/DX2                !
 ! A16   A(10,9,12)            107.8323         estimate D2E/DX2                !
 ! A17   A(10,9,13)            111.4555         estimate D2E/DX2                !
 ! A18   A(11,9,12)            110.1803         estimate D2E/DX2                !
 ! A19   A(11,9,13)            106.4619         estimate D2E/DX2                !
 ! A20   A(12,9,13)            113.749          estimate D2E/DX2                !
 ! A21   A(9,10,16)            116.7175         estimate D2E/DX2                !
 ! A22   A(7,11,9)             113.3167         estimate D2E/DX2                !
 ! A23   A(7,11,17)            115.5574         estimate D2E/DX2                !
 ! A24   A(9,11,17)            114.7058         estimate D2E/DX2                !
 ! A25   A(9,12,15)            116.0722         estimate D2E/DX2                !
 ! A26   A(9,13,14)            119.9822         estimate D2E/DX2                !
 ! A27   A(5,15,12)            164.9466         estimate D2E/DX2                !
 ! A28   L(4,7,11,2,-1)        172.3705         estimate D2E/DX2                !
 ! A29   L(2,14,13,15,-1)      171.9022         estimate D2E/DX2                !
 ! A30   L(4,7,11,2,-2)        188.3749         estimate D2E/DX2                !
 ! A31   L(2,14,13,15,-2)      189.4768         estimate D2E/DX2                !
 ! D1    D(3,1,2,14)           179.1862         estimate D2E/DX2                !
 ! D2    D(3,1,2,18)            44.5394         estimate D2E/DX2                !
 ! D3    D(4,1,2,14)            57.3137         estimate D2E/DX2                !
 ! D4    D(4,1,2,18)           -77.3331         estimate D2E/DX2                !
 ! D5    D(5,1,2,14)           -60.4138         estimate D2E/DX2                !
 ! D6    D(5,1,2,18)           164.9394         estimate D2E/DX2                !
 ! D7    D(2,1,3,8)           -151.7167         estimate D2E/DX2                !
 ! D8    D(4,1,3,8)            -26.8074         estimate D2E/DX2                !
 ! D9    D(5,1,3,8)             94.8432         estimate D2E/DX2                !
 ! D10   D(2,1,4,7)            -52.8688         estimate D2E/DX2                !
 ! D11   D(3,1,4,7)           -173.5574         estimate D2E/DX2                !
 ! D12   D(5,1,4,7)             61.7309         estimate D2E/DX2                !
 ! D13   D(2,1,5,6)            -59.1788         estimate D2E/DX2                !
 ! D14   D(2,1,5,15)            67.7452         estimate D2E/DX2                !
 ! D15   D(3,1,5,6)             56.7888         estimate D2E/DX2                !
 ! D16   D(3,1,5,15)          -176.2871         estimate D2E/DX2                !
 ! D17   D(4,1,5,6)            178.9933         estimate D2E/DX2                !
 ! D18   D(4,1,5,15)           -54.0827         estimate D2E/DX2                !
 ! D19   D(1,2,13,9)             1.7003         estimate D2E/DX2                !
 ! D20   D(18,2,13,9)          135.2017         estimate D2E/DX2                !
 ! D21   D(1,4,11,9)            -7.6596         estimate D2E/DX2                !
 ! D22   D(1,4,11,17)         -141.8376         estimate D2E/DX2                !
 ! D23   D(1,5,15,12)          -12.2639         estimate D2E/DX2                !
 ! D24   D(6,5,15,12)          118.7509         estimate D2E/DX2                !
 ! D25   D(11,9,10,16)         152.8749         estimate D2E/DX2                !
 ! D26   D(12,9,10,16)          34.385          estimate D2E/DX2                !
 ! D27   D(13,9,10,16)         -91.1347         estimate D2E/DX2                !
 ! D28   D(10,9,11,7)         -179.3297         estimate D2E/DX2                !
 ! D29   D(10,9,11,17)         -43.6528         estimate D2E/DX2                !
 ! D30   D(12,9,11,7)          -62.3791         estimate D2E/DX2                !
 ! D31   D(12,9,11,17)          73.2978         estimate D2E/DX2                !
 ! D32   D(13,9,11,7)           61.4016         estimate D2E/DX2                !
 ! D33   D(13,9,11,17)        -162.9215         estimate D2E/DX2                !
 ! D34   D(10,9,12,15)         178.2709         estimate D2E/DX2                !
 ! D35   D(11,9,12,15)          61.8614         estimate D2E/DX2                !
 ! D36   D(13,9,12,15)         -57.5816         estimate D2E/DX2                !
 ! D37   D(10,9,13,14)        -179.5278         estimate D2E/DX2                !
 ! D38   D(11,9,13,14)         -63.2301         estimate D2E/DX2                !
 ! D39   D(12,9,13,14)          58.3046         estimate D2E/DX2                !
 ! D40   D(9,12,15,5)            2.1247         estimate D2E/DX2                !
 --------------------------------------------------------------------------------
 Trust Radius=3.00D-01 FncErr=1.00D-07 GrdErr=1.00D-06 EigMax=2.50D+02 EigMin=1.00D-04
 Number of steps in this run=    101 maximum allowed number of steps=    108.
 GradGradGradGradGradGradGradGradGradGradGradGradGradGradGradGradGradGrad

                          Input orientation:                          
 ---------------------------------------------------------------------
 Center     Atomic      Atomic             Coordinates (Angstroms)
 Number     Number       Type             X           Y           Z
 ---------------------------------------------------------------------
      1         14           0       -1.971990    0.031980    0.021780
      2          8           0       -1.498390   -1.042810   -1.160960
      3          8           0       -3.615290    0.077310    0.015170
      4          8           0       -1.385780    1.536640   -0.161220
      5          8           0       -1.325130   -0.623570    1.410070
      6          1           0       -1.618520   -1.517810    1.627510
      7          1           0       -0.417130    1.656140   -0.272490
      8          1           0       -4.031790    0.897200    0.305330
      9         14           0        4.026640   -0.068400   -0.058340
     10          8           0        5.664040    0.031420   -0.134580
     11          8           0        3.425460    1.465200   -0.395110
     12          8           0        3.619290   -0.514540    1.474040
     13          8           0        3.433790   -1.062170   -1.212900
     14          1           0        2.474460   -1.206030   -1.284690
     15          1           0        2.666850   -0.584650    1.660100
     16          1           0        6.161750   -0.598240    0.398640
     17          1           0        3.892730    2.187340    0.044070
     18          1           0       -1.950120   -0.978780   -2.011630
 ---------------------------------------------------------------------
                    Distance matrix (angstroms):
                    1          2          3          4          5
     1  Si   0.000000
     2  O    1.666837   0.000000
     3  O    1.643938   2.668186   0.000000
     4  O    1.625156   2.768704   2.670482   0.000000
     5  O    1.665990   2.610743   2.771608   2.671917   0.000000
     6  H    2.259460   2.831187   3.021777   3.547307   0.965931
     7  H    2.267616   3.040203   3.578223   0.982316   2.975323
     8  H    2.252062   3.511661   0.964305   2.761869   3.295330
     9  Si   6.000005   5.717622   7.643672   5.646329   5.577265
    10  O    7.637631   7.314905   9.280652   7.208770   7.187729
    11  O    5.600034   5.578614   7.187957   4.817451   5.494519
    12  O    5.802599   5.780393   7.403900   5.650853   4.946036
    13  O    5.651907   4.932491   7.245419   5.575670   5.451574
    14  H    4.796921   3.978126   6.357803   4.866814   4.694452
    15  H    4.958141   5.051486   6.527578   4.923504   3.999992
    16  H    8.166819   7.829926   9.807850   7.863610   7.554932
    17  H    6.248281   6.399230   7.798938   5.322426   6.082206
    18  H    2.270874   0.965298   2.827726   3.173300   3.496401
                    6          7          8          9         10
     6  H    0.000000
     7  H    3.889383   0.000000
     8  H    3.661189   3.738400   0.000000
     9  Si   6.067183   4.771477   8.124219   0.000000
    10  O    7.651193   6.295980   9.744343   1.642211   0.000000
    11  O    6.199280   3.849285   7.511579   1.681297   2.671112
    12  O    5.335237   4.904580   7.867523   1.647168   2.658333
    13  O    5.813895   4.806575   7.866323   1.634643   2.707901
    14  H    5.032952   4.192596   7.020187   2.281973   3.609357
    15  H    4.385914   4.273988   6.993072   2.251350   3.547332
    16  H    7.930216   6.986724  10.303073   2.246832   0.963593
    17  H    6.827100   4.353996   8.033102   2.262031   2.795970
    18  H    3.693758   3.509625   3.636063   6.353408   7.906912
                   11         12         13         14         15
    11  O    0.000000
    12  O    2.729590   0.000000
    13  O    2.656398   2.748446   0.000000
    14  H    2.971737   3.065842   0.972709   0.000000
    15  H    3.000210   0.972973   3.011702   3.015778   0.000000
    16  H    3.517827   2.761810   3.202196   4.098672   3.715615
    17  H    0.965767   3.069159   3.514245   3.910505   3.434860
    18  H    6.122339   6.586634   5.443474   4.489654   5.912136
                   16         17         18
    16  H    0.000000
    17  H    3.610212   0.000000
    18  H    8.470930   6.956228   0.000000
 Stoichiometry    H8O8Si2
 Framework group  C1[X(H8O8Si2)]
 Deg. of freedom    48
 Full point group                 C1      NOp   1
 Largest Abelian subgroup         C1      NOp   1
 Largest concise Abelian subgroup C1      NOp   1
                         Standard orientation:                         
 ---------------------------------------------------------------------
 Center     Atomic      Atomic             Coordinates (Angstroms)
 Number     Number       Type             X           Y           Z
 ---------------------------------------------------------------------
      1         14           0       -2.997266    0.031444    0.016346
      2          8           0       -2.509826   -1.046077   -1.158258
      3          8           0       -4.640731    0.066953   -0.000836
      4          8           0       -2.418837    1.538688   -0.170112
      5          8           0       -2.355334   -0.613681    1.411789
      6          1           0       -2.644789   -1.508617    1.631627
      7          1           0       -1.450227    1.663429   -0.275842
      8          1           0       -5.063911    0.885708    0.282789
      9         14           0        3.002241   -0.033580   -0.025486
     10          8           0        4.639471    0.075630   -0.091879
     11          8           0        2.394127    1.494805   -0.373331
     12          8           0        2.587849   -0.474901    1.506401
     13          8           0        2.422612   -1.036303   -1.179019
     14          1           0        1.464625   -1.186212   -1.256169
     15          1           0        1.634683   -0.549804    1.686786
     16          1           0        5.137518   -0.548530    0.447457
     17          1           0        2.854319    2.221780    0.065344
     18          1           0       -2.956533   -0.988755   -2.012054
 ---------------------------------------------------------------------
 Rotational constants (GHZ):           1.9565849           0.2555278           0.2547906
 Standard basis: 6-31+G(d,p) (6D, 7F)
 There are   238 symmetry adapted cartesian basis functions of A   symmetry.
 There are   238 symmetry adapted basis functions of A   symmetry.
   238 basis functions,   424 primitive gaussians,   238 cartesian basis functions
    50 alpha electrons       50 beta electrons
       nuclear repulsion energy       751.7354987569 Hartrees.
 NAtoms=   18 NActive=   18 NUniq=   18 SFac= 1.00D+00 NAtFMM=   60 NAOKFM=F Big=F
 Integral buffers will be    131072 words long.
 Raffenetti 2 integral format.
 Two-electron integral symmetry is turned on.
 Nuclear repulsion after empirical dispersion term =      751.7260386261 Hartrees.
 One-electron integrals computed using PRISM.
 NBasis=   238 RedAO= T EigKep=  3.67D-04  NBF=   238
 NBsUse=   238 1.00D-06 EigRej= -1.00D+00 NBFU=   238
 ExpMin= 3.31D-02 ExpMax= 1.61D+04 ExpMxC= 2.43D+03 IAcc=3 IRadAn=         5 AccDes= 0.00D+00
 Harris functional with IExCor=  402 and IRadAn=       5 diagonalized for initial guess.
 HarFok:  IExCor=  402 AccDes= 0.00D+00 IRadAn=         5 IDoV= 1 UseB2=F ITyADJ=14
 ICtDFT=  3500011 ScaDFX=  1.000000  1.000000  1.000000  1.000000
 FoFCou: FMM=F IPFlag=           0 FMFlag=      100000 FMFlg1=           0
         NFxFlg=           0 DoJE=T BraDBF=F KetDBF=T FulRan=T
         wScrn=  0.000000 ICntrl=       500 IOpCl=  0 I1Cent=   200000004 NGrid=           0
         NMat0=    1 NMatS0=      1 NMatT0=    0 NMatD0=    1 NMtDS0=    0 NMtDT0=    0
 Petite list used in FoFCou.
 Requested convergence on RMS density matrix=1.00D-08 within 128 cycles.
 Requested convergence on MAX density matrix=1.00D-06.
 Requested convergence on             energy=1.00D-06.
 No special actions if energy rises.
 SCF Done:  E(RB3LYP) =  -1186.04268356     A.U. after   11 cycles
            NFock= 11  Conv=0.70D-08     -V/T= 2.0067

 **********************************************************************

            Population analysis using the SCF Density.

 **********************************************************************

 Orbital symmetries:
       Occupied  (A) (A) (A) (A) (A) (A) (A) (A) (A) (A) (A) (A)
                 (A) (A) (A) (A) (A) (A) (A) (A) (A) (A) (A) (A)
                 (A) (A) (A) (A) (A) (A) (A) (A) (A) (A) (A) (A)
                 (A) (A) (A) (A) (A) (A) (A) (A) (A) (A) (A) (A)
                 (A) (A)
       Virtual   (A) (A) (A) (A) (A) (A) (A) (A) (A) (A) (A) (A)
                 (A) (A) (A) (A) (A) (A) (A) (A) (A) (A) (A) (A)
                 (A) (A) (A) (A) (A) (A) (A) (A) (A) (A) (A) (A)
                 (A) (A) (A) (A) (A) (A) (A) (A) (A) (A) (A) (A)
                 (A) (A) (A) (A) (A) (A) (A) (A) (A) (A) (A) (A)
                 (A) (A) (A) (A) (A) (A) (A) (A) (A) (A) (A) (A)
                 (A) (A) (A) (A) (A) (A) (A) (A) (A) (A) (A) (A)
                 (A) (A) (A) (A) (A) (A) (A) (A) (A) (A) (A) (A)
                 (A) (A) (A) (A) (A) (A) (A) (A) (A) (A) (A) (A)
                 (A) (A) (A) (A) (A) (A) (A) (A) (A) (A) (A) (A)
                 (A) (A) (A) (A) (A) (A) (A) (A) (A) (A) (A) (A)
                 (A) (A) (A) (A) (A) (A) (A) (A) (A) (A) (A) (A)
                 (A) (A) (A) (A) (A) (A) (A) (A) (A) (A) (A) (A)
                 (A) (A) (A) (A) (A) (A) (A) (A) (A) (A) (A) (A)
                 (A) (A) (A) (A) (A) (A) (A) (A) (A) (A) (A) (A)
                 (A) (A) (A) (A) (A) (A) (A) (A)
 The electronic state is 1-A.
 Alpha  occ. eigenvalues --  -66.22882 -66.22155 -19.18268 -19.18029 -19.17338
 Alpha  occ. eigenvalues --  -19.17230 -19.17119 -19.17096 -19.17026 -19.16177
 Alpha  occ. eigenvalues --   -5.36244  -5.35503  -3.72245  -3.72229  -3.72181
 Alpha  occ. eigenvalues --   -3.71506  -3.71482  -3.71447  -1.05324  -1.04535
 Alpha  occ. eigenvalues --   -1.01945  -1.01518  -1.01106  -1.00923  -1.00754
 Alpha  occ. eigenvalues --   -0.99892  -0.60587  -0.59978  -0.54925  -0.54244
 Alpha  occ. eigenvalues --   -0.53894  -0.52676  -0.52311  -0.52185  -0.41814
 Alpha  occ. eigenvalues --   -0.41640  -0.39942  -0.39412  -0.39215  -0.38385
 Alpha  occ. eigenvalues --   -0.38326  -0.37075  -0.36340  -0.35982  -0.35582
 Alpha  occ. eigenvalues --   -0.34409  -0.33915  -0.33495  -0.33265  -0.31658
 Alpha virt. eigenvalues --   -0.04318  -0.01984   0.00576   0.00725   0.01028
 Alpha virt. eigenvalues --    0.02454   0.03605   0.03752   0.08685   0.09261
 Alpha virt. eigenvalues --    0.10213   0.11272   0.11661   0.12341   0.12746
 Alpha virt. eigenvalues --    0.13518   0.13750   0.14657   0.14991   0.15028
 Alpha virt. eigenvalues --    0.15580   0.16203   0.16772   0.17034   0.17359
 Alpha virt. eigenvalues --    0.17600   0.18330   0.18757   0.19073   0.19176
 Alpha virt. eigenvalues --    0.19821   0.20718   0.21097   0.21732   0.22021
 Alpha virt. eigenvalues --    0.22935   0.24321   0.24661   0.24789   0.25533
 Alpha virt. eigenvalues --    0.25941   0.26327   0.26799   0.27656   0.28277
 Alpha virt. eigenvalues --    0.28516   0.29183   0.30667   0.32232   0.33154
 Alpha virt. eigenvalues --    0.33746   0.35194   0.38351   0.39469   0.40843
 Alpha virt. eigenvalues --    0.41258   0.43259   0.44933   0.45359   0.45997
 Alpha virt. eigenvalues --    0.47746   0.49612   0.59559   0.61154   0.61559
 Alpha virt. eigenvalues --    0.63026   0.63788   0.65005   0.93030   0.93244
 Alpha virt. eigenvalues --    0.93552   0.94775   0.95422   0.96174   0.97327
 Alpha virt. eigenvalues --    0.97740   0.98937   0.99557   1.00181   1.00865
 Alpha virt. eigenvalues --    1.01731   1.03334   1.14625   1.15183   1.16013
 Alpha virt. eigenvalues --    1.16272   1.17092   1.17779   1.18372   1.18723
 Alpha virt. eigenvalues --    1.19012   1.19901   1.20247   1.22059   1.22294
 Alpha virt. eigenvalues --    1.22567   1.24105   1.25127   1.26160   1.26810
 Alpha virt. eigenvalues --    1.26994   1.28443   1.29182   1.30672   1.31956
 Alpha virt. eigenvalues --    1.32565   1.45973   1.46313   1.50278   1.51755
 Alpha virt. eigenvalues --    1.52941   1.53457   1.55612   1.56106   1.56785
 Alpha virt. eigenvalues --    1.58959   1.59364   1.60430   1.61589   1.62945
 Alpha virt. eigenvalues --    1.64398   1.66281   1.68880   1.69678   1.73094
 Alpha virt. eigenvalues --    1.73905   1.74154   1.76075   1.82766   1.84488
 Alpha virt. eigenvalues --    1.87757   1.90889   1.92855   1.99632   2.01426
 Alpha virt. eigenvalues --    2.01995   2.08280   2.09177   2.33742   2.34211
 Alpha virt. eigenvalues --    2.34832   2.37022   2.37270   2.39498   2.39738
 Alpha virt. eigenvalues --    2.39846   2.44854   2.45317   2.57584   2.58340
 Alpha virt. eigenvalues --    2.58935   2.59560   2.59750   2.60411   2.61345
 Alpha virt. eigenvalues --    2.61862   2.63318   2.63881   2.64996   2.65592
 Alpha virt. eigenvalues --    2.66315   2.67618   2.68902   2.69381   2.76842
 Alpha virt. eigenvalues --    2.77494   2.79457   2.80236   2.82553   2.82714
 Alpha virt. eigenvalues --    2.98927   3.00242   3.38235   3.39591   3.40555
 Alpha virt. eigenvalues --    3.42098   3.42627   3.43320   3.44072   3.44796
 Alpha virt. eigenvalues --    4.11628   4.12839   4.13666   4.14878   4.18550
 Alpha virt. eigenvalues --    4.20138   4.21560   4.23169
          Condensed to atoms (all electrons):
               1          2          3          4          5          6
     1  Si  11.471650   0.104164   0.064446   0.147726   0.123694   0.035061
     2  O    0.104164   8.497912   0.041657  -0.014972   0.030887  -0.007085
     3  O    0.064446   0.041657   8.496693   0.042020  -0.009594  -0.007010
     4  O    0.147726  -0.014972   0.042020   8.391511   0.027355   0.006255
     5  O    0.123694   0.030887  -0.009594   0.027355   8.443391   0.243633
     6  H    0.035061  -0.007085  -0.007010   0.006255   0.243633   0.365005
     7  H    0.023487  -0.006291   0.007057   0.255666  -0.006330   0.000031
     8  H    0.027042   0.004227   0.243643  -0.003024  -0.004664   0.000090
     9  Si  -0.000437  -0.000039   0.000023  -0.000497  -0.000192  -0.000167
    10  O    0.000036   0.000011  -0.000000   0.000002   0.000016  -0.000000
    11  O   -0.000785  -0.000120   0.000018  -0.000036  -0.000110   0.000003
    12  O   -0.000426  -0.000081   0.000006  -0.000044   0.000026  -0.000005
    13  O    0.000162   0.000008   0.000004  -0.000096  -0.000170   0.000004
    14  H    0.000692   0.000220  -0.000001  -0.000068  -0.000101   0.000000
    15  H    0.000249  -0.000017  -0.000002  -0.000040   0.000241   0.000000
    16  H    0.000008  -0.000000   0.000000  -0.000000  -0.000000   0.000000
    17  H   -0.000082   0.000001  -0.000000  -0.000004   0.000002  -0.000000
    18  H    0.029811   0.239970  -0.005390  -0.007291   0.006085   0.000068
               7          8          9         10         11         12
     1  Si   0.023487   0.027042  -0.000437   0.000036  -0.000785  -0.000426
     2  O   -0.006291   0.004227  -0.000039   0.000011  -0.000120  -0.000081
     3  O    0.007057   0.243643   0.000023  -0.000000   0.000018   0.000006
     4  O    0.255666  -0.003024  -0.000497   0.000002  -0.000036  -0.000044
     5  O   -0.006330  -0.004664  -0.000192   0.000016  -0.000110   0.000026
     6  H    0.000031   0.000090  -0.000167  -0.000000   0.000003  -0.000005
     7  H    0.345811   0.000034   0.000692  -0.000002   0.000391  -0.000040
     8  H    0.000034   0.357224   0.000004   0.000000   0.000000  -0.000000
     9  Si   0.000692   0.000004  11.512579   0.036952   0.090472   0.137347
    10  O   -0.000002   0.000000   0.036952   8.505628   0.021283   0.054689
    11  O    0.000391   0.000000   0.090472   0.021283   8.506817   0.019361
    12  O   -0.000040  -0.000000   0.137347   0.054689   0.019361   8.421516
    13  O   -0.000101  -0.000000   0.095901   0.024111   0.030648  -0.010228
    14  H    0.000013  -0.000000   0.039163   0.005358  -0.005727  -0.010392
    15  H    0.000008  -0.000000   0.032119   0.008355  -0.008973   0.247449
    16  H   -0.000000  -0.000000   0.026214   0.246330   0.003982  -0.004477
    17  H    0.000001   0.000000   0.032013  -0.004287   0.244128  -0.009365
    18  H    0.000150   0.000085  -0.000114   0.000000   0.000002   0.000000
              13         14         15         16         17         18
     1  Si   0.000162   0.000692   0.000249   0.000008  -0.000082   0.029811
     2  O    0.000008   0.000220  -0.000017  -0.000000   0.000001   0.239970
     3  O    0.000004  -0.000001  -0.000002   0.000000  -0.000000  -0.005390
     4  O   -0.000096  -0.000068  -0.000040  -0.000000  -0.000004  -0.007291
     5  O   -0.000170  -0.000101   0.000241  -0.000000   0.000002   0.006085
     6  H    0.000004   0.000000   0.000000   0.000000  -0.000000   0.000068
     7  H   -0.000101   0.000013   0.000008  -0.000000   0.000001   0.000150
     8  H   -0.000000  -0.000000  -0.000000  -0.000000   0.000000   0.000085
     9  Si   0.095901   0.039163   0.032119   0.026214   0.032013  -0.000114
    10  O    0.024111   0.005358   0.008355   0.246330  -0.004287   0.000000
    11  O    0.030648  -0.005727  -0.008973   0.003982   0.244128   0.000002
    12  O   -0.010228  -0.010392   0.247449  -0.004477  -0.009365   0.000000
    13  O    8.447991   0.241322  -0.009290  -0.003818   0.007193  -0.000001
    14  H    0.241322   0.361278   0.000246  -0.000025  -0.000028   0.000001
    15  H   -0.009290   0.000246   0.362055   0.000048   0.000168  -0.000000
    16  H   -0.003818  -0.000025   0.000048   0.362403   0.000088   0.000000
    17  H    0.007193  -0.000028   0.000168   0.000088   0.363806  -0.000000
    18  H   -0.000001   0.000001  -0.000000   0.000000  -0.000000   0.366546
 Mulliken charges:
               1
     1  Si   1.973502
     2  O   -0.890454
     3  O   -0.873570
     4  O   -0.844464
     5  O   -0.854168
     6  H    0.364117
     7  H    0.379425
     8  H    0.375338
     9  Si   1.997965
    10  O   -0.898482
    11  O   -0.901356
    12  O   -0.845336
    13  O   -0.823640
    14  H    0.368050
    15  H    0.367385
    16  H    0.369245
    17  H    0.366366
    18  H    0.370075
 Sum of Mulliken charges =  -0.00000
 Mulliken charges with hydrogens summed into heavy atoms:
               1
     1  Si   1.973502
     2  O   -0.520379
     3  O   -0.498232
     4  O   -0.465039
     5  O   -0.490051
     9  Si   1.997965
    10  O   -0.529237
    11  O   -0.534989
    12  O   -0.477951
    13  O   -0.455590
 Electronic spatial extent (au):  <R**2>=           4116.7332
 Charge=              0.0000 electrons
 Dipole moment (field-independent basis, Debye):
    X=             -2.1284    Y=             -0.0183    Z=              1.0194  Tot=              2.3600
 Quadrupole moment (field-independent basis, Debye-Ang):
   XX=            -69.0455   YY=            -68.5333   ZZ=            -72.9739
   XY=             -1.1444   XZ=              7.2215   YZ=             -0.4296
 Traceless Quadrupole moment (field-independent basis, Debye-Ang):
   XX=              1.1388   YY=              1.6509   ZZ=             -2.7897
   XY=             -1.1444   XZ=              7.2215   YZ=             -0.4296
 Octapole moment (field-independent basis, Debye-Ang**2):
  XXX=            -16.7342  YYY=              6.2713  ZZZ=            -13.7907  XYY=              3.2862
  XXY=              9.2371  XXZ=             33.8114  XZZ=            -28.8705  YZZ=             -7.5800
  YYZ=             12.1522  XYZ=              1.1033
 Hexadecapole moment (field-independent basis, Debye-Ang**3):
 XXXX=          -3916.7414 YYYY=           -342.9915 ZZZZ=           -345.4595 XXXY=           -251.2429
 XXXZ=            107.3219 YYYX=             65.8458 YYYZ=             -6.4930 ZZZX=             35.9274
 ZZZY=              3.6181 XXYY=           -695.5991 XXZZ=           -768.0853 YYZZ=           -113.5533
 XXYZ=              2.1149 YYXZ=             -5.3205 ZZXY=             33.1661
 N-N= 7.517260386261D+02 E-N=-4.313160777571D+03  KE= 1.178101321930D+03
 Calling FoFJK, ICntrl=      2127 FMM=F ISym2X=0 I1Cent= 0 IOpClX= 0 NMat=1 NMatS=1 NMatT=0.
 ***** Axes restored to original set *****
 -------------------------------------------------------------------
 Center     Atomic                   Forces (Hartrees/Bohr)
 Number     Number              X              Y              Z
 -------------------------------------------------------------------
      1       14           0.007365182   -0.027395397    0.003229453
      2        8          -0.002474207    0.005425181    0.001011258
      3        8          -0.001500719    0.004762852   -0.000528105
      4        8           0.019242246    0.013457148   -0.003541675
      5        8          -0.003209898    0.005027155   -0.003350722
      6        1           0.000962293    0.001377723   -0.000953817
      7        1          -0.017081364   -0.001710399    0.002773740
      8        1          -0.000884992   -0.000355418    0.000328352
      9       14          -0.002960730    0.025817016   -0.005492273
     10        8          -0.000434425   -0.003781376    0.001501028
     11        8           0.003071231   -0.010507577    0.001693875
     12        8          -0.009603009   -0.005034645    0.005509870
     13        8          -0.010646294   -0.007439485   -0.003266074
     14        1           0.009446984    0.001815958    0.000087453
     15        1           0.008426300    0.000040656    0.000873827
     16        1           0.001094945   -0.000360309   -0.000300131
     17        1          -0.000965672   -0.000894247   -0.000370898
     18        1           0.000152131   -0.000244839    0.000794838
 -------------------------------------------------------------------
 Cartesian Forces:  Max     0.027395397 RMS     0.007619818

 GradGradGradGradGradGradGradGradGradGradGradGradGradGradGradGradGradGrad
 Berny optimization.
 FormGI is forming the generalized inverse of G from B-inverse, IUseBI=4.
 Internal  Forces:  Max     0.015405981 RMS     0.003277101
 Search for a local minimum.
 Step number   1 out of a maximum of  101
 All quantities printed in internal units (Hartrees-Bohrs-Radians)
 Mixed Optimization -- RFO/linear search
 Second derivative matrix not updated -- first step.
 ITU=  0
     Eigenvalues ---    0.00555   0.00935   0.01083   0.01460   0.02708
     Eigenvalues ---    0.02803   0.03144   0.03282   0.03654   0.03758
     Eigenvalues ---    0.03781   0.04148   0.05546   0.05676   0.07136
     Eigenvalues ---    0.07823   0.08780   0.09519   0.10815   0.10965
     Eigenvalues ---    0.11517   0.12278   0.12726   0.12917   0.15143
     Eigenvalues ---    0.15833   0.16000   0.16000   0.16888   0.17375
     Eigenvalues ---    0.20828   0.36246   0.38387   0.39259   0.42047
     Eigenvalues ---    0.43128   0.43581   0.43851   0.44365   0.46964
     Eigenvalues ---    0.48088   0.49219   0.54217   0.54251   0.54349
     Eigenvalues ---    0.54558   0.547081000.000001000.000001000.00000
     Eigenvalues --- 1000.000001000.000001000.000001000.000001000.00000
     Eigenvalues --- 1000.000001000.000001000.000001000.000001000.00000
     Eigenvalues --- 1000.000001000.000001000.000001000.000001000.00000
     Eigenvalues --- 1000.000001000.000001000.000001000.000001000.00000
     Eigenvalues --- 1000.000001000.000001000.000001000.000001000.00000
     Eigenvalues --- 1000.000001000.000001000.000001000.000001000.00000
     Eigenvalues --- 1000.000001000.000001000.000001000.000001000.00000
     Eigenvalues --- 1000.000001000.000001000.000001000.000001000.00000
     Eigenvalues --- 1000.00000
 RFO step:  Lambda=-3.07377999D-03 EMin= 5.54780538D-03
 Linear search not attempted -- first point.
 Iteration  1 RMS(Cart)=  0.01307735 RMS(Int)=  0.00019971
 Iteration  2 RMS(Cart)=  0.00026676 RMS(Int)=  0.00010566
 Iteration  3 RMS(Cart)=  0.00000004 RMS(Int)=  0.00010566
 Iteration  1 RMS(Cart)=  0.00000250 RMS(Int)=  0.00000181
 Iteration  2 RMS(Cart)=  0.00000096 RMS(Int)=  0.00000201
 Variable       Old X    -DE/DX   Delta X   Delta X   Delta X     New X
                                 (Linear)    (Quad)   (Total)
    R1        3.14986  -0.00495   0.00000  -0.01310  -0.01310   3.13676
    R2        3.10659   0.00251   0.00000   0.00571   0.00571   3.11231
    R3        3.07110   0.01202   0.00000   0.02492   0.02496   3.09606
    R4        3.14826  -0.00603   0.00000  -0.01611  -0.01612   3.13214
    R5       11.33837  -0.00685   0.00000   0.00000  -0.00000  11.33836
    R6        7.51757   0.00119   0.00000   0.03894   0.03892   7.55649
    R7        1.82415  -0.00079   0.00000  -0.00144  -0.00144   1.82271
    R8        1.82227   0.00018   0.00000   0.00033   0.00033   1.82260
    R9        1.85631  -0.01541   0.00000  -0.03330  -0.03322   1.82309
   R10        1.82535  -0.00178   0.00000  -0.00327  -0.00327   1.82208
   R11        7.55889   0.00109   0.00000   0.02238   0.02236   7.58125
   R12        7.27409   0.00205   0.00000   0.03844   0.03852   7.31262
   R13        3.10333   0.00035   0.00000   0.00079   0.00079   3.10412
   R14        3.17719  -0.01027   0.00000  -0.02900  -0.02897   3.14822
   R15        3.11270   0.00728   0.00000   0.01673   0.01672   3.12942
   R16        3.08903   0.00653   0.00000   0.01393   0.01392   3.10294
   R17        1.82093   0.00063   0.00000   0.00115   0.00115   1.82208
   R18        1.82504  -0.00130   0.00000  -0.00239  -0.00239   1.82264
   R19        1.83865  -0.00717   0.00000  -0.01509  -0.01512   1.82354
   R20        1.83815  -0.00839   0.00000  -0.01744  -0.01746   1.82069
    A1        1.87439   0.00083   0.00000   0.00863   0.00832   1.88271
    A2        1.99831  -0.00105   0.00000  -0.00277  -0.00272   1.99559
    A3        1.80005   0.00276   0.00000   0.02497   0.02485   1.82490
    A4        1.91196  -0.00138   0.00000  -0.02448  -0.02443   1.88753
    A5        1.98485   0.00105   0.00000   0.00811   0.00772   1.99257
    A6        1.89452  -0.00194   0.00000  -0.01110  -0.01114   1.88337
    A7        1.90952  -0.00037   0.00000  -0.00490  -0.00490   1.90462
    A8        2.03709   0.00052   0.00000   0.00185   0.00187   2.03895
    A9        2.02936  -0.00028   0.00000   0.00232   0.00230   2.03166
   A10        2.04203   0.00162   0.00000   0.00994   0.00994   2.05196
   A11        2.07268  -0.00045   0.00000   0.00132   0.00130   2.07398
   A12        2.01966  -0.00116   0.00000  -0.00594  -0.00594   2.01371
   A13        2.02167   0.00142   0.00000   0.00083   0.00074   2.02242
   A14        1.87346  -0.00025   0.00000  -0.00489  -0.00486   1.86860
   A15        1.86688   0.00459   0.00000   0.02919   0.02929   1.89617
   A16        1.88203  -0.00141   0.00000  -0.01250  -0.01297   1.86906
   A17        1.94527  -0.00120   0.00000  -0.01334  -0.01366   1.93161
   A18        1.92301   0.00063   0.00000   0.01282   0.01279   1.93579
   A19        1.85811  -0.00065   0.00000   0.00352   0.00357   1.86168
   A20        1.98530  -0.00150   0.00000  -0.01603  -0.01618   1.96912
   A21        2.03711   0.00163   0.00000   0.00998   0.00998   2.04708
   A22        1.97775   0.00215   0.00000   0.00175   0.00169   1.97944
   A23        2.01686  -0.00115   0.00000  -0.00524  -0.00520   2.01166
   A24        2.00199  -0.00072   0.00000  -0.00183  -0.00183   2.00016
   A25        2.02584   0.00102   0.00000   0.00949   0.00946   2.03530
   A26        2.09408   0.00011   0.00000   0.00286   0.00280   2.09688
   A27        2.87886  -0.00215   0.00000  -0.00934  -0.00937   2.86949
   A28        3.00843   0.00016   0.00000  -0.00808  -0.00809   3.00034
   A29        3.00026  -0.00025   0.00000  -0.00904  -0.00905   2.99121
   A30        3.28776  -0.00037   0.00000  -0.00747  -0.00745   3.28031
   A31        3.30699  -0.00072   0.00000  -0.00714  -0.00704   3.29995
    D1        3.12739  -0.00230   0.00000  -0.01998  -0.02010   3.10729
    D2        0.77736  -0.00201   0.00000  -0.02012  -0.02021   0.75715
    D3        1.00031  -0.00046   0.00000   0.00680   0.00677   1.00709
    D4       -1.34972  -0.00017   0.00000   0.00667   0.00666  -1.34306
    D5       -1.05442   0.00066   0.00000   0.00569   0.00574  -1.04868
    D6        2.87874   0.00095   0.00000   0.00555   0.00562   2.88436
    D7       -2.64796   0.00178   0.00000   0.01185   0.01188  -2.63608
    D8       -0.46788   0.00015   0.00000  -0.00136  -0.00136  -0.46924
    D9        1.65533  -0.00265   0.00000  -0.02811  -0.02813   1.62719
   D10       -0.92273  -0.00109   0.00000  -0.01835  -0.01831  -0.94105
   D11       -3.02915  -0.00042   0.00000  -0.00949  -0.00942  -3.03857
   D12        1.07741   0.00046   0.00000   0.00379   0.00363   1.08104
   D13       -1.03287  -0.00078   0.00000  -0.00206  -0.00215  -1.03502
   D14        1.18238  -0.00090   0.00000  -0.01421  -0.01426   1.16812
   D15        0.99115   0.00237   0.00000   0.02710   0.02719   1.01834
   D16       -3.07679   0.00225   0.00000   0.01495   0.01509  -3.06171
   D17        3.12402  -0.00011   0.00000  -0.00697  -0.00692   3.11710
   D18       -0.94392  -0.00023   0.00000  -0.01911  -0.01903  -0.96295
   D19        0.02968  -0.00117   0.00000  -0.01577  -0.01577   0.01391
   D20        2.35971  -0.00084   0.00000  -0.01457  -0.01460   2.34511
   D21       -0.13368  -0.00005   0.00000  -0.00412  -0.00417  -0.13785
   D22       -2.47553  -0.00026   0.00000   0.00052   0.00049  -2.47505
   D23       -0.21405   0.00142   0.00000   0.02620   0.02621  -0.18783
   D24        2.07259   0.00077   0.00000   0.01417   0.01420   2.08680
   D25        2.66817   0.00064   0.00000   0.00944   0.00945   2.67762
   D26        0.60013  -0.00180   0.00000  -0.01459  -0.01441   0.58572
   D27       -1.59060   0.00192   0.00000   0.02368   0.02350  -1.56710
   D28       -3.12989  -0.00003   0.00000   0.00512   0.00502  -3.12487
   D29       -0.76188  -0.00023   0.00000  -0.00306  -0.00314  -0.76503
   D30       -1.08872   0.00123   0.00000   0.01360   0.01367  -1.07505
   D31        1.27929   0.00102   0.00000   0.00542   0.00551   1.28480
   D32        1.07166  -0.00064   0.00000   0.00395   0.00386   1.07552
   D33       -2.84352  -0.00084   0.00000  -0.00423  -0.00430  -2.84782
   D34        3.11141   0.00272   0.00000   0.01866   0.01842   3.12983
   D35        1.07969  -0.00230   0.00000  -0.01604  -0.01617   1.06351
   D36       -1.00499  -0.00092   0.00000  -0.01894  -0.01887  -1.02386
   D37       -3.13335  -0.00280   0.00000  -0.01528  -0.01514   3.13469
   D38       -1.10357   0.00168   0.00000   0.01468   0.01472  -1.08885
   D39        1.01761   0.00109   0.00000   0.02333   0.02321   1.04081
   D40        0.03708   0.00192   0.00000   0.00917   0.00913   0.04622
         Item               Value     Threshold  Converged?
 Maximum Force            0.013977     0.000450     NO 
 RMS     Force            0.003164     0.000300     NO 
 Maximum Displacement     0.049400     0.001800     NO 
 RMS     Displacement     0.013072     0.001200     NO 
 Predicted change in Energy=-1.566919D-03
 GradGradGradGradGradGradGradGradGradGradGradGradGradGradGradGradGradGrad

                          Input orientation:                          
 ---------------------------------------------------------------------
 Center     Atomic      Atomic             Coordinates (Angstroms)
 Number     Number       Type             X           Y           Z
 ---------------------------------------------------------------------
      1         14           0       -1.970396    0.008677    0.021888
      2          8           0       -1.502751   -1.050945   -1.167140
      3          8           0       -3.615588    0.084452    0.012879
      4          8           0       -1.388520    1.529189   -0.161675
      5          8           0       -1.327638   -0.618297    1.415063
      6          1           0       -1.618129   -1.509892    1.639463
      7          1           0       -0.437432    1.654095   -0.264381
      8          1           0       -4.026119    0.907564    0.302997
      9         14           0        4.028787   -0.044446   -0.061852
     10          8           0        5.669018    0.016909   -0.126020
     11          8           0        3.425551    1.471290   -0.399628
     12          8           0        3.619058   -0.515395    1.472008
     13          8           0        3.440828   -1.053303   -1.216278
     14          1           0        2.491263   -1.195063   -1.296919
     15          1           0        2.676273   -0.586901    1.664927
     16          1           0        6.156457   -0.624381    0.403921
     17          1           0        3.887471    2.194542    0.040599
     18          1           0       -1.957265   -0.981866   -2.015062
 ---------------------------------------------------------------------
                    Distance matrix (angstroms):
                    1          2          3          4          5
     1  Si   0.000000
     2  O    1.659902   0.000000
     3  O    1.646961   2.673135   0.000000
     4  O    1.638363   2.771479   2.660370   0.000000
     5  O    1.657459   2.624046   2.773931   2.664865   0.000000
     6  H    2.246485   2.846219   3.029447   3.540175   0.964201
     7  H    2.267008   3.044194   3.555465   0.964737   2.962560
     8  H    2.261199   3.516311   0.964478   2.749412   3.293439
     9  Si   6.000003   5.729976   7.645827   5.642119   5.585864
    10  O    7.640849   7.325197   9.285890   7.217832   7.192469
    11  O    5.606528   5.589177   7.188263   4.820296   5.500207
    12  O    5.798232   5.786609   7.404659   5.650228   4.948094
    13  O    5.651743   4.943824   7.252471   5.577101   5.463649
    14  H    4.805688   3.998720   6.375450   4.874735   4.719270
    15  H    4.964456   5.069535   6.539686   4.933240   4.011823
    16  H    8.160419   7.830304   9.805520   7.866666   7.552094
    17  H    6.252436   6.406739   7.794174   5.321624   6.082645
    18  H    2.265063   0.964534   2.828359   3.172367   3.506333
                    6          7          8          9         10
     6  H    0.000000
     7  H    3.876788   0.000000
     8  H    3.664513   3.709164   0.000000
     9  Si   6.076979   4.782591   8.119172   0.000000
    10  O    7.651834   6.323626   9.745409   1.642631   0.000000
    11  O    6.203552   3.869670   7.505921   1.665966   2.687606
    12  O    5.333404   4.916996   7.863850   1.656018   2.653182
    13  O    5.827245   4.824626   7.868196   1.642008   2.701638
    14  H    5.060491   4.214391   7.032570   2.283263   3.596944
    15  H    4.392546   4.294119   7.000739   2.259495   3.539576
    16  H    7.921798   7.008385  10.297665   2.253940   0.964203
    17  H    6.825748   4.369197   8.021850   2.245781   2.818467
    18  H    3.708016   3.510423   3.636413   6.366051   7.919989
                   11         12         13         14         15
    11  O    0.000000
    12  O    2.736308   0.000000
    13  O    2.653436   2.747361   0.000000
    14  H    2.964365   3.066077   0.963469   0.000000
    15  H    3.009976   0.964974   3.017187   3.029294   0.000000
    16  H    3.534880   2.755192   3.191184   4.080708   3.701786
    17  H    0.964502   3.076481   3.511086   3.902278   3.441201
    18  H    6.132072   6.593378   5.457341   4.511162   5.930261
                   16         17         18
    16  H    0.000000
    17  H    3.636843   0.000000
    18  H    8.474182   6.962489   0.000000
 Stoichiometry    H8O8Si2
 Framework group  C1[X(H8O8Si2)]
 Deg. of freedom    48
 Full point group                 C1      NOp   1
 Largest Abelian subgroup         C1      NOp   1
 Largest concise Abelian subgroup C1      NOp   1
                         Standard orientation:                         
 ---------------------------------------------------------------------
 Center     Atomic      Atomic             Coordinates (Angstroms)
 Number     Number       Type             X           Y           Z
 ---------------------------------------------------------------------
      1         14           0       -2.996147    0.013165    0.017388
      2          8           0       -2.516425   -1.059466   -1.155049
      3          8           0       -4.641564    0.081520   -0.002840
      4          8           0       -2.419757    1.533775   -0.181984
      5          8           0       -2.359435   -0.593115    1.422448
      6          1           0       -2.647446   -1.483053    1.656423
      7          1           0       -1.468596    1.661578   -0.280352
      8          1           0       -5.057493    0.906439    0.274160
      9         14           0        3.003619   -0.014411   -0.028284
     10          8           0        4.643937    0.053395   -0.083012
     11          8           0        2.395921    1.494198   -0.389177
     12          8           0        2.586310   -0.467553    1.508892
     13          8           0        2.427329   -1.040522   -1.173350
     14          1           0        1.478916   -1.187510   -1.258086
     15          1           0        1.642651   -0.540771    1.696833
     16          1           0        5.130824   -0.578909    0.458117
     17          1           0        2.851909    2.225053    0.044630
     18          1           0       -2.965896   -1.003234   -2.006601
 ---------------------------------------------------------------------
 Rotational constants (GHZ):           1.9535964           0.2551699           0.2545410
 Standard basis: 6-31+G(d,p) (6D, 7F)
 There are   238 symmetry adapted cartesian basis functions of A   symmetry.
 There are   238 symmetry adapted basis functions of A   symmetry.
   238 basis functions,   424 primitive gaussians,   238 cartesian basis functions
    50 alpha electrons       50 beta electrons
       nuclear repulsion energy       751.5993185208 Hartrees.
 NAtoms=   18 NActive=   18 NUniq=   18 SFac= 1.00D+00 NAtFMM=   60 NAOKFM=F Big=F
 Integral buffers will be    131072 words long.
 Raffenetti 2 integral format.
 Two-electron integral symmetry is turned on.
 Nuclear repulsion after empirical dispersion term =      751.5898735564 Hartrees.
 One-electron integrals computed using PRISM.
 NBasis=   238 RedAO= T EigKep=  3.68D-04  NBF=   238
 NBsUse=   238 1.00D-06 EigRej= -1.00D+00 NBFU=   238
 Initial guess from the checkpoint file:  "/localscratch/sarashs.37136504.0/Gau-11727.chk"
 B after Tr=     0.000000    0.000000   -0.000000
         Rot=    0.999992    0.004080    0.000041    0.000019 Ang=   0.47 deg.
 ExpMin= 3.31D-02 ExpMax= 1.61D+04 ExpMxC= 2.43D+03 IAcc=3 IRadAn=         5 AccDes= 0.00D+00
 Harris functional with IExCor=  402 and IRadAn=       5 diagonalized for initial guess.
 HarFok:  IExCor=  402 AccDes= 0.00D+00 IRadAn=         5 IDoV= 1 UseB2=F ITyADJ=14
 ICtDFT=  3500011 ScaDFX=  1.000000  1.000000  1.000000  1.000000
 FoFCou: FMM=F IPFlag=           0 FMFlag=      100000 FMFlg1=           0
         NFxFlg=           0 DoJE=T BraDBF=F KetDBF=T FulRan=T
         wScrn=  0.000000 ICntrl=       500 IOpCl=  0 I1Cent=   200000004 NGrid=           0
         NMat0=    1 NMatS0=      1 NMatT0=    0 NMatD0=    1 NMtDS0=    0 NMtDT0=    0
 Petite list used in FoFCou.
 Requested convergence on RMS density matrix=1.00D-08 within 128 cycles.
 Requested convergence on MAX density matrix=1.00D-06.
 Requested convergence on             energy=1.00D-06.
 No special actions if energy rises.
 SCF Done:  E(RB3LYP) =  -1186.04467566     A.U. after    9 cycles
            NFock=  9  Conv=0.99D-08     -V/T= 2.0067
 Calling FoFJK, ICntrl=      2127 FMM=F ISym2X=0 I1Cent= 0 IOpClX= 0 NMat=1 NMatS=1 NMatT=0.
 ***** Axes restored to original set *****
 -------------------------------------------------------------------
 Center     Atomic                   Forces (Hartrees/Bohr)
 Number     Number              X              Y              Z
 -------------------------------------------------------------------
      1       14           0.004518692   -0.010531696    0.000918701
      2        8          -0.001428676    0.002721175    0.001044531
      3        8          -0.000276995    0.002187972   -0.000660362
      4        8           0.001068081    0.004108884   -0.001284063
      5        8          -0.001844013    0.002771479   -0.001971112
      6        1           0.000881713   -0.000630529    0.000356014
      7        1          -0.000599537    0.000384031    0.000868486
      8        1           0.000260868   -0.000501761    0.000261057
      9       14          -0.002729877    0.009508094   -0.002132904
     10        8          -0.000681622   -0.001278330    0.000914188
     11        8           0.002408491   -0.005302969    0.000770222
     12        8          -0.001068334   -0.001584580    0.000138696
     13        8          -0.000565105   -0.002930397   -0.000373469
     14        1           0.000486048    0.000622450   -0.000511456
     15        1           0.000844316   -0.000409344    0.001890078
     16        1          -0.000266222    0.000132612   -0.000521814
     17        1          -0.000798454    0.000924699    0.000049892
     18        1          -0.000209373   -0.000191789    0.000243315
 -------------------------------------------------------------------
 Cartesian Forces:  Max     0.010531696 RMS     0.002529504

 GradGradGradGradGradGradGradGradGradGradGradGradGradGradGradGradGradGrad
 Berny optimization.
 Using GEDIIS/GDIIS optimizer.
 FormGI is forming the generalized inverse of G from B-inverse, IUseBI=4.
 Internal  Forces:  Max     0.004503311 RMS     0.001038298
 Search for a local minimum.
 Step number   2 out of a maximum of  101
 All quantities printed in internal units (Hartrees-Bohrs-Radians)
 Mixed Optimization -- En-DIIS/RFO-DIIS
 Update second derivatives using D2CorX and points    1    2
 DE= -1.99D-03 DEPred=-1.57D-03 R= 1.27D+00
 TightC=F SS=  1.41D+00  RLast= 1.41D-01 DXNew= 5.0454D-01 4.2315D-01
 Trust test= 1.27D+00 RLast= 1.41D-01 DXMaxT set to 4.23D-01
 ITU=  1  0
 Use linear search instead of GDIIS.
     Eigenvalues ---    0.00555   0.00938   0.01087   0.01461   0.02673
     Eigenvalues ---    0.02728   0.03150   0.03227   0.03657   0.03745
     Eigenvalues ---    0.03776   0.04167   0.05573   0.05635   0.07111
     Eigenvalues ---    0.07436   0.08195   0.09013   0.10675   0.10932
     Eigenvalues ---    0.11540   0.12227   0.12498   0.13139   0.15215
     Eigenvalues ---    0.15826   0.16000   0.16093   0.16878   0.17385
     Eigenvalues ---    0.20388   0.33479   0.38397   0.39329   0.40662
     Eigenvalues ---    0.43272   0.43640   0.43854   0.44527   0.48060
     Eigenvalues ---    0.49139   0.49900   0.54237   0.54345   0.54434
     Eigenvalues ---    0.54610   0.550241000.000001000.000001000.00000
     Eigenvalues --- 1000.000001000.000001000.000001000.000001000.00000
     Eigenvalues --- 1000.000001000.000001000.000001000.000001000.00000
     Eigenvalues --- 1000.000001000.000001000.000001000.000001000.00000
     Eigenvalues --- 1000.000001000.000001000.000001000.000001000.00000
     Eigenvalues --- 1000.000001000.000001000.000001000.000001000.00000
     Eigenvalues --- 1000.000001000.000001000.000001000.000001000.00000
     Eigenvalues --- 1000.000001000.000001000.000001000.000001000.00000
     Eigenvalues --- 1000.000001000.000001000.000001000.000001000.00000
     Eigenvalues --- 1000.00000
 RFO step:  Lambda=-2.97033120D-04 EMin= 5.54737876D-03
 Quartic linear search produced a step of  0.40148.
 Iteration  1 RMS(Cart)=  0.01046842 RMS(Int)=  0.00012386
 Iteration  2 RMS(Cart)=  0.00012275 RMS(Int)=  0.00008779
 Iteration  3 RMS(Cart)=  0.00000001 RMS(Int)=  0.00008779
 Iteration  1 RMS(Cart)=  0.00000536 RMS(Int)=  0.00000386
 Iteration  2 RMS(Cart)=  0.00000206 RMS(Int)=  0.00000430
 Iteration  3 RMS(Cart)=  0.00000079 RMS(Int)=  0.00000466
 Variable       Old X    -DE/DX   Delta X   Delta X   Delta X     New X
                                 (Linear)    (Quad)   (Total)
    R1        3.13676  -0.00299  -0.00526  -0.00646  -0.01171   3.12505
    R2        3.11231   0.00010   0.00229  -0.00147   0.00082   3.11313
    R3        3.09606   0.00419   0.01002   0.00518   0.01524   3.11129
    R4        3.13214  -0.00219  -0.00647  -0.00254  -0.00901   3.12313
    R5       11.33836  -0.00245  -0.00000   0.00000   0.00000  11.33836
    R6        7.55649   0.00008   0.01562   0.01798   0.03360   7.59009
    R7        1.82271  -0.00013  -0.00058   0.00011  -0.00046   1.82224
    R8        1.82260  -0.00046   0.00013  -0.00128  -0.00115   1.82145
    R9        1.82309  -0.00058  -0.01334   0.00894  -0.00430   1.81879
   R10        1.82208   0.00040  -0.00131   0.00205   0.00073   1.82281
   R11        7.58125  -0.00005   0.00898   0.00324   0.01221   7.59346
   R12        7.31262   0.00008   0.01547   0.00827   0.02383   7.33645
   R13        3.10412  -0.00100   0.00032  -0.00345  -0.00313   3.10099
   R14        3.14822  -0.00450  -0.01163  -0.00771  -0.01932   3.12890
   R15        3.12942   0.00211   0.00671   0.00187   0.00858   3.13800
   R16        3.10294   0.00210   0.00559   0.00252   0.00809   3.11104
   R17        1.82208  -0.00051   0.00046  -0.00166  -0.00120   1.82088
   R18        1.82264   0.00033  -0.00096   0.00160   0.00064   1.82329
   R19        1.82354  -0.00057  -0.00607   0.00351  -0.00256   1.82097
   R20        1.82069  -0.00044  -0.00701   0.00450  -0.00252   1.81817
    A1        1.88271  -0.00011   0.00334  -0.00078   0.00230   1.88501
    A2        1.99559   0.00004  -0.00109   0.00110  -0.00001   1.99558
    A3        1.82490   0.00122   0.00998   0.00702   0.01690   1.84179
    A4        1.88753  -0.00107  -0.00981  -0.00901  -0.01877   1.86876
    A5        1.99257   0.00033   0.00310   0.00263   0.00546   1.99803
    A6        1.88337  -0.00033  -0.00447  -0.00026  -0.00480   1.87857
    A7        1.90462  -0.00025  -0.00197  -0.00266  -0.00463   1.89999
    A8        2.03895   0.00021   0.00075   0.00075   0.00152   2.04047
    A9        2.03166   0.00006   0.00092   0.00229   0.00319   2.03485
   A10        2.05196  -0.00015   0.00399  -0.00447  -0.00049   2.05148
   A11        2.07398  -0.00025   0.00052   0.00329   0.00378   2.07776
   A12        2.01371   0.00039  -0.00239   0.00756   0.00517   2.01888
   A13        2.02242   0.00054   0.00030   0.00063   0.00087   2.02328
   A14        1.86860  -0.00079  -0.00195  -0.00839  -0.01030   1.85830
   A15        1.89617   0.00099   0.01176   0.00229   0.01416   1.91032
   A16        1.86906  -0.00086  -0.00521  -0.00432  -0.00987   1.85919
   A17        1.93161  -0.00064  -0.00548  -0.00347  -0.00920   1.92241
   A18        1.93579   0.00069   0.00513   0.00414   0.00924   1.94504
   A19        1.86168   0.00039   0.00143   0.00471   0.00616   1.86784
   A20        1.96912  -0.00050  -0.00649  -0.00313  -0.00977   1.95935
   A21        2.04708  -0.00001   0.00401  -0.00332   0.00069   2.04777
   A22        1.97944   0.00023   0.00068  -0.00113  -0.00051   1.97893
   A23        2.01166  -0.00095  -0.00209  -0.00854  -0.01058   2.00108
   A24        2.00016   0.00089  -0.00074   0.01058   0.00985   2.01001
   A25        2.03530   0.00116   0.00380   0.00682   0.01058   2.04588
   A26        2.09688  -0.00013   0.00112   0.00053   0.00156   2.09844
   A27        2.86949  -0.00192  -0.00376  -0.00816  -0.01195   2.85754
   A28        3.00034  -0.00058  -0.00325  -0.00997  -0.01323   2.98711
   A29        2.99121  -0.00047  -0.00363  -0.00935  -0.01302   2.97819
   A30        3.28031   0.00008  -0.00299  -0.00413  -0.00710   3.27322
   A31        3.29995  -0.00038  -0.00283  -0.00734  -0.01007   3.28988
    D1        3.10729  -0.00101  -0.00807  -0.00833  -0.01649   3.09081
    D2        0.75715  -0.00104  -0.00812  -0.00968  -0.01786   0.73928
    D3        1.00709   0.00039   0.00272   0.00297   0.00565   1.01274
    D4       -1.34306   0.00036   0.00267   0.00162   0.00428  -1.33878
    D5       -1.04868  -0.00002   0.00231  -0.00185   0.00048  -1.04820
    D6        2.88436  -0.00005   0.00226  -0.00320  -0.00090   2.88347
    D7       -2.63608   0.00054   0.00477  -0.00125   0.00351  -2.63257
    D8       -0.46924  -0.00012  -0.00055  -0.00591  -0.00644  -0.47567
    D9        1.62719  -0.00108  -0.01129  -0.01095  -0.02225   1.60494
   D10       -0.94105  -0.00106  -0.00735  -0.01451  -0.02182  -0.96287
   D11       -3.03857  -0.00019  -0.00378  -0.00779  -0.01151  -3.05008
   D12        1.08104   0.00026   0.00146  -0.00533  -0.00402   1.07701
   D13       -1.03502   0.00026  -0.00086   0.00366   0.00273  -1.03229
   D14        1.16812  -0.00001  -0.00572  -0.00081  -0.00658   1.16155
   D15        1.01834   0.00109   0.01092   0.00862   0.01962   1.03796
   D16       -3.06171   0.00082   0.00606   0.00415   0.01032  -3.05139
   D17        3.11710  -0.00029  -0.00278  -0.00131  -0.00404   3.11306
   D18       -0.96295  -0.00056  -0.00764  -0.00578  -0.01334  -0.97629
   D19        0.01391  -0.00050  -0.00633  -0.00301  -0.00934   0.00457
   D20        2.34511  -0.00032  -0.00586  -0.00135  -0.00725   2.33786
   D21       -0.13785   0.00013  -0.00167   0.00270   0.00097  -0.13688
   D22       -2.47505  -0.00051   0.00020  -0.00440  -0.00425  -2.47929
   D23       -0.18783   0.00040   0.01052   0.00492   0.01545  -0.17239
   D24        2.08680   0.00066   0.00570   0.00831   0.01406   2.10085
   D25        2.67762   0.00023   0.00379   0.00359   0.00738   2.68500
   D26        0.58572  -0.00065  -0.00578  -0.00014  -0.00576   0.57997
   D27       -1.56710   0.00093   0.00943   0.00868   0.01795  -1.54915
   D28       -3.12487   0.00010   0.00202   0.00337   0.00531  -3.11956
   D29       -0.76503  -0.00016  -0.00126   0.00038  -0.00093  -0.76596
   D30       -1.07505   0.00006   0.00549   0.00190   0.00742  -1.06763
   D31        1.28480  -0.00020   0.00221  -0.00109   0.00118   1.28597
   D32        1.07552   0.00011   0.00155   0.00364   0.00510   1.08062
   D33       -2.84782  -0.00015  -0.00173   0.00065  -0.00115  -2.84897
   D34        3.12983   0.00085   0.00739   0.00050   0.00768   3.13751
   D35        1.06351  -0.00021  -0.00649  -0.00196  -0.00859   1.05492
   D36       -1.02386  -0.00085  -0.00758  -0.00877  -0.01627  -1.04013
   D37        3.13469  -0.00081  -0.00608   0.00535  -0.00061   3.13408
   D38       -1.08885   0.00026   0.00591   0.00898   0.01495  -1.07391
   D39        1.04081   0.00108   0.00932   0.01543   0.02462   1.06544
   D40        0.04622   0.00098   0.00367   0.00495   0.00858   0.05479
         Item               Value     Threshold  Converged?
 Maximum Force            0.004350     0.000450     NO 
 RMS     Force            0.000991     0.000300     NO 
 Maximum Displacement     0.031320     0.001800     NO 
 RMS     Displacement     0.010476     0.001200     NO 
 Predicted change in Energy=-3.388625D-04
 GradGradGradGradGradGradGradGradGradGradGradGradGradGradGradGradGradGrad

                          Input orientation:                          
 ---------------------------------------------------------------------
 Center     Atomic      Atomic             Coordinates (Angstroms)
 Number     Number       Type             X           Y           Z
 ---------------------------------------------------------------------
      1         14           0       -1.969403   -0.007271    0.020884
      2          8           0       -1.510049   -1.057629   -1.170955
      3          8           0       -3.613905    0.089531    0.008229
      4          8           0       -1.393637    1.523935   -0.165174
      5          8           0       -1.329999   -0.616284    1.417898
      6          1           0       -1.613451   -1.507699    1.653412
      7          1           0       -0.445199    1.658430   -0.258501
      8          1           0       -4.013982    0.915881    0.301702
      9         14           0        4.029953   -0.030183   -0.064185
     10          8           0        5.669556    0.009947   -0.117878
     11          8           0        3.430167    1.475895   -0.401047
     12          8           0        3.619424   -0.518105    1.469065
     13          8           0        3.449593   -1.049438   -1.219424
     14          1           0        2.501879   -1.186956   -1.312342
     15          1           0        2.680193   -0.591440    1.671616
     16          1           0        6.145502   -0.640955    0.409633
     17          1           0        3.883859    2.205736    0.037603
     18          1           0       -1.969631   -0.987165   -2.015746
 ---------------------------------------------------------------------
                    Distance matrix (angstroms):
                    1          2          3          4          5
     1  Si   0.000000
     2  O    1.653703   0.000000
     3  O    1.647398   2.670704   0.000000
     4  O    1.646426   2.773016   2.648995   0.000000
     5  O    1.652690   2.632368   2.775170   2.662838   0.000000
     6  H    2.245692   2.861870   3.042957   3.542087   0.964589
     7  H    2.275041   3.056706   3.545883   0.962462   2.960997
     8  H    2.260835   3.511857   0.963869   2.730185   3.285908
     9  Si   6.000003   5.742144   7.645139   5.642767   5.591884
    10  O    7.640239   7.334536   9.284659   7.223787   7.193368
    11  O    5.615440   5.605108   7.190860   4.829807   5.508625
    12  O    5.795961   5.794159   7.404344   5.654330   4.950660
    13  O    5.655970   4.959886   7.259297   5.584852   5.476092
    14  H    4.812641   4.016502   6.385621   4.882620   4.739532
    15  H    4.968391   5.084847   6.545705   4.944159   4.018287
    16  H    8.148887   7.828112   9.794935   7.864844   7.543230
    17  H    6.257664   6.419066   7.790742   5.325217   6.087144
    18  H    2.260100   0.964289   2.821238   3.172067   3.512348
                    6          7          8          9         10
     6  H    0.000000
     7  H    3.878736   0.000000
     8  H    3.669252   3.688010   0.000000
     9  Si   6.081217   4.787083   8.107639   0.000000
    10  O    7.647412   6.334627   9.734870   1.640972   0.000000
    11  O    6.209727   3.882281   7.498189   1.655745   2.691477
    12  O    5.328814   4.923712   7.854167   1.660559   2.645802
    13  O    5.839315   4.839972   7.866465   1.646291   2.695169
    14  H    5.082766   4.229903   7.034452   2.287144   3.590752
    15  H    4.390357   4.307591   6.997190   2.269332   3.535569
    16  H    7.905667   7.012197  10.278643   2.252352   0.963569
    17  H    6.827946   4.373553   8.006833   2.242998   2.834498
    18  H    3.722974   3.522922   3.629259   6.381177   7.934313
                   11         12         13         14         15
    11  O    0.000000
    12  O    2.740287   0.000000
    13  O    2.654698   2.745747   0.000000
    14  H    2.963605   3.071236   0.962136   0.000000
    15  H    3.021964   0.963618   3.026525   3.048022   0.000000
    16  H    3.537131   2.741999   3.176257   4.066853   3.688281
    17  H    0.964841   3.088417   3.516370   3.904175   3.455865
    18  H    6.150751   6.603140   5.477773   4.530905   5.947613
                   16         17         18
    16  H    0.000000
    17  H    3.654735   0.000000
    18  H    8.476892   6.976690   0.000000
 Stoichiometry    H8O8Si2
 Framework group  C1[X(H8O8Si2)]
 Deg. of freedom    48
 Full point group                 C1      NOp   1
 Largest Abelian subgroup         C1      NOp   1
 Largest concise Abelian subgroup C1      NOp   1
                         Standard orientation:                         
 ---------------------------------------------------------------------
 Center     Atomic      Atomic             Coordinates (Angstroms)
 Number     Number       Type             X           Y           Z
 ---------------------------------------------------------------------
      1         14           0       -2.995446    0.001206    0.018626
      2          8           0       -2.525652   -1.057156   -1.162009
      3          8           0       -4.640147    0.092539   -0.004523
      4          8           0       -2.423512    1.532744   -0.176308
      5          8           0       -2.362391   -0.594514    1.424237
      6          1           0       -2.644369   -1.484934    1.665218
      7          1           0       -1.474973    1.669580   -0.265104
      8          1           0       -5.044613    0.919902    0.279939
      9         14           0        3.004352   -0.002815   -0.030800
     10          8           0        4.644107    0.042232   -0.075123
     11          8           0        2.401738    1.498553   -0.383277
     12          8           0        2.586299   -0.479782    1.503864
     13          8           0        2.434139   -1.033174   -1.181231
     14          1           0        1.487441   -1.174523   -1.278642
     15          1           0        1.646124   -0.554557    1.701443
     16          1           0        5.119003   -0.602870    0.460399
     17          1           0        2.850469    2.233359    0.052176
     18          1           0       -2.980435   -0.994958   -2.010039
 ---------------------------------------------------------------------
 Rotational constants (GHZ):           1.9496367           0.2548739           0.2542769
 Standard basis: 6-31+G(d,p) (6D, 7F)
 There are   238 symmetry adapted cartesian basis functions of A   symmetry.
 There are   238 symmetry adapted basis functions of A   symmetry.
   238 basis functions,   424 primitive gaussians,   238 cartesian basis functions
    50 alpha electrons       50 beta electrons
       nuclear repulsion energy       751.5526781569 Hartrees.
 NAtoms=   18 NActive=   18 NUniq=   18 SFac= 1.00D+00 NAtFMM=   60 NAOKFM=F Big=F
 Integral buffers will be    131072 words long.
 Raffenetti 2 integral format.
 Two-electron integral symmetry is turned on.
 Nuclear repulsion after empirical dispersion term =      751.5432534752 Hartrees.
 One-electron integrals computed using PRISM.
 NBasis=   238 RedAO= T EigKep=  3.66D-04  NBF=   238
 NBsUse=   238 1.00D-06 EigRej= -1.00D+00 NBFU=   238
 Initial guess from the checkpoint file:  "/localscratch/sarashs.37136504.0/Gau-11727.chk"
 B after Tr=    -0.000000    0.000000   -0.000000
         Rot=    0.999997   -0.002361   -0.000004    0.000061 Ang=  -0.27 deg.
 ExpMin= 3.31D-02 ExpMax= 1.61D+04 ExpMxC= 2.43D+03 IAcc=3 IRadAn=         5 AccDes= 0.00D+00
 Harris functional with IExCor=  402 and IRadAn=       5 diagonalized for initial guess.
 HarFok:  IExCor=  402 AccDes= 0.00D+00 IRadAn=         5 IDoV= 1 UseB2=F ITyADJ=14
 ICtDFT=  3500011 ScaDFX=  1.000000  1.000000  1.000000  1.000000
 FoFCou: FMM=F IPFlag=           0 FMFlag=      100000 FMFlg1=           0
         NFxFlg=           0 DoJE=T BraDBF=F KetDBF=T FulRan=T
         wScrn=  0.000000 ICntrl=       500 IOpCl=  0 I1Cent=   200000004 NGrid=           0
         NMat0=    1 NMatS0=      1 NMatT0=    0 NMatD0=    1 NMtDS0=    0 NMtDT0=    0
 Petite list used in FoFCou.
 Requested convergence on RMS density matrix=1.00D-08 within 128 cycles.
 Requested convergence on MAX density matrix=1.00D-06.
 Requested convergence on             energy=1.00D-06.
 No special actions if energy rises.
 SCF Done:  E(RB3LYP) =  -1186.04507852     A.U. after    9 cycles
            NFock=  9  Conv=0.51D-08     -V/T= 2.0067
 Calling FoFJK, ICntrl=      2127 FMM=F ISym2X=0 I1Cent= 0 IOpClX= 0 NMat=1 NMatS=1 NMatT=0.
 ***** Axes restored to original set *****
 -------------------------------------------------------------------
 Center     Atomic                   Forces (Hartrees/Bohr)
 Number     Number              X              Y              Z
 -------------------------------------------------------------------
      1       14           0.003059035   -0.000571033    0.000189633
      2        8          -0.000282981    0.000268353   -0.000011819
      3        8          -0.000264658    0.000228539   -0.000679533
      4        8          -0.001845249   -0.000101403   -0.000712175
      5        8          -0.001068264    0.000410903   -0.000618640
      6        1           0.001061877   -0.000263705    0.000371209
      7        1           0.001603409    0.000448206    0.000674136
      8        1           0.000287184    0.000019629    0.000421527
      9       14          -0.002881580   -0.000128279    0.000046978
     10        8           0.000094879    0.000506644    0.000100117
     11        8           0.001346424   -0.000513922    0.000167591
     12        8           0.000462810    0.000095368   -0.001684686
     13        8           0.001135253   -0.000742096    0.000778243
     14        1          -0.000835449    0.000547895   -0.000526487
     15        1          -0.000345366   -0.000402761    0.001626375
     16        1          -0.000208351   -0.000200687   -0.000139797
     17        1          -0.001023387    0.000538113   -0.000152983
     18        1          -0.000295587   -0.000139764    0.000150312
 -------------------------------------------------------------------
 Cartesian Forces:  Max     0.003059035 RMS     0.000891289

 GradGradGradGradGradGradGradGradGradGradGradGradGradGradGradGradGradGrad
 Berny optimization.
 Using GEDIIS/GDIIS optimizer.
 FormGI is forming the generalized inverse of G from B-inverse, IUseBI=4.
 Internal  Forces:  Max     0.001471287 RMS     0.000415844
 Search for a local minimum.
 Step number   3 out of a maximum of  101
 All quantities printed in internal units (Hartrees-Bohrs-Radians)
 Mixed Optimization -- En-DIIS/RFO-DIIS
 Swapping is turned off.
 Update second derivatives using D2CorX and points    1    2    3
 DE= -4.03D-04 DEPred=-3.39D-04 R= 1.19D+00
 TightC=F SS=  1.41D+00  RLast= 1.01D-01 DXNew= 7.1165D-01 3.0400D-01
 Trust test= 1.19D+00 RLast= 1.01D-01 DXMaxT set to 4.23D-01
 ITU=  1  1  0
     Eigenvalues ---    0.00556   0.00941   0.01087   0.01464   0.02300
     Eigenvalues ---    0.02739   0.03096   0.03155   0.03649   0.03711
     Eigenvalues ---    0.03775   0.04171   0.05507   0.05658   0.06874
     Eigenvalues ---    0.07219   0.08224   0.08948   0.10619   0.10903
     Eigenvalues ---    0.11562   0.12187   0.12431   0.13684   0.15275
     Eigenvalues ---    0.15819   0.16000   0.16210   0.16959   0.17399
     Eigenvalues ---    0.19771   0.36367   0.38500   0.39340   0.40525
     Eigenvalues ---    0.43211   0.43640   0.43897   0.44459   0.48056
     Eigenvalues ---    0.49263   0.53011   0.54255   0.54345   0.54486
     Eigenvalues ---    0.54616   0.553521000.000001000.000001000.00000
     Eigenvalues --- 1000.000001000.000001000.000001000.000001000.00000
     Eigenvalues --- 1000.000001000.000001000.000001000.000001000.00000
     Eigenvalues --- 1000.000001000.000001000.000001000.000001000.00000
     Eigenvalues --- 1000.000001000.000001000.000001000.000001000.00000
     Eigenvalues --- 1000.000001000.000001000.000001000.000001000.00000
     Eigenvalues --- 1000.000001000.000001000.000001000.000001000.00000
     Eigenvalues --- 1000.000001000.000001000.000001000.000001000.00000
     Eigenvalues --- 1000.000001000.000001000.000001000.000001000.00000
     Eigenvalues --- 1000.00000
 En-DIIS/RFO-DIIS/Sim-DIIS IScMMF=       -3 using points:     3    2
 RFO step:  Lambda=-1.34106758D-04.
 DidBck=F Rises=F RFO-DIIS coefs:    1.52700   -0.52700
 Iteration  1 RMS(Cart)=  0.00612182 RMS(Int)=  0.00004722
 Iteration  2 RMS(Cart)=  0.00003361 RMS(Int)=  0.00003363
 Iteration  3 RMS(Cart)=  0.00000000 RMS(Int)=  0.00003363
 Iteration  1 RMS(Cart)=  0.00000633 RMS(Int)=  0.00000456
 Iteration  2 RMS(Cart)=  0.00000243 RMS(Int)=  0.00000507
 Iteration  3 RMS(Cart)=  0.00000093 RMS(Int)=  0.00000550
 Variable       Old X    -DE/DX   Delta X   Delta X   Delta X     New X
                                 (Linear)    (Quad)   (Total)
    R1        3.12505  -0.00045  -0.00617   0.00253  -0.00363   3.12142
    R2        3.11313  -0.00001   0.00043   0.00006   0.00049   3.11363
    R3        3.11129   0.00000   0.00803  -0.00392   0.00414   3.11543
    R4        3.12313  -0.00010  -0.00475   0.00255  -0.00219   3.12094
    R5       11.33836  -0.00133   0.00000   0.00000  -0.00000  11.33836
    R6        7.59009  -0.00023   0.01771   0.00144   0.01917   7.60926
    R7        1.82224  -0.00000  -0.00024   0.00008  -0.00017   1.82208
    R8        1.82145   0.00003  -0.00061   0.00054  -0.00007   1.82138
    R9        1.81879   0.00119  -0.00227   0.00315   0.00095   1.81974
   R10        1.82281   0.00002   0.00039  -0.00047  -0.00008   1.82273
   R11        7.59346  -0.00031   0.00644  -0.00097   0.00549   7.59896
   R12        7.33645  -0.00037   0.01256  -0.00587   0.00675   7.34319
   R13        3.10099  -0.00010  -0.00165   0.00100  -0.00065   3.10034
   R14        3.12890  -0.00015  -0.01018   0.00561  -0.00455   3.12436
   R15        3.13800  -0.00035   0.00452  -0.00307   0.00145   3.13946
   R16        3.11104  -0.00020   0.00427  -0.00245   0.00181   3.11285
   R17        1.82088  -0.00004  -0.00063   0.00046  -0.00018   1.82071
   R18        1.82329  -0.00014   0.00034  -0.00075  -0.00041   1.82288
   R19        1.82097   0.00033  -0.00135   0.00141   0.00009   1.82106
   R20        1.81817   0.00058  -0.00133   0.00176   0.00046   1.81863
    A1        1.88501  -0.00027   0.00121  -0.00150  -0.00037   1.88464
    A2        1.99558   0.00035  -0.00000   0.00181   0.00176   1.99734
    A3        1.84179   0.00016   0.00891  -0.00321   0.00566   1.84745
    A4        1.86876  -0.00047  -0.00989   0.00218  -0.00768   1.86108
    A5        1.99803   0.00010   0.00288  -0.00014   0.00266   2.00069
    A6        1.87857   0.00016  -0.00253   0.00088  -0.00169   1.87688
[...]

                          Input orientation:                          
 ---------------------------------------------------------------------
 Center     Atomic      Atomic             Coordinates (Angstroms)
 Number     Number       Type             X           Y           Z
 ---------------------------------------------------------------------
      1         14           0       -2.017050    0.011490   -0.158144
      2          8           0       -2.492149   -0.551610   -1.637610
      3          8           0       -3.063614    1.234152    0.218720
      4          8           0       -0.508367    0.662554   -0.073127
      5          8           0       -2.040446   -1.292438    0.853911
      6          1           0       -2.718103   -1.955349    0.679241
      7          1           0        0.266234    0.090230    0.034302
      8          1           0       -2.742881    1.884965    0.853327
      9         14           0        3.971686   -0.062524    0.201873
     10          8           0        4.814240    1.006416   -0.726622
     11          8           0        2.374526    0.337768   -0.005250
     12          8           0        4.553968    0.079154    1.735951
     13          8           0        4.104504   -1.655037   -0.200990
     14          1           0        3.565021   -1.971085   -0.934664
     15          1           0        4.416123   -0.669453    2.327548
     16          1           0        5.734578    1.163239   -0.486556
     17          1           0        2.192977    1.271655   -0.174285
     18          1           0       -2.860378    0.102103   -2.242834
 ---------------------------------------------------------------------
                    Distance matrix (angstroms):
                    1          2          3          4          5
     1  Si   0.000000
     2  O    1.652761   0.000000
     3  O    1.652944   2.638462   0.000000
     4  O    1.645369   2.803068   2.634613   0.000000
     5  O    1.650767   2.638283   2.798928   2.651162   0.000000
     6  H    2.249699   2.718334   3.241045   3.507479   0.963940
     7  H    2.292733   3.288757   3.525685   0.969073   2.811459
     8  H    2.249403   3.493499   0.963926   2.710287   3.254122
     9  Si   6.000005   6.738254   7.153817   4.546673   6.171189
    10  O    6.926729   7.525999   7.937639   5.373587   7.400644
    11  O    4.406334   5.209618   5.516070   2.901925   4.784110
    12  O    6.838893   7.837508   7.852615   5.407435   6.793052
    13  O    6.344492   6.840852   7.739863   5.163929   6.245375
    14  H    5.974371   6.260858   7.452693   4.926539   5.922906
    15  H    6.930229   7.966215   8.001083   5.638092   6.651842
    16  H    7.843604   8.482020   8.826699   6.276621   8.263063
    17  H    4.394612   5.236031   5.271395   2.771010   5.055060
    18  H    2.250632   0.963966   2.717000   3.248644   3.493832
                    6          7          8          9         10
     6  H    0.000000
     7  H    3.675134   0.000000
     8  H    3.844338   3.598145   0.000000
     9  Si   6.968784   3.712383   7.021575   0.000000
    10  O    8.214907   4.701357   7.770339   1.647614   0.000000
    11  O    5.626881   2.123143   5.414686   1.659534   2.630526
    12  O    7.624884   4.613068   7.568618   1.646973   2.644205
    13  O    6.885708   4.222989   7.780096   1.648041   2.804166
    14  H    6.487109   4.008729   7.606291   2.258251   3.235636
    15  H    7.434220   4.801841   7.742720   2.254857   3.506421
    16  H    9.084740   5.596913   8.612984   2.254821   0.963975
    17  H    5.938078   2.269717   5.078861   2.255068   2.691922
    18  H    3.576573   3.867969   3.574719   7.258153   7.875051
                   11         12         13         14         15
    11  O    0.000000
    12  O    2.801541   0.000000
    13  O    2.646207   2.638405   0.000000
    14  H    2.758965   3.509085   0.963953   0.000000
    15  H    3.259534   0.964055   2.731665   3.613952   0.000000
    16  H    3.493281   2.740186   3.268237   3.838198   3.607807
    17  H    0.966270   3.262719   3.495737   3.602227   3.869037
    18  H    5.697942   8.414498   7.467680   6.877148   8.627349
                   16         17         18
    16  H    0.000000
    17  H    3.556994   0.000000
    18  H    8.836503   5.584187   0.000000
 Stoichiometry    H8O8Si2
 Framework group  C1[X(H8O8Si2)]
 Deg. of freedom    48
 Full point group                 C1      NOp   1
 Largest Abelian subgroup         C1      NOp   1
 Largest concise Abelian subgroup C1      NOp   1
                         Standard orientation:                         
 ---------------------------------------------------------------------
 Center     Atomic      Atomic             Coordinates (Angstroms)
 Number     Number       Type             X           Y           Z
 ---------------------------------------------------------------------
      1         14           0       -2.994011   -0.002611    0.027252
      2          8           0       -3.563385   -0.332565   -1.488849
      3          8           0       -4.025278    1.121438    0.663826
      4          8           0       -1.490093    0.658890    0.116041
      5          8           0       -2.934026   -1.451499    0.816022
      6          1           0       -3.614942   -2.092491    0.582223
      7          1           0       -0.703878    0.093575    0.078807
      8          1           0       -3.668762    1.669425    1.372177
      9         14           0        3.005764   -0.004116   -0.025133
     10          8           0        3.771203    1.217160   -0.823395
     11          8           0        1.393976    0.389601   -0.059454
     12          8           0        3.690311   -0.096491    1.469986
     13          8           0        3.127659   -1.508723   -0.686447
     14          1           0        2.542549   -1.715217   -1.424154
     15          1           0        3.601360   -0.932686    1.941438
     16          1           0        4.704107    1.353460   -0.622495
     17          1           0        1.191295    1.334365   -0.063933
     18          1           0       -3.979208    0.401249   -1.955581
 ---------------------------------------------------------------------
 Rotational constants (GHZ):           1.9525521           0.2556128           0.2528835

 **********************************************************************

            Population analysis using the SCF Density.

 **********************************************************************

 Orbital symmetries:
       Occupied  (A) (A) (A) (A) (A) (A) (A) (A) (A) (A) (A) (A)
                 (A) (A) (A) (A) (A) (A) (A) (A) (A) (A) (A) (A)
                 (A) (A) (A) (A) (A) (A) (A) (A) (A) (A) (A) (A)
                 (A) (A) (A) (A) (A) (A) (A) (A) (A) (A) (A) (A)
                 (A) (A)
       Virtual   (A) (A) (A) (A) (A) (A) (A) (A) (A) (A) (A) (A)
                 (A) (A) (A) (A) (A) (A) (A) (A) (A) (A) (A) (A)
                 (A) (A) (A) (A) (A) (A) (A) (A) (A) (A) (A) (A)
                 (A) (A) (A) (A) (A) (A) (A) (A) (A) (A) (A) (A)
                 (A) (A) (A) (A) (A) (A) (A) (A) (A) (A) (A) (A)
                 (A) (A) (A) (A) (A) (A) (A) (A) (A) (A) (A) (A)
                 (A) (A) (A) (A) (A) (A) (A) (A) (A) (A) (A) (A)
                 (A) (A) (A) (A) (A) (A) (A) (A) (A) (A) (A) (A)
                 (A) (A) (A) (A) (A) (A) (A) (A) (A) (A) (A) (A)
                 (A) (A) (A) (A) (A) (A) (A) (A) (A) (A) (A) (A)
                 (A) (A) (A) (A) (A) (A) (A) (A) (A) (A) (A) (A)
                 (A) (A) (A) (A) (A) (A) (A) (A) (A) (A) (A) (A)
                 (A) (A) (A) (A) (A) (A) (A) (A) (A) (A) (A) (A)
                 (A) (A) (A) (A) (A) (A) (A) (A) (A) (A) (A) (A)
                 (A) (A) (A) (A) (A) (A) (A) (A) (A) (A) (A) (A)
                 (A) (A) (A) (A) (A) (A) (A) (A)
 The electronic state is 1-A.
 Alpha  occ. eigenvalues --  -66.22980 -66.21512 -19.18100 -19.17625 -19.17613
 Alpha  occ. eigenvalues --  -19.17576 -19.16440 -19.16399 -19.16331 -19.15834
 Alpha  occ. eigenvalues --   -5.36318  -5.34856  -3.72302  -3.72293  -3.72286
 Alpha  occ. eigenvalues --   -3.70841  -3.70831  -3.70825  -1.05446  -1.03971
 Alpha  occ. eigenvalues --   -1.01928  -1.01728  -1.01220  -1.00458  -1.00247
 Alpha  occ. eigenvalues --   -0.99576  -0.60676  -0.59181  -0.54388  -0.54330
 Alpha  occ. eigenvalues --   -0.53630  -0.52933  -0.52833  -0.52162  -0.41513
 Alpha  occ. eigenvalues --   -0.40020  -0.39783  -0.39042  -0.38957  -0.37959
 Alpha  occ. eigenvalues --   -0.37704  -0.37357  -0.36777  -0.36312  -0.35344
 Alpha  occ. eigenvalues --   -0.34911  -0.33592  -0.33450  -0.32106  -0.32009
 Alpha virt. eigenvalues --   -0.03286  -0.01622   0.01053   0.01411   0.01791
 Alpha virt. eigenvalues --    0.02449   0.02782   0.05823   0.09798   0.10141
 Alpha virt. eigenvalues --    0.10652   0.11839   0.12231   0.12676   0.12950
 Alpha virt. eigenvalues --    0.14207   0.14885   0.15244   0.15401   0.15877
 Alpha virt. eigenvalues --    0.15973   0.16457   0.16790   0.16869   0.17611
 Alpha virt. eigenvalues --    0.17741   0.17791   0.18839   0.19390   0.19870
 Alpha virt. eigenvalues --    0.20770   0.21391   0.21903   0.22536   0.22944
 Alpha virt. eigenvalues --    0.23608   0.24567   0.25235   0.25710   0.26653
 Alpha virt. eigenvalues --    0.26875   0.27659   0.28067   0.29289   0.29851
 Alpha virt. eigenvalues --    0.30392   0.31696   0.32883   0.34141   0.34655
 Alpha virt. eigenvalues --    0.36233   0.38914   0.39067   0.40247   0.41713
 Alpha virt. eigenvalues --    0.42196   0.44799   0.45637   0.46163   0.47831
 Alpha virt. eigenvalues --    0.49639   0.54768   0.60445   0.60819   0.62770
 Alpha virt. eigenvalues --    0.64853   0.68242   0.69431   0.92720   0.93236
 Alpha virt. eigenvalues --    0.94534   0.94955   0.95734   0.96756   0.97922
 Alpha virt. eigenvalues --    0.99102   0.99804   1.00257   1.00949   1.01093
 Alpha virt. eigenvalues --    1.02013   1.11696   1.15099   1.15426   1.16110
 Alpha virt. eigenvalues --    1.16587   1.17167   1.18173   1.18679   1.19125
 Alpha virt. eigenvalues --    1.19966   1.21142   1.21382   1.21712   1.23176
 Alpha virt. eigenvalues --    1.23809   1.25346   1.26050   1.26519   1.28478
 Alpha virt. eigenvalues --    1.29152   1.30101   1.30934   1.31289   1.33241
 Alpha virt. eigenvalues --    1.40942   1.46647   1.47680   1.48852   1.50278
 Alpha virt. eigenvalues --    1.53002   1.54678   1.55503   1.58089   1.58921
 Alpha virt. eigenvalues --    1.60210   1.60556   1.61439   1.62456   1.63168
 Alpha virt. eigenvalues --    1.63765   1.65979   1.70085   1.70893   1.73440
 Alpha virt. eigenvalues --    1.74427   1.75191   1.76086   1.87454   1.89332
 Alpha virt. eigenvalues --    1.90625   1.91079   1.91776   1.92749   2.02998
 Alpha virt. eigenvalues --    2.04212   2.10954   2.12378   2.34223   2.35907
 Alpha virt. eigenvalues --    2.36831   2.38040   2.38822   2.38991   2.40086
 Alpha virt. eigenvalues --    2.41673   2.45206   2.46584   2.57157   2.58723
 Alpha virt. eigenvalues --    2.60060   2.60440   2.60752   2.61251   2.62012
 Alpha virt. eigenvalues --    2.62690   2.64091   2.64974   2.65289   2.66387
 Alpha virt. eigenvalues --    2.66759   2.67478   2.70142   2.70651   2.79581
 Alpha virt. eigenvalues --    2.79927   2.80464   2.82170   2.82998   2.88277
 Alpha virt. eigenvalues --    3.00988   3.01366   3.38621   3.39848   3.40549
 Alpha virt. eigenvalues --    3.42203   3.42857   3.45777   3.47515   3.57098
 Alpha virt. eigenvalues --    4.10944   4.12542   4.15650   4.16965   4.18327
 Alpha virt. eigenvalues --    4.19339   4.22521   4.25945
          Condensed to atoms (all electrons):
               1          2          3          4          5          6
     1  Si  11.780385   0.100600  -0.077421  -0.022148   0.086232   0.024132
     2  O    0.100600   8.491243   0.047440  -0.018103   0.028058  -0.002010
     3  O   -0.077421   0.047440   8.541236   0.143058   0.001091  -0.005171
     4  O   -0.022148  -0.018103   0.143058   8.526957   0.031824   0.008109
     5  O    0.086232   0.028058   0.001091   0.031824   8.499653   0.239258
     6  H    0.024132  -0.002010  -0.005171   0.008109   0.239258   0.364429
     7  H    0.008934  -0.004118   0.005754   0.244923  -0.000452   0.000048
     8  H    0.017345   0.005884   0.247011   0.001537  -0.005922   0.000057
     9  Si   0.000659  -0.000282  -0.000143  -0.021382  -0.000260  -0.000003
    10  O   -0.000166   0.000003  -0.000002   0.000440   0.000003   0.000000
    11  O   -0.015119  -0.001327   0.002729   0.003398  -0.001114   0.000038
    12  O   -0.000231   0.000011  -0.000003  -0.000054   0.000001   0.000000
    13  O   -0.000866  -0.000016  -0.000004   0.002320   0.000009   0.000000
    14  H   -0.000036   0.000000   0.000000  -0.000021  -0.000003   0.000000
    15  H   -0.000001  -0.000000  -0.000000  -0.000002   0.000000  -0.000000
    16  H    0.000004  -0.000000   0.000000  -0.000003  -0.000000   0.000000
    17  H    0.001495   0.000002  -0.000050   0.008117  -0.000001  -0.000000
    18  H    0.033425   0.241665  -0.003724  -0.010133   0.006206   0.000090
               7          8          9         10         11         12
     1  Si   0.008934   0.017345   0.000659  -0.000166  -0.015119  -0.000231
     2  O   -0.004118   0.005884  -0.000282   0.000003  -0.001327   0.000011
     3  O    0.005754   0.247011  -0.000143  -0.000002   0.002729  -0.000003
     4  O    0.244923   0.001537  -0.021382   0.000440   0.003398  -0.000054
     5  O   -0.000452  -0.005922  -0.000260   0.000003  -0.001114   0.000001
     6  H    0.000048   0.000057  -0.000003   0.000000   0.000038   0.000000
     7  H    0.317786   0.000056   0.002176   0.000157   0.013630   0.000207
     8  H    0.000056   0.361302  -0.000004  -0.000000   0.000036  -0.000000
     9  Si   0.002176  -0.000004  12.025636  -0.069914  -0.134259   0.020351
    10  O    0.000157  -0.000000  -0.069914   8.575367   0.133035   0.050765
    11  O    0.013630   0.000036  -0.134259   0.133035   8.533892   0.039543
    12  O    0.000207  -0.000000   0.020351   0.050765   0.039543   8.499516
    13  O   -0.000397   0.000000  -0.000209   0.001072   0.107295   0.041487
    14  H   -0.000007   0.000000   0.023687  -0.006798  -0.002421   0.006296
    15  H    0.000001  -0.000000   0.029554   0.006166  -0.007791   0.244731
    16  H   -0.000001   0.000000   0.029175   0.236485   0.002551  -0.002523
    17  H   -0.000136   0.000000  -0.010011   0.000431   0.257442  -0.004526
    18  H    0.000066   0.000091   0.000015   0.000000  -0.000038  -0.000000
              13         14         15         16         17         18
     1  Si  -0.000866  -0.000036  -0.000001   0.000004   0.001495   0.033425
     2  O   -0.000016   0.000000  -0.000000  -0.000000   0.000002   0.241665
     3  O   -0.000004   0.000000  -0.000000   0.000000  -0.000050  -0.003724
     4  O    0.002320  -0.000021  -0.000002  -0.000003   0.008117  -0.010133
     5  O    0.000009  -0.000003   0.000000  -0.000000  -0.000001   0.006206
     6  H    0.000000   0.000000  -0.000000   0.000000  -0.000000   0.000090
     7  H   -0.000397  -0.000007   0.000001  -0.000001  -0.000136   0.000066
     8  H    0.000000   0.000000  -0.000000   0.000000   0.000000   0.000091
     9  Si  -0.000209   0.023687   0.029554   0.029175  -0.010011   0.000015
    10  O    0.001072  -0.006798   0.006166   0.236485   0.000431   0.000000
    11  O    0.107295  -0.002421  -0.007791   0.002551   0.257442  -0.000038
    12  O    0.041487   0.006296   0.244731  -0.002523  -0.004526  -0.000000
    13  O    8.489187   0.246369  -0.002386  -0.005502   0.007032   0.000000
    14  H    0.246369   0.358607   0.000077   0.000065   0.000059  -0.000000
    15  H   -0.002386   0.000077   0.355713   0.000065   0.000057  -0.000000
    16  H   -0.005502   0.000065   0.000065   0.358113   0.000051  -0.000000
    17  H    0.007032   0.000059   0.000057   0.000051   0.348756   0.000000
    18  H    0.000000  -0.000000  -0.000000  -0.000000   0.000000   0.362273
 Mulliken charges:
               1
     1  Si   2.062774
     2  O   -0.889050
     3  O   -0.901802
     4  O   -0.898838
     5  O   -0.884584
     6  H    0.371023
     7  H    0.411372
     8  H    0.372607
     9  Si   2.105213
    10  O   -0.927043
    11  O   -0.931520
    12  O   -0.895572
    13  O   -0.885390
    14  H    0.374127
    15  H    0.373816
    16  H    0.381519
    17  H    0.391283
    18  H    0.370064
 Sum of Mulliken charges =  -0.00000
 Mulliken charges with hydrogens summed into heavy atoms:
               1
     1  Si   2.062774
     2  O   -0.518986
     3  O   -0.529195
     4  O   -0.487466
     5  O   -0.513560
     9  Si   2.105213
    10  O   -0.545524
    11  O   -0.540237
    12  O   -0.521756
    13  O   -0.511263
 Electronic spatial extent (au):  <R**2>=           4133.5748
 Charge=             -0.0000 electrons
 Dipole moment (field-independent basis, Debye):
    X=              0.9090    Y=              0.0989    Z=             -0.1657  Tot=              0.9292
 Quadrupole moment (field-independent basis, Debye-Ang):
   XX=            -67.4776   YY=            -67.4129   ZZ=            -69.1906
   XY=              0.3540   XZ=              1.1488   YZ=             -0.0552
 Traceless Quadrupole moment (field-independent basis, Debye-Ang):
   XX=              0.5495   YY=              0.6141   ZZ=             -1.1636
   XY=              0.3540   XZ=              1.1488   YZ=             -0.0552
 Octapole moment (field-independent basis, Debye-Ang**2):
  XXX=             38.6918  YYY=             -1.2582  ZZZ=             -0.3473  XYY=            -13.1665
  XXY=              4.1510  XXZ=             -8.1100  XZZ=             -6.5467  YZZ=             -0.8658
  YYZ=              6.4686  XYZ=             -2.9301
 Hexadecapole moment (field-independent basis, Debye-Ang**3):
 XXXX=          -4035.7304 YYYY=           -357.4734 ZZZZ=           -311.3791 XXXY=            180.3800
 XXXZ=             28.9798 YYYX=             38.4655 YYYZ=             14.1515 ZZZX=             21.5259
 ZZZY=             -4.0110 XXYY=           -704.2456 XXZZ=           -726.4423 YYZZ=           -101.6780
 XXYZ=            -65.3586 YYXZ=             -6.7371 ZZXY=            -93.4252
 N-N= 7.579831151886D+02 E-N=-4.325972397373D+03  KE= 1.178167312550D+03
 1\1\GINC-GRA820\FOpt\RB3LYP\6-31+G(d,p)\H8O8Si2\SARASHS\11-Aug-2020\0\
 \#n B3LYP/6-31+G(d,p) EmpiricalDispersion=GD3 Opt=modredundant\\Title\
 \0,1\Si,-2.0170504967,0.0114895565,-0.1581442965\O,-2.4921485837,-0.55
 16104073,-1.6376100842\O,-3.0636135525,1.2341519086,0.2187199439\O,-0.
 5083670445,0.6625542097,-0.0731268851\O,-2.0404457693,-1.2924384322,0.
 8539109295\H,-2.7181032916,-1.9553490703,0.6792410736\H,0.2662338164,0
 .0902297398,0.0343015272\H,-2.7428811189,1.884964902,0.8533270523\Si,3
 .9716860945,-0.0625239709,0.2018731241\O,4.8142396286,1.0064159841,-0.
 7266221838\O,2.3745261276,0.3377681288,-0.0052501092\O,4.5539680064,0.
 079154475,1.7359510932\O,4.1045044352,-1.6550371186,-0.2009904902\H,3.
 565020857,-1.9710846068,-0.9346636763\H,4.4161230207,-0.6694525809,2.3
 275484898\H,5.7345783169,1.1632392771,-0.4865561955\H,2.1929772186,1.2
 716549629,-0.1742850335\H,-2.8603776648,0.1021030423,-2.2428342791\\Ve
 rsion=ES64L-G16RevB.01\State=1-A\HF=-1186.0564309\RMSD=4.288e-09\RMSF=
 4.459e-04\Dipole=0.3619007,0.0240909,-0.0458842\Quadrupole=0.3020191,0
 .4009725,-0.7029916,0.413616,0.8749984,-0.2292056\PG=C01 [X(H8O8Si2)]\
 \@


 IF IT HAPPENS, IT MUST BE POSSIBLE.

 -- THE UNNAMED LAW FROM PAUL DICKSON'S 
    "THE OFFICIAL RULES"
 Job cpu time:       0 days  3 hours 56 minutes 10.4 seconds.
 Elapsed time:       0 days  0 hours 15 minutes 40.8 seconds.
 File lengths (MBytes):  RWF=     40 Int=      0 D2E=      0 Chk=      5 Scr=      1
 Normal termination of Gaussian 16 at Tue Aug 11 13:38:14 2020.
