 Entering Gaussian System, Link 0=g16
 Initial command:
 /opt/software/gaussian/g16.b01/l1.exe "/localscratch/sarashs.37136507.0/Gau-5739.inp" -scrdir="/localscratch/sarashs.37136507.0/"
 Entering Link 1 = /opt/software/gaussian/g16.b01/l1.exe PID=      5740.
  
 Copyright (c) 1988-2017, Gaussian, Inc.  All Rights Reserved.
  
 This is part of the Gaussian(R) 16 program.  It is based on
 the Gaussian(R) 09 system (copyright 2009, Gaussian, Inc.),
 the Gaussian(R) 03 system (copyright 2003, Gaussian, Inc.),
 the Gaussian(R) 98 system (copyright 1998, Gaussian, Inc.),
 the Gaussian(R) 94 system (copyright 1995, Gaussian, Inc.),
 the Gaussian 92(TM) system (copyright 1992, Gaussian, Inc.),
 the Gaussian 90(TM) system (copyright 1990, Gaussian, Inc.),
 the Gaussian 88(TM) system (copyright 1988, Gaussian, Inc.),
 the Gaussian 86(TM) system (copyright 1986, Carnegie Mellon
 University), and the Gaussian 82(TM) system (copyright 1983,
 Carnegie Mellon University). Gaussian is a federally registered
 trademark of Gaussian, Inc.
  
 This software contains proprietary and confidential information,
 including trade secrets, belonging to Gaussian, Inc.
  
 This software is provided under written license and may be
 used, copied, transmitted, or stored only in accord with that
 written license.
  
 The following legend is applicable only to US Government
 contracts under FAR:
  
                    RESTRICTED RIGHTS LEGEND
  
 Use, reproduction and disclosure by the US Government is
 subject to restrictions as set forth in subparagraphs (a)
 and (c) of the Commercial Computer Software - Restricted
 Rights clause in FAR 52.227-19.
  
 Gaussian, Inc.
 340 Quinnipiac St., Bldg. 40, Wallingford CT 06492
  
  
 ---------------------------------------------------------------
 Warning -- This program may not be used in any manner that
 competes with the business of Gaussian, Inc. or will provide
 assistance to any competitor of Gaussian, Inc.  The licensee
 of this program is prohibited from giving any competitor of
 Gaussian, Inc. access to this program.  By using this program,
 the user acknowledges that Gaussian, Inc. is engaged in the
 business of creating and licensing software in the field of
 computational chemistry and represents and warrants to the
 licensee that it is not a competitor of Gaussian, Inc. and that
 it will not use this program in any manner prohibited above.
 ---------------------------------------------------------------
  

 Cite this work as:
 Gaussian 16, Revision B.01,
 M. J. Frisch, G. W. Trucks, H. B. Schlegel, G. E. Scuseria, 
 M. A. Robb, J. R. Cheeseman, G. Scalmani, V. Barone, 
 G. A. Petersson, H. Nakatsuji, X. Li, M. Caricato, A. V. Marenich, 
 J. Bloino, B. G. Janesko, R. Gomperts, B. Mennucci, H. P. Hratchian, 
 J. V. Ortiz, A. F. Izmaylov, J. L. Sonnenberg, D. Williams-Young, 
 F. Ding, F. Lipparini, F. Egidi, J. Goings, B. Peng, A. Petrone, 
 T. Henderson, D. Ranasinghe, V. G. Zakrzewski, J. Gao, N. Rega, 
 G. Zheng, W. Liang, M. Hada, M. Ehara, K. Toyota, R. Fukuda, 
 J. Hasegawa, M. Ishida, T. Nakajima, Y. Honda, O. Kitao, H. Nakai, 
 T. Vreven, K. Throssell, J. A. Montgomery, Jr., J. E. Peralta, 
 F. Ogliaro, M. J. Bearpark, J. J. Heyd, E. N. Brothers, K. N. Kudin, 
 V. N. Staroverov, T. A. Keith, R. Kobayashi, J. Normand, 
 K. Raghavachari, A. P. Rendell, J. C. Burant, S. S. Iyengar, 
 J. Tomasi, M. Cossi, J. M. Millam, M. Klene, C. Adamo, R. Cammi, 
 J. W. Ochterski, R. L. Martin, K. Morokuma, O. Farkas, 
 J. B. Foresman, and D. J. Fox, Gaussian, Inc., Wallingford CT, 2016.
 
 ******************************************
 Gaussian 16:  ES64L-G16RevB.01 20-Dec-2017
                11-Aug-2020 
 ******************************************
 %NProcShared=16
 Will use up to   16 processors via shared memory.
 -------------------------------------------------------------
 #n B3LYP/6-31+G(d,p) EmpiricalDispersion=GD3 Opt=modredundant
 -------------------------------------------------------------
 1/18=120,19=15,26=3,38=1/1,3;
 2/9=110,12=2,17=6,18=5,40=1/2;
 3/5=1,6=6,7=111,11=2,25=1,30=1,71=1,74=-5,124=31/1,2,3;
 4//1;
 5/5=2,38=5/2;
 6/7=2,8=2,9=2,10=2,28=1/1;
 7//1,2,3,16;
 1/18=20,19=15,26=3/3(2);
 2/9=110/2;
 99//99;
 2/9=110/2;
 3/5=1,6=6,7=111,11=2,25=1,30=1,71=1,74=-5,124=31/1,2,3;
 4/5=5,16=3,69=1/1;
 5/5=2,38=5/2;
 7//1,2,3,16;
 1/18=20,19=15,26=3/3(-5);
 2/9=110/2;
 6/7=2,8=2,9=2,10=2,19=2,28=1/1;
 99/9=1/99;
 -----
 Title
 -----
 Symbolic Z-matrix:
 Charge =  0 Multiplicity = 1
 Si                   -1.97199   0.03198   0.02178 
 O                    -1.49839  -1.04281  -1.16096 
 O                    -3.61529   0.07731   0.01517 
 O                    -1.38578   1.53664  -0.16122 
 O                    -1.32513  -0.62357   1.41007 
 H                    -1.61852  -1.51781   1.62751 
 H                    -0.41713   1.65614  -0.27249 
 H                    -4.03179   0.8972    0.30533 
 Si                    2.32703  -0.03996  -0.03564 
 O                     3.96442   0.05986  -0.11188 
 O                     1.72585   1.49364  -0.3724 
 O                     1.91968  -0.4861    1.49675 
 O                     1.73418  -1.03373  -1.1902 
 H                     0.77485  -1.17759  -1.26199 
 H                     0.96724  -0.55621   1.6828 
 H                     4.46214  -0.5698    0.42134 
 H                     2.19312   2.21578   0.06677 
 H                    -1.95012  -0.97878  -2.01163 
 
 Add virtual bond connecting atoms O11        and H7         Dist= 4.07D+00.
 Add virtual bond connecting atoms H14        and O2         Dist= 4.31D+00.
 Add virtual bond connecting atoms H15        and O5         Dist= 4.36D+00.
 The following ModRedundant input section has been read:
 B       1       9 F                                                           
 

 GradGradGradGradGradGradGradGradGradGradGradGradGradGradGradGradGradGrad
 Berny optimization.
 Initialization pass.
                           ----------------------------
                           !    Initial Parameters    !
                           ! (Angstroms and Degrees)  !
 --------------------------                            --------------------------
 ! Name  Definition              Value          Derivative Info.                !
 --------------------------------------------------------------------------------
 ! R1    R(1,2)                  1.6668         estimate D2E/DX2                !
 ! R2    R(1,3)                  1.6439         estimate D2E/DX2                !
 ! R3    R(1,4)                  1.6252         estimate D2E/DX2                !
 ! R4    R(1,5)                  1.666          estimate D2E/DX2                !
 ! R5    R(1,9)                  4.3            Frozen                          !
 ! R6    R(2,14)                 2.2795         estimate D2E/DX2                !
 ! R7    R(2,18)                 0.9653         estimate D2E/DX2                !
 ! R8    R(3,8)                  0.9643         estimate D2E/DX2                !
 ! R9    R(4,7)                  0.9823         estimate D2E/DX2                !
 ! R10   R(5,6)                  0.9659         estimate D2E/DX2                !
 ! R11   R(5,15)                 2.3095         estimate D2E/DX2                !
 ! R12   R(7,11)                 2.1515         estimate D2E/DX2                !
 ! R13   R(9,10)                 1.6422         estimate D2E/DX2                !
 ! R14   R(9,11)                 1.6813         estimate D2E/DX2                !
 ! R15   R(9,12)                 1.6472         estimate D2E/DX2                !
 ! R16   R(9,13)                 1.6346         estimate D2E/DX2                !
 ! R17   R(10,16)                0.9636         estimate D2E/DX2                !
 ! R18   R(11,17)                0.9658         estimate D2E/DX2                !
 ! R19   R(12,15)                0.973          estimate D2E/DX2                !
 ! R20   R(13,14)                0.9727         estimate D2E/DX2                !
 ! A1    A(2,1,3)              107.3944         estimate D2E/DX2                !
 ! A2    A(2,1,4)              114.4947         estimate D2E/DX2                !
 ! A3    A(2,1,5)              103.1351         estimate D2E/DX2                !
 ! A4    A(3,1,4)              109.5475         estimate D2E/DX2                !
 ! A5    A(3,1,5)              113.7235         estimate D2E/DX2                !
 ! A6    A(4,1,5)              108.5478         estimate D2E/DX2                !
 ! A7    A(1,2,14)             110.6666         estimate D2E/DX2                !
 ! A8    A(1,2,18)             116.7164         estimate D2E/DX2                !
 ! A9    A(14,2,18)            115.5662         estimate D2E/DX2                !
 ! A10   A(1,3,8)              116.9996         estimate D2E/DX2                !
 ! A11   A(1,4,7)              118.7559         estimate D2E/DX2                !
 ! A12   A(1,5,6)              115.7177         estimate D2E/DX2                !
 ! A13   A(1,5,15)             118.185          estimate D2E/DX2                !
 ! A14   A(6,5,15)             107.5718         estimate D2E/DX2                !
 ! A15   A(10,9,11)            106.9645         estimate D2E/DX2                !
 ! A16   A(10,9,12)            107.8322         estimate D2E/DX2                !
 ! A17   A(10,9,13)            111.4555         estimate D2E/DX2                !
 ! A18   A(11,9,12)            110.18           estimate D2E/DX2                !
 ! A19   A(11,9,13)            106.4622         estimate D2E/DX2                !
 ! A20   A(12,9,13)            113.7492         estimate D2E/DX2                !
 ! A21   A(9,10,16)            116.718          estimate D2E/DX2                !
 ! A22   A(7,11,9)             114.5669         estimate D2E/DX2                !
 ! A23   A(7,11,17)            113.8495         estimate D2E/DX2                !
 ! A24   A(9,11,17)            114.7063         estimate D2E/DX2                !
 ! A25   A(9,12,15)            116.0716         estimate D2E/DX2                !
 ! A26   A(9,13,14)            119.9822         estimate D2E/DX2                !
 ! A27   A(5,15,12)            162.0175         estimate D2E/DX2                !
 ! A28   L(4,7,11,2,-1)        170.6918         estimate D2E/DX2                !
 ! A29   L(2,14,13,15,-1)      170.9437         estimate D2E/DX2                !
 ! A30   L(4,7,11,2,-2)        188.0403         estimate D2E/DX2                !
 ! A31   L(2,14,13,15,-2)      190.3353         estimate D2E/DX2                !
 ! D1    D(3,1,2,14)           179.4666         estimate D2E/DX2                !
 ! D2    D(3,1,2,18)            44.5394         estimate D2E/DX2                !
 ! D3    D(4,1,2,14)            57.5941         estimate D2E/DX2                !
 ! D4    D(4,1,2,18)           -77.3331         estimate D2E/DX2                !
 ! D5    D(5,1,2,14)           -60.1334         estimate D2E/DX2                !
 ! D6    D(5,1,2,18)           164.9394         estimate D2E/DX2                !
 ! D7    D(2,1,3,8)           -151.7167         estimate D2E/DX2                !
 ! D8    D(4,1,3,8)            -26.8074         estimate D2E/DX2                !
 ! D9    D(5,1,3,8)             94.8432         estimate D2E/DX2                !
 ! D10   D(2,1,4,7)            -52.8688         estimate D2E/DX2                !
 ! D11   D(3,1,4,7)           -173.5574         estimate D2E/DX2                !
 ! D12   D(5,1,4,7)             61.7309         estimate D2E/DX2                !
 ! D13   D(2,1,5,6)            -59.1788         estimate D2E/DX2                !
 ! D14   D(2,1,5,15)            70.4839         estimate D2E/DX2                !
 ! D15   D(3,1,5,6)             56.7888         estimate D2E/DX2                !
 ! D16   D(3,1,5,15)          -173.5484         estimate D2E/DX2                !
 ! D17   D(4,1,5,6)            178.9933         estimate D2E/DX2                !
 ! D18   D(4,1,5,15)           -51.344          estimate D2E/DX2                !
 ! D19   D(1,2,13,9)             1.8601         estimate D2E/DX2                !
 ! D20   D(18,2,13,9)          135.0898         estimate D2E/DX2                !
 ! D21   D(1,4,11,9)            -8.4748         estimate D2E/DX2                !
 ! D22   D(1,4,11,17)         -141.7719         estimate D2E/DX2                !
 ! D23   D(1,5,15,12)          -19.2757         estimate D2E/DX2                !
 ! D24   D(6,5,15,12)          114.0466         estimate D2E/DX2                !
 ! D25   D(11,9,10,16)         152.8746         estimate D2E/DX2                !
 ! D26   D(12,9,10,16)          34.3851         estimate D2E/DX2                !
 ! D27   D(13,9,10,16)         -91.1348         estimate D2E/DX2                !
 ! D28   D(10,9,11,7)         -178.0547         estimate D2E/DX2                !
 ! D29   D(10,9,11,17)         -43.6521         estimate D2E/DX2                !
 ! D30   D(12,9,11,7)          -61.1044         estimate D2E/DX2                !
 ! D31   D(12,9,11,17)          73.2983         estimate D2E/DX2                !
 ! D32   D(13,9,11,7)           62.6764         estimate D2E/DX2                !
 ! D33   D(13,9,11,17)        -162.9209         estimate D2E/DX2                !
 ! D34   D(10,9,12,15)         178.271          estimate D2E/DX2                !
 ! D35   D(11,9,12,15)          61.8618         estimate D2E/DX2                !
 ! D36   D(13,9,12,15)         -57.5813         estimate D2E/DX2                !
 ! D37   D(10,9,13,14)        -179.5278         estimate D2E/DX2                !
 ! D38   D(11,9,13,14)         -63.2299         estimate D2E/DX2                !
 ! D39   D(12,9,13,14)          58.3046         estimate D2E/DX2                !
 ! D40   D(9,12,15,5)            8.1381         estimate D2E/DX2                !
 --------------------------------------------------------------------------------
 Trust Radius=3.00D-01 FncErr=1.00D-07 GrdErr=1.00D-06 EigMax=2.50D+02 EigMin=1.00D-04
 Number of steps in this run=    101 maximum allowed number of steps=    108.
 GradGradGradGradGradGradGradGradGradGradGradGradGradGradGradGradGradGrad

                          Input orientation:                          
 ---------------------------------------------------------------------
 Center     Atomic      Atomic             Coordinates (Angstroms)
 Number     Number       Type             X           Y           Z
 ---------------------------------------------------------------------
      1         14           0       -1.971990    0.031980    0.021780
      2          8           0       -1.498390   -1.042810   -1.160960
      3          8           0       -3.615290    0.077310    0.015170
      4          8           0       -1.385780    1.536640   -0.161220
      5          8           0       -1.325130   -0.623570    1.410070
      6          1           0       -1.618520   -1.517810    1.627510
      7          1           0       -0.417130    1.656140   -0.272490
      8          1           0       -4.031790    0.897200    0.305330
      9         14           0        2.327030   -0.039960   -0.035640
     10          8           0        3.964420    0.059860   -0.111880
     11          8           0        1.725850    1.493640   -0.372400
     12          8           0        1.919680   -0.486100    1.496750
     13          8           0        1.734180   -1.033730   -1.190200
     14          1           0        0.774850   -1.177590   -1.261990
     15          1           0        0.967240   -0.556210    1.682800
     16          1           0        4.462140   -0.569800    0.421340
     17          1           0        2.193120    2.215780    0.066770
     18          1           0       -1.950120   -0.978780   -2.011630
 ---------------------------------------------------------------------
                    Distance matrix (angstroms):
                    1          2          3          4          5
     1  Si   0.000000
     2  O    1.666837   0.000000
     3  O    1.643938   2.668186   0.000000
     4  O    1.625156   2.768704   2.670482   0.000000
     5  O    1.665990   2.610743   2.771608   2.671917   0.000000
     6  H    2.259460   2.831187   3.021777   3.547307   0.965931
     7  H    2.267616   3.040203   3.578223   0.982316   2.975323
     8  H    2.252062   3.511661   0.964305   2.761869   3.295330
     9  Si   4.300005   4.111677   5.943694   4.035641   3.971014
    10  O    5.937980   5.670868   7.580795   5.550491   5.546418
    11  O    3.995729   4.177455   5.539312   3.119084   4.119254
    12  O    4.193929   4.365381   5.757465   4.215022   3.248877
    13  O    4.042317   3.232715   5.595012   4.171301   4.035965
    14  H    3.264392   2.279472   4.741228   3.639651   3.443364
    15  H    3.426956   3.795139   4.917511   3.649265   2.309519
    16  H    6.474551   6.185089   8.113483   6.242967   5.871369
    17  H    4.703100   5.074739   6.189777   3.649895   4.716402
    18  H    2.270874   0.965298   2.827726   3.173300   3.496401
                    6          7          8          9         10
     6  H    0.000000
     7  H    3.889383   0.000000
     8  H    3.661189   3.738400   0.000000
     9  Si   4.529622   3.234697   6.436546   0.000000
    10  O    6.056710   4.666035   8.050750   1.642201   0.000000
    11  O    4.924762   2.151453   5.827991   1.681295   2.671103
    12  O    3.687870   3.630438   6.225190   1.647178   2.658331
    13  O    4.406180   3.564509   6.261910   1.634643   2.707893
    14  H    3.767384   3.229544   5.464891   2.281973   3.609348
    15  H    2.759327   3.261002   5.385176   2.251350   3.547324
    16  H    6.271204   5.407725   8.620464   2.246832   0.963598
    17  H    5.559155   2.691041   6.367501   2.262031   2.795963
    18  H    3.693758   3.509625   3.636063   4.804158   6.298381
                   11         12         13         14         15
    11  O    0.000000
    12  O    2.729590   0.000000
    13  O    2.656401   2.748456   0.000000
    14  H    2.971740   3.065851   0.972709   0.000000
    15  H    3.000204   0.972971   3.011702   3.015778   0.000000
    16  H    3.517825   2.761814   3.202196   4.098672   3.715615
    17  H    0.965763   3.069164   3.514245   3.910505   3.434860
    18  H    4.723631   5.246600   3.775160   2.833187   4.726348
                   16         17         18
    16  H    0.000000
    17  H    3.610212   0.000000
    18  H    6.870494   5.629511   0.000000
 Stoichiometry    H8O8Si2
 Framework group  C1[X(H8O8Si2)]
 Deg. of freedom    48
 Full point group                 C1      NOp   1
 Largest Abelian subgroup         C1      NOp   1
 Largest concise Abelian subgroup C1      NOp   1
                         Standard orientation:                         
 ---------------------------------------------------------------------
 Center     Atomic      Atomic             Coordinates (Angstroms)
 Number     Number       Type             X           Y           Z
 ---------------------------------------------------------------------
      1         14           0       -2.147142    0.031859    0.020494
      2          8           0       -1.670028   -1.043605   -1.160220
      3          8           0       -3.790492    0.074826    0.011089
      4          8           0       -1.562781    1.537147   -0.163254
      5          8           0       -1.501664   -0.621173    1.410613
      6          1           0       -1.794137   -1.515583    1.628589
      7          1           0       -0.594119    1.657908   -0.273044
      8          1           0       -4.208649    0.894450    0.299612
      9         14           0        2.152067   -0.033985   -0.029668
     10          8           0        3.789437    0.068095   -0.103289
     11          8           0        1.549256    1.498365   -0.369190
     12          8           0        1.742796   -0.478953    1.502551
     13          8           0        1.562570   -1.029925   -1.184075
     14          1           0        0.603568   -1.175242   -1.257301
     15          1           0        0.790148   -0.550215    1.687091
     16          1           0        4.287166   -0.560240    0.431483
     17          1           0        2.014757    2.221677    0.069930
     18          1           0       -2.120428   -0.981197   -2.011716
 ---------------------------------------------------------------------
 Rotational constants (GHZ):           1.9567471           0.4434400           0.4412146
 Standard basis: 6-31+G(d,p) (6D, 7F)
 There are   238 symmetry adapted cartesian basis functions of A   symmetry.
 There are   238 symmetry adapted basis functions of A   symmetry.
   238 basis functions,   424 primitive gaussians,   238 cartesian basis functions
    50 alpha electrons       50 beta electrons
       nuclear repulsion energy       833.1317321259 Hartrees.
 NAtoms=   18 NActive=   18 NUniq=   18 SFac= 1.00D+00 NAtFMM=   60 NAOKFM=F Big=F
 Integral buffers will be    131072 words long.
 Raffenetti 2 integral format.
 Two-electron integral symmetry is turned on.
 Nuclear repulsion after empirical dispersion term =      833.1167068431 Hartrees.
 One-electron integrals computed using PRISM.
 NBasis=   238 RedAO= T EigKep=  2.80D-04  NBF=   238
 NBsUse=   238 1.00D-06 EigRej= -1.00D+00 NBFU=   238
 ExpMin= 3.31D-02 ExpMax= 1.61D+04 ExpMxC= 2.43D+03 IAcc=3 IRadAn=         5 AccDes= 0.00D+00
 Harris functional with IExCor=  402 and IRadAn=       5 diagonalized for initial guess.
 HarFok:  IExCor=  402 AccDes= 0.00D+00 IRadAn=         5 IDoV= 1 UseB2=F ITyADJ=14
 ICtDFT=  3500011 ScaDFX=  1.000000  1.000000  1.000000  1.000000
 FoFCou: FMM=F IPFlag=           0 FMFlag=      100000 FMFlg1=           0
         NFxFlg=           0 DoJE=T BraDBF=F KetDBF=T FulRan=T
         wScrn=  0.000000 ICntrl=       500 IOpCl=  0 I1Cent=   200000004 NGrid=           0
         NMat0=    1 NMatS0=      1 NMatT0=    0 NMatD0=    1 NMtDS0=    0 NMtDT0=    0
 Petite list used in FoFCou.
 Requested convergence on RMS density matrix=1.00D-08 within 128 cycles.
 Requested convergence on MAX density matrix=1.00D-06.
 Requested convergence on             energy=1.00D-06.
 No special actions if energy rises.
 SCF Done:  E(RB3LYP) =  -1186.06866877     A.U. after   12 cycles
            NFock= 12  Conv=0.24D-08     -V/T= 2.0067

 **********************************************************************

            Population analysis using the SCF Density.

 **********************************************************************

 Orbital symmetries:
       Occupied  (A) (A) (A) (A) (A) (A) (A) (A) (A) (A) (A) (A)
                 (A) (A) (A) (A) (A) (A) (A) (A) (A) (A) (A) (A)
                 (A) (A) (A) (A) (A) (A) (A) (A) (A) (A) (A) (A)
                 (A) (A) (A) (A) (A) (A) (A) (A) (A) (A) (A) (A)
                 (A) (A)
       Virtual   (A) (A) (A) (A) (A) (A) (A) (A) (A) (A) (A) (A)
                 (A) (A) (A) (A) (A) (A) (A) (A) (A) (A) (A) (A)
                 (A) (A) (A) (A) (A) (A) (A) (A) (A) (A) (A) (A)
                 (A) (A) (A) (A) (A) (A) (A) (A) (A) (A) (A) (A)
                 (A) (A) (A) (A) (A) (A) (A) (A) (A) (A) (A) (A)
                 (A) (A) (A) (A) (A) (A) (A) (A) (A) (A) (A) (A)
                 (A) (A) (A) (A) (A) (A) (A) (A) (A) (A) (A) (A)
                 (A) (A) (A) (A) (A) (A) (A) (A) (A) (A) (A) (A)
                 (A) (A) (A) (A) (A) (A) (A) (A) (A) (A) (A) (A)
                 (A) (A) (A) (A) (A) (A) (A) (A) (A) (A) (A) (A)
                 (A) (A) (A) (A) (A) (A) (A) (A) (A) (A) (A) (A)
                 (A) (A) (A) (A) (A) (A) (A) (A) (A) (A) (A) (A)
                 (A) (A) (A) (A) (A) (A) (A) (A) (A) (A) (A) (A)
                 (A) (A) (A) (A) (A) (A) (A) (A) (A) (A) (A) (A)
                 (A) (A) (A) (A) (A) (A) (A) (A) (A) (A) (A) (A)
                 (A) (A) (A) (A) (A) (A) (A) (A)
 The electronic state is 1-A.
 Alpha  occ. eigenvalues --  -66.23565 -66.21919 -19.18740 -19.18672 -19.18478
 Alpha  occ. eigenvalues --  -19.17492 -19.17360 -19.16877 -19.16144 -19.15981
 Alpha  occ. eigenvalues --   -5.36913  -5.35247  -3.72908  -3.72899  -3.72858
 Alpha  occ. eigenvalues --   -3.71264  -3.71220  -3.71186  -1.05990  -1.04254
 Alpha  occ. eigenvalues --   -1.02532  -1.02262  -1.01557  -1.00827  -1.00352
 Alpha  occ. eigenvalues --   -0.99883  -0.61206  -0.59639  -0.55255  -0.55056
 Alpha  occ. eigenvalues --   -0.53545  -0.53040  -0.52751  -0.51975  -0.42680
 Alpha  occ. eigenvalues --   -0.41723  -0.40456  -0.40307  -0.39575  -0.38935
 Alpha  occ. eigenvalues --   -0.38066  -0.37326  -0.37134  -0.36260  -0.35328
 Alpha  occ. eigenvalues --   -0.34513  -0.34247  -0.34005  -0.33667  -0.31427
 Alpha virt. eigenvalues --   -0.03867  -0.01128   0.00499   0.00735   0.01877
 Alpha virt. eigenvalues --    0.04059   0.05022   0.05908   0.08894   0.09440
 Alpha virt. eigenvalues --    0.09588   0.10803   0.11951   0.12791   0.13083
 Alpha virt. eigenvalues --    0.14172   0.14566   0.14683   0.14998   0.15176
 Alpha virt. eigenvalues --    0.15847   0.16240   0.16629   0.17304   0.17905
 Alpha virt. eigenvalues --    0.18152   0.19107   0.20222   0.20720   0.20810
 Alpha virt. eigenvalues --    0.21029   0.21280   0.22303   0.23277   0.24267
 Alpha virt. eigenvalues --    0.24283   0.25145   0.26039   0.26075   0.27207
 Alpha virt. eigenvalues --    0.27643   0.27933   0.28870   0.29345   0.29683
 Alpha virt. eigenvalues --    0.31130   0.32503   0.33446   0.35543   0.36758
 Alpha virt. eigenvalues --    0.37452   0.38345   0.40650   0.41091   0.42792
 Alpha virt. eigenvalues --    0.44397   0.45600   0.46515   0.48605   0.49306
 Alpha virt. eigenvalues --    0.50761   0.58400   0.60906   0.62068   0.62663
 Alpha virt. eigenvalues --    0.63088   0.64570   0.72585   0.92619   0.93162
 Alpha virt. eigenvalues --    0.94300   0.95876   0.97087   0.97318   0.98450
 Alpha virt. eigenvalues --    0.99721   0.99932   1.01404   1.01683   1.06460
 Alpha virt. eigenvalues --    1.07085   1.07948   1.15672   1.16161   1.17070
 Alpha virt. eigenvalues --    1.17402   1.18067   1.18582   1.19038   1.19438
 Alpha virt. eigenvalues --    1.20728   1.21092   1.22540   1.23461   1.24178
 Alpha virt. eigenvalues --    1.25752   1.26224   1.26728   1.27579   1.29352
 Alpha virt. eigenvalues --    1.30283   1.31223   1.33024   1.34319   1.35982
 Alpha virt. eigenvalues --    1.37612   1.48493   1.50216   1.53314   1.54070
 Alpha virt. eigenvalues --    1.54822   1.55425   1.57402   1.58499   1.59917
 Alpha virt. eigenvalues --    1.60667   1.62505   1.63030   1.65404   1.67125
 Alpha virt. eigenvalues --    1.68683   1.70733   1.72353   1.74105   1.75925
 Alpha virt. eigenvalues --    1.76569   1.78653   1.80359   1.84870   1.87766
 Alpha virt. eigenvalues --    1.89091   1.91009   1.96865   2.00334   2.02582
 Alpha virt. eigenvalues --    2.03079   2.09340   2.10333   2.33781   2.35581
 Alpha virt. eigenvalues --    2.36870   2.38784   2.39774   2.41109   2.41944
 Alpha virt. eigenvalues --    2.43581   2.45624   2.46711   2.57872   2.59078
 Alpha virt. eigenvalues --    2.59719   2.60539   2.61057   2.61284   2.61529
 Alpha virt. eigenvalues --    2.62826   2.63510   2.65097   2.65485   2.66390
 Alpha virt. eigenvalues --    2.67016   2.68115   2.69625   2.71224   2.76151
 Alpha virt. eigenvalues --    2.77407   2.79179   2.81655   2.83411   2.84425
 Alpha virt. eigenvalues --    2.98944   3.01217   3.40536   3.42261   3.42800
 Alpha virt. eigenvalues --    3.43297   3.43770   3.52905   3.55307   3.57916
 Alpha virt. eigenvalues --    4.13968   4.18532   4.20766   4.22726   4.24567
 Alpha virt. eigenvalues --    4.25716   4.29842   4.35558
          Condensed to atoms (all electrons):
               1          2          3          4          5          6
     1  Si  11.560554   0.041858   0.042867   0.154357   0.027266   0.041193
     2  O    0.041858   8.598027   0.005604   0.011915   0.077013  -0.008730
     3  O    0.042867   0.005604   8.592570  -0.009417  -0.045158  -0.004415
     4  O    0.154357   0.011915  -0.009417   8.444384   0.060960   0.005729
     5  O    0.027266   0.077013  -0.045158   0.060960   8.559528   0.239778
     6  H    0.041193  -0.008730  -0.004415   0.005729   0.239778   0.357540
     7  H    0.024746  -0.005113   0.007180   0.243726  -0.005069  -0.000004
     8  H    0.032548   0.004274   0.236930  -0.001578  -0.003946   0.000053
     9  Si  -0.058333   0.031553  -0.003048   0.017051   0.043440  -0.002380
    10  O   -0.002451   0.001059  -0.000064   0.001124   0.001546  -0.000009
    11  O    0.035604  -0.013709   0.001557  -0.021285  -0.015440   0.000191
    12  O    0.008960  -0.011745   0.000766  -0.007381  -0.010472   0.000365
    13  O    0.027130  -0.013646   0.001360  -0.014024  -0.019825   0.000270
    14  H    0.002660   0.010510   0.000032   0.000354  -0.000778   0.000016
    15  H   -0.002924   0.000741   0.000032   0.000481   0.010897  -0.000940
    16  H    0.000165  -0.000003   0.000000  -0.000002  -0.000010  -0.000000
    17  H   -0.001900   0.000144  -0.000014   0.001376   0.000195  -0.000000
    18  H    0.027700   0.239558  -0.002824  -0.007160   0.005336   0.000063
               7          8          9         10         11         12
     1  Si   0.024746   0.032548  -0.058333  -0.002451   0.035604   0.008960
     2  O   -0.005113   0.004274   0.031553   0.001059  -0.013709  -0.011745
     3  O    0.007180   0.236930  -0.003048  -0.000064   0.001557   0.000766
     4  O    0.243726  -0.001578   0.017051   0.001124  -0.021285  -0.007381
     5  O   -0.005069  -0.003946   0.043440   0.001546  -0.015440  -0.010472
     6  H   -0.000004   0.000053  -0.002380  -0.000009   0.000191   0.000365
     7  H    0.298975   0.000026   0.001900   0.000046   0.013989   0.000720
     8  H    0.000026   0.353968   0.000093   0.000000  -0.000003  -0.000003
     9  Si   0.001900   0.000093  11.564351   0.025037  -0.004248   0.140179
    10  O    0.000046   0.000000   0.025037   8.579814   0.004452   0.010551
    11  O    0.013989  -0.000003  -0.004248   0.004452   8.640350   0.053683
    12  O    0.000720  -0.000003   0.140179   0.010551   0.053683   8.454238
    13  O   -0.000299  -0.000001   0.075781  -0.013423   0.064091   0.018972
    14  H   -0.000001  -0.000000   0.033244   0.005492  -0.003648  -0.007425
    15  H    0.000046  -0.000000   0.031553   0.008589  -0.007227   0.242263
    16  H   -0.000001  -0.000000   0.033058   0.238570   0.003402  -0.002834
    17  H   -0.001352  -0.000000   0.032884   0.000051   0.237982  -0.010485
    18  H    0.000152   0.000060  -0.001329  -0.000003   0.000089   0.000029
              13         14         15         16         17         18
     1  Si   0.027130   0.002660  -0.002924   0.000165  -0.001900   0.027700
     2  O   -0.013646   0.010510   0.000741  -0.000003   0.000144   0.239558
     3  O    0.001360   0.000032   0.000032   0.000000  -0.000014  -0.002824
     4  O   -0.014024   0.000354   0.000481  -0.000002   0.001376  -0.007160
     5  O   -0.019825  -0.000778   0.010897  -0.000010   0.000195   0.005336
     6  H    0.000270   0.000016  -0.000940  -0.000000  -0.000000   0.000063
     7  H   -0.000299  -0.000001   0.000046  -0.000001  -0.001352   0.000152
     8  H   -0.000001  -0.000000  -0.000000  -0.000000  -0.000000   0.000060
     9  Si   0.075781   0.033244   0.031553   0.033058   0.032884  -0.001329
    10  O   -0.013423   0.005492   0.008589   0.238570   0.000051  -0.000003
    11  O    0.064091  -0.003648  -0.007227   0.003402   0.237982   0.000089
    12  O    0.018972  -0.007425   0.242263  -0.002834  -0.010485   0.000029
    13  O    8.498774   0.238169  -0.007981  -0.003773   0.006363   0.000450
    14  H    0.238169   0.321020   0.000121  -0.000023  -0.000047  -0.000561
    15  H   -0.007981   0.000121   0.321451   0.000041   0.000172  -0.000007
    16  H   -0.003773  -0.000023   0.000041   0.360914   0.000085   0.000000
    17  H    0.006363  -0.000047   0.000172   0.000085   0.354325  -0.000000
    18  H    0.000450  -0.000561  -0.000007   0.000000  -0.000000   0.350933
 Mulliken charges:
               1
     1  Si   2.038002
     2  O   -0.969308
     3  O   -0.823956
     4  O   -0.880609
     5  O   -0.925261
     6  H    0.371281
     7  H    0.420334
     8  H    0.377581
     9  Si   2.039213
    10  O   -0.860383
    11  O   -0.989830
    12  O   -0.880381
    13  O   -0.858389
    14  H    0.400867
    15  H    0.402692
    16  H    0.370411
    17  H    0.380221
    18  H    0.387514
 Sum of Mulliken charges =  -0.00000
 Mulliken charges with hydrogens summed into heavy atoms:
               1
     1  Si   2.038002
     2  O   -0.581794
     3  O   -0.446375
     4  O   -0.460275
     5  O   -0.553980
     9  Si   2.039213
    10  O   -0.489972
    11  O   -0.609609
    12  O   -0.477688
    13  O   -0.457522
 Electronic spatial extent (au):  <R**2>=           2558.1459
 Charge=              0.0000 electrons
 Dipole moment (field-independent basis, Debye):
    X=             -2.3490    Y=             -0.0091    Z=              1.0064  Tot=              2.5555
 Quadrupole moment (field-independent basis, Debye-Ang):
   XX=            -66.9999   YY=            -68.3520   ZZ=            -72.7443
   XY=              0.2395   XZ=              4.9510   YZ=             -0.4349
 Traceless Quadrupole moment (field-independent basis, Debye-Ang):
   XX=              2.3655   YY=              1.0134   ZZ=             -3.3789
   XY=              0.2395   XZ=              4.9510   YZ=             -0.4349
 Octapole moment (field-independent basis, Debye-Ang**2):
  XXX=             -4.1405  YYY=              6.2249  ZZZ=            -13.6690  XYY=              2.8272
  XXY=              6.8674  XXZ=             24.1403  XZZ=            -25.0700  YZZ=             -7.4514
  YYZ=             12.1613  XYZ=             -1.4181
 Hexadecapole moment (field-independent basis, Debye-Ang**3):
 XXXX=          -2162.5986 YYYY=           -341.6769 ZZZZ=           -343.6421 XXXY=           -183.2505
 XXXZ=             56.3620 YYYX=             51.0607 YYYZ=             -6.6535 ZZZX=             24.3028
 ZZZY=              3.4871 XXYY=           -399.0683 XXZZ=           -446.7692 YYZZ=           -113.2659
 XXYZ=              3.4648 YYXZ=             -3.3465 ZZXY=             26.6276
 N-N= 8.331167068431D+02 E-N=-4.475765959551D+03  KE= 1.178124062528D+03
 Calling FoFJK, ICntrl=      2127 FMM=F ISym2X=0 I1Cent= 0 IOpClX= 0 NMat=1 NMatS=1 NMatT=0.
 ***** Axes restored to original set *****
 -------------------------------------------------------------------
 Center     Atomic                   Forces (Hartrees/Bohr)
 Number     Number              X              Y              Z
 -------------------------------------------------------------------
      1       14           0.003766042   -0.011006386    0.000873503
      2        8           0.001797061    0.002214810    0.000704394
      3        8          -0.000213655    0.001954535   -0.000114272
      4        8           0.011554397    0.005497607   -0.001629897
      5        8           0.001923690    0.001939443   -0.001408325
      6        1           0.000409738    0.000581429   -0.000294954
      7        1          -0.006290359   -0.000374026    0.001125072
      8        1          -0.000431917   -0.000139599    0.000125580
      9       14          -0.002665862    0.010190427   -0.001943292
     10        8          -0.000307746   -0.001513053    0.000590360
     11        8          -0.002861033   -0.004243767    0.000795862
     12        8          -0.005557237   -0.002008686    0.002120260
     13        8          -0.006216688   -0.002913502   -0.001676841
     14        1           0.002913965    0.000618133    0.000276100
     15        1           0.002187305   -0.000155408    0.000441055
     16        1           0.000432918   -0.000146701   -0.000131815
     17        1          -0.000739267   -0.000375920   -0.000122109
     18        1           0.000298649   -0.000119338    0.000269320
 -------------------------------------------------------------------
 Cartesian Forces:  Max     0.011554397 RMS     0.003374530

 GradGradGradGradGradGradGradGradGradGradGradGradGradGradGradGradGradGrad
 Berny optimization.
 FormGI is forming the generalized inverse of G from B-inverse, IUseBI=4.
 Internal  Forces:  Max     0.009109050 RMS     0.001738647
 Search for a local minimum.
 Step number   1 out of a maximum of  101
 All quantities printed in internal units (Hartrees-Bohrs-Radians)
 Mixed Optimization -- RFO/linear search
 Second derivative matrix not updated -- first step.
 ITU=  0
     Eigenvalues ---    0.00746   0.01752   0.02521   0.02898   0.02968
     Eigenvalues ---    0.03239   0.03272   0.03658   0.03758   0.03781
     Eigenvalues ---    0.04083   0.04334   0.05215   0.05498   0.07085
     Eigenvalues ---    0.07698   0.09069   0.09673   0.10827   0.10974
     Eigenvalues ---    0.11679   0.12240   0.12722   0.13089   0.15190
     Eigenvalues ---    0.15887   0.16000   0.16000   0.16844   0.17182
     Eigenvalues ---    0.20887   0.36095   0.37992   0.38958   0.41412
     Eigenvalues ---    0.42868   0.43581   0.43853   0.44021   0.46817
     Eigenvalues ---    0.48086   0.49475   0.54217   0.54252   0.54349
     Eigenvalues ---    0.54558   0.547071000.000001000.000001000.00000
     Eigenvalues --- 1000.000001000.000001000.000001000.000001000.00000
     Eigenvalues --- 1000.000001000.000001000.000001000.000001000.00000
     Eigenvalues --- 1000.000001000.000001000.000001000.000001000.00000
     Eigenvalues --- 1000.000001000.000001000.000001000.000001000.00000
     Eigenvalues --- 1000.000001000.000001000.000001000.000001000.00000
     Eigenvalues --- 1000.000001000.000001000.000001000.000001000.00000
     Eigenvalues --- 1000.000001000.000001000.000001000.000001000.00000
     Eigenvalues --- 1000.000001000.000001000.000001000.000001000.00000
     Eigenvalues --- 1000.00000
 RFO step:  Lambda=-9.52227374D-04 EMin= 7.45731013D-03
 Linear search not attempted -- first point.
 Iteration  1 RMS(Cart)=  0.01114236 RMS(Int)=  0.00007208
 Iteration  2 RMS(Cart)=  0.00008093 RMS(Int)=  0.00003501
 Iteration  3 RMS(Cart)=  0.00000000 RMS(Int)=  0.00003501
 Iteration  1 RMS(Cart)=  0.00000038 RMS(Int)=  0.00000028
 Variable       Old X    -DE/DX   Delta X   Delta X   Delta X     New X
                                 (Linear)    (Quad)   (Total)
    R1        3.14986  -0.00201   0.00000  -0.00420  -0.00421   3.14566
    R2        3.10659   0.00070   0.00000   0.00159   0.00159   3.10819
    R3        3.07110   0.00523   0.00000   0.01192   0.01193   3.08303
    R4        3.14826  -0.00191   0.00000  -0.00367  -0.00367   3.14459
    R5        8.12583  -0.00604   0.00000   0.00000   0.00000   8.12583
    R6        4.30758  -0.00199   0.00000  -0.02884  -0.02884   4.27873
    R7        1.82415  -0.00039   0.00000  -0.00071  -0.00071   1.82344
    R8        1.82227   0.00011   0.00000   0.00019   0.00019   1.82247
    R9        1.85631  -0.00911   0.00000  -0.01647  -0.01645   1.83986
   R10        1.82535  -0.00073   0.00000  -0.00134  -0.00134   1.82400
   R11        4.36436  -0.00203   0.00000  -0.02931  -0.02933   4.33503
   R12        4.06566  -0.00266   0.00000  -0.05632  -0.05631   4.00935
   R13        3.10331   0.00000   0.00000   0.00001   0.00001   3.10331
   R14        3.17719  -0.00354   0.00000  -0.00880  -0.00880   3.16839
   R15        3.11271   0.00289   0.00000   0.00755   0.00755   3.12026
   R16        3.08903   0.00286   0.00000   0.00728   0.00728   3.09631
   R17        1.82094   0.00025   0.00000   0.00045   0.00045   1.82139
   R18        1.82503  -0.00069   0.00000  -0.00128  -0.00128   1.82375
   R19        1.83865  -0.00417   0.00000  -0.00557  -0.00558   1.83307
   R20        1.83815  -0.00494   0.00000  -0.00719  -0.00719   1.83096
    A1        1.87439   0.00061   0.00000   0.01229   0.01223   1.88662
    A2        1.99831  -0.00071   0.00000  -0.01017  -0.01020   1.98810
    A3        1.80005   0.00082   0.00000   0.00159   0.00143   1.80148
    A4        1.91196  -0.00028   0.00000  -0.00141  -0.00134   1.91062
    A5        1.98485   0.00059   0.00000   0.01077   0.01070   1.99555
    A6        1.89452  -0.00095   0.00000  -0.01251  -0.01253   1.88199
    A7        1.93150   0.00025   0.00000   0.00106   0.00105   1.93254
    A8        2.03709   0.00027   0.00000   0.00075   0.00076   2.03785
    A9        2.01701  -0.00045   0.00000  -0.00174  -0.00174   2.01527
   A10        2.04203   0.00078   0.00000   0.00482   0.00482   2.04685
   A11        2.07268   0.00017   0.00000   0.00252   0.00254   2.07522
   A12        2.01966  -0.00052   0.00000  -0.00264  -0.00264   2.01701
   A13        2.06272   0.00101   0.00000   0.00776   0.00776   2.07048
   A14        1.87748  -0.00020   0.00000  -0.00351  -0.00351   1.87398
   A15        1.86688   0.00212   0.00000   0.01973   0.01973   1.88661
   A16        1.88203  -0.00033   0.00000   0.00382   0.00379   1.88582
   A17        1.94527  -0.00039   0.00000   0.00288   0.00288   1.94815
   A18        1.92300  -0.00010   0.00000  -0.00328  -0.00344   1.91956
   A19        1.85812  -0.00039   0.00000  -0.00655  -0.00666   1.85146
   A20        1.98530  -0.00071   0.00000  -0.01461  -0.01465   1.97064
   A21        2.03711   0.00065   0.00000   0.00402   0.00402   2.04114
   A22        1.99957   0.00182   0.00000   0.00974   0.00975   2.00932
   A23        1.98705  -0.00101   0.00000  -0.00632  -0.00633   1.98072
   A24        2.00200  -0.00045   0.00000  -0.00156  -0.00155   2.00045
   A25        2.02583   0.00036   0.00000   0.00635   0.00634   2.03217
   A26        2.09408   0.00007   0.00000   0.00060   0.00063   2.09471
   A27        2.82774  -0.00113   0.00000  -0.00119  -0.00120   2.82654
   A28        2.97913  -0.00024   0.00000   0.00876   0.00878   2.98791
   A29        2.98353  -0.00003   0.00000   0.01058   0.01060   2.99413
   A30        3.28192   0.00003   0.00000  -0.00815  -0.00818   3.27375
   A31        3.32198   0.00023   0.00000  -0.00088  -0.00088   3.32110
    D1        3.13228  -0.00087   0.00000  -0.00796  -0.00799   3.12430
    D2        0.77736  -0.00072   0.00000  -0.00723  -0.00726   0.77010
    D3        1.00521  -0.00050   0.00000  -0.00850  -0.00849   0.99672
    D4       -1.34972  -0.00035   0.00000  -0.00777  -0.00776  -1.35747
    D5       -1.04953   0.00049   0.00000   0.01072   0.01072  -1.03880
    D6        2.87874   0.00064   0.00000   0.01145   0.01145   2.89019
    D7       -2.64796   0.00069   0.00000   0.00450   0.00455  -2.64341
    D8       -0.46788   0.00004   0.00000  -0.00094  -0.00093  -0.46881
    D9        1.65533  -0.00100   0.00000  -0.01071  -0.01076   1.64456
   D10       -0.92273  -0.00004   0.00000   0.00393   0.00389  -0.91884
   D11       -3.02915  -0.00014   0.00000  -0.00397  -0.00396  -3.03311
   D12        1.07741  -0.00006   0.00000  -0.00816  -0.00812   1.06929
   D13       -1.03287  -0.00058   0.00000  -0.01190  -0.01190  -1.04477
   D14        1.23018  -0.00037   0.00000  -0.01197  -0.01197   1.21821
   D15        0.99115   0.00093   0.00000   0.00879   0.00882   0.99997
   D16       -3.02899   0.00113   0.00000   0.00871   0.00875  -3.02024
   D17        3.12402   0.00026   0.00000   0.00509   0.00507   3.12909
   D18       -0.89612   0.00047   0.00000   0.00501   0.00500  -0.89112
   D19        0.03246  -0.00055   0.00000  -0.00594  -0.00594   0.02652
   D20        2.35776  -0.00032   0.00000  -0.00532  -0.00533   2.35243
   D21       -0.14791   0.00002   0.00000  -0.00048  -0.00048  -0.14839
   D22       -2.47439  -0.00026   0.00000  -0.00369  -0.00367  -2.47806
   D23       -0.33643   0.00053   0.00000   0.01289   0.01289  -0.32354
   D24        1.99049   0.00051   0.00000   0.01265   0.01265   2.00314
   D25        2.66816   0.00020   0.00000   0.00387   0.00387   2.67204
   D26        0.60013  -0.00064   0.00000  -0.00476  -0.00481   0.59533
   D27       -1.59060   0.00076   0.00000   0.00911   0.00915  -1.58145
   D28       -3.10764  -0.00009   0.00000  -0.00045  -0.00046  -3.10810
   D29       -0.76187  -0.00017   0.00000  -0.00131  -0.00132  -0.76319
   D30       -1.06647   0.00067   0.00000   0.01356   0.01354  -1.05293
   D31        1.27930   0.00059   0.00000   0.01269   0.01269   1.29198
   D32        1.09391  -0.00051   0.00000  -0.01048  -0.01046   1.08345
   D33       -2.84351  -0.00059   0.00000  -0.01135  -0.01132  -2.85483
   D34        3.11142   0.00083   0.00000   0.00477   0.00475   3.11617
   D35        1.07969  -0.00146   0.00000  -0.01921  -0.01919   1.06050
   D36       -1.00498  -0.00041   0.00000   0.00132   0.00126  -1.00372
   D37       -3.13335  -0.00123   0.00000  -0.00853  -0.00852   3.14132
   D38       -1.10357   0.00087   0.00000   0.01275   0.01269  -1.09088
   D39        1.01761   0.00003   0.00000  -0.00495  -0.00490   1.01271
   D40        0.14204   0.00061   0.00000  -0.00004  -0.00006   0.14198
         Item               Value     Threshold  Converged?
 Maximum Force            0.007872     0.000450     NO 
 RMS     Force            0.001549     0.000300     NO 
 Maximum Displacement     0.052261     0.001800     NO 
 RMS     Displacement     0.011154     0.001200     NO 
 Predicted change in Energy=-4.809866D-04
 GradGradGradGradGradGradGradGradGradGradGradGradGradGradGradGradGradGrad

                          Input orientation:                          
 ---------------------------------------------------------------------
 Center     Atomic      Atomic             Coordinates (Angstroms)
 Number     Number       Type             X           Y           Z
 ---------------------------------------------------------------------
      1         14           0       -1.971345    0.024230    0.021348
      2          8           0       -1.489919   -1.044312   -1.160757
      3          8           0       -3.614902    0.087282    0.014381
      4          8           0       -1.368621    1.529109   -0.162358
      5          8           0       -1.315734   -0.621483    1.407810
      6          1           0       -1.608117   -1.514035    1.630327
      7          1           0       -0.407429    1.641203   -0.269413
      8          1           0       -4.026880    0.909594    0.304483
      9         14           0        2.327900   -0.031381   -0.037367
     10          8           0        3.965873    0.059155   -0.112734
     11          8           0        1.706407    1.489793   -0.370383
     12          8           0        1.910688   -0.488665    1.493381
     13          8           0        1.724867   -1.029891   -1.188019
     14          1           0        0.768756   -1.172579   -1.253345
     15          1           0        0.961277   -0.559034    1.679395
     16          1           0        4.463180   -0.573892    0.417282
     17          1           0        2.165464    2.216507    0.068416
     18          1           0       -1.937097   -0.979411   -2.013339
 ---------------------------------------------------------------------
                    Distance matrix (angstroms):
                    1          2          3          4          5
     1  Si   0.000000
     2  O    1.664610   0.000000
     3  O    1.644781   2.678995   0.000000
     4  O    1.631467   2.762971   2.675048   0.000000
     5  O    1.664046   2.608958   2.780318   2.663319   0.000000
     6  H    2.255440   2.832801   3.033593   3.540028   0.965220
     7  H    2.268254   3.029566   3.575345   0.973609   2.959365
     8  H    2.255939   3.521484   0.964407   2.769130   3.303308
     9  Si   4.300006   4.106553   5.944213   4.014352   3.963941
    10  O    5.938835   5.664067   7.581894   5.533539   5.538113
    11  O    3.978340   4.154862   5.516468   3.082307   4.093018
    12  O    4.183316   4.349405   5.749027   4.191271   3.230289
    13  O    4.029358   3.214933   5.586320   4.143685   4.018754
    14  H    3.250438   2.264208   4.734009   3.613551   3.424990
    15  H    3.419005   3.782899   4.912374   3.630540   2.294001
    16  H    6.474383   6.176641   8.115103   6.226436   5.863383
    17  H    4.682039   5.050311   6.160289   3.607705   4.686887
    18  H    2.269012   0.964923   2.839808   3.168906   3.495492
                    6          7          8          9         10
     6  H    0.000000
     7  H    3.873782   0.000000
     8  H    3.671819   3.736982   0.000000
     9  Si   4.524566   3.214562   6.433159   0.000000
    10  O    6.048352   4.653300   8.048691   1.642204   0.000000
    11  O    4.900193   2.121656   5.801953   1.676640   2.686688
    12  O    3.667714   3.607970   6.214767   1.651171   2.665239
    13  O    4.391612   3.539105   6.250741   1.638498   2.713738
    14  H    3.752557   3.204513   5.455310   2.282951   3.611055
    15  H    2.741573   3.242260   5.378565   2.256845   3.552673
    16  H    6.262268   5.394537   8.619431   2.249543   0.963836
    17  H    5.531403   2.657985   6.333157   2.256230   2.815751
    18  H    3.697344   3.499825   3.647989   4.795147   6.287764
                   11         12         13         14         15
    11  O    0.000000
    12  O    2.725737   0.000000
    13  O    2.649090   2.741782   0.000000
    14  H    2.957538   3.052254   0.968903   0.000000
    15  H    2.992407   0.970018   3.004471   3.002411   0.000000
    16  H    3.532564   2.771366   3.206757   4.098560   3.722429
    17  H    0.965086   3.068125   3.508826   3.896633   3.427674
    18  H    4.698021   5.229089   3.754155   2.817188   4.713128
                   16         17         18
    16  H    0.000000
    17  H    3.631464   0.000000
    18  H    6.858274   5.601661   0.000000
 Stoichiometry    H8O8Si2
 Framework group  C1[X(H8O8Si2)]
 Deg. of freedom    48
 Full point group                 C1      NOp   1
 Largest Abelian subgroup         C1      NOp   1
 Largest concise Abelian subgroup C1      NOp   1
                         Standard orientation:                         
 ---------------------------------------------------------------------
 Center     Atomic      Atomic             Coordinates (Angstroms)
 Number     Number       Type             X           Y           Z
 ---------------------------------------------------------------------
      1         14           0       -2.146617    0.024359    0.020688
      2          8           0       -1.661889   -1.045919   -1.158494
      3          8           0       -3.790240    0.085286    0.010912
      4          8           0       -1.545522    1.529642   -0.165037
      5          8           0       -1.492447   -0.617745    1.409505
      6          1           0       -1.784049   -1.510226    1.633326
      7          1           0       -0.584301    1.642757   -0.270746
      8          1           0       -4.203745    0.907645    0.298699
      9         14           0        2.152787   -0.025846   -0.030896
     10          8           0        3.790763    0.066644   -0.103770
     11          8           0        1.529890    1.493861   -0.367962
     12          8           0        1.733658   -0.480612    1.500079
     13          8           0        1.552915   -1.027422   -1.180537
     14          1           0        0.597097   -1.171468   -1.247138
     15          1           0        0.784035   -0.551829    1.684682
     16          1           0        4.288014   -0.564706    0.428320
     17          1           0        1.987298    2.222038    0.070134
     18          1           0       -2.107756   -0.983291   -2.011932
 ---------------------------------------------------------------------
 Rotational constants (GHZ):           1.9648220           0.4450714           0.4429387
 Standard basis: 6-31+G(d,p) (6D, 7F)
 There are   238 symmetry adapted cartesian basis functions of A   symmetry.
 There are   238 symmetry adapted basis functions of A   symmetry.
   238 basis functions,   424 primitive gaussians,   238 cartesian basis functions
    50 alpha electrons       50 beta electrons
       nuclear repulsion energy       834.0340532026 Hartrees.
 NAtoms=   18 NActive=   18 NUniq=   18 SFac= 1.00D+00 NAtFMM=   60 NAOKFM=F Big=F
 Integral buffers will be    131072 words long.
 Raffenetti 2 integral format.
 Two-electron integral symmetry is turned on.
 Nuclear repulsion after empirical dispersion term =      834.0189594057 Hartrees.
 One-electron integrals computed using PRISM.
 NBasis=   238 RedAO= T EigKep=  2.79D-04  NBF=   238
 NBsUse=   238 1.00D-06 EigRej= -1.00D+00 NBFU=   238
 Initial guess from the checkpoint file:  "/localscratch/sarashs.37136507.0/Gau-5740.chk"
 B after Tr=     0.000000    0.000000    0.000000
         Rot=    1.000000    0.000338   -0.000049   -0.000126 Ang=   0.04 deg.
 ExpMin= 3.31D-02 ExpMax= 1.61D+04 ExpMxC= 2.43D+03 IAcc=3 IRadAn=         5 AccDes= 0.00D+00
 Harris functional with IExCor=  402 and IRadAn=       5 diagonalized for initial guess.
 HarFok:  IExCor=  402 AccDes= 0.00D+00 IRadAn=         5 IDoV= 1 UseB2=F ITyADJ=14
 ICtDFT=  3500011 ScaDFX=  1.000000  1.000000  1.000000  1.000000
 FoFCou: FMM=F IPFlag=           0 FMFlag=      100000 FMFlg1=           0
         NFxFlg=           0 DoJE=T BraDBF=F KetDBF=T FulRan=T
         wScrn=  0.000000 ICntrl=       500 IOpCl=  0 I1Cent=   200000004 NGrid=           0
         NMat0=    1 NMatS0=      1 NMatT0=    0 NMatD0=    1 NMtDS0=    0 NMtDT0=    0
 Petite list used in FoFCou.
 Requested convergence on RMS density matrix=1.00D-08 within 128 cycles.
 Requested convergence on MAX density matrix=1.00D-06.
 Requested convergence on             energy=1.00D-06.
 No special actions if energy rises.
 SCF Done:  E(RB3LYP) =  -1186.06931428     A.U. after    9 cycles
            NFock=  9  Conv=0.62D-08     -V/T= 2.0067
 Calling FoFJK, ICntrl=      2127 FMM=F ISym2X=0 I1Cent= 0 IOpClX= 0 NMat=1 NMatS=1 NMatT=0.
 ***** Axes restored to original set *****
 -------------------------------------------------------------------
 Center     Atomic                   Forces (Hartrees/Bohr)
 Number     Number              X              Y              Z
 -------------------------------------------------------------------
      1       14           0.006325938   -0.003799099    0.000242234
      2        8           0.000794902    0.001045778    0.000456878
      3        8           0.000883958    0.000872535   -0.000192537
      4        8           0.001078189    0.001580142   -0.000439611
      5        8           0.001030512    0.001094689   -0.000734994
      6        1           0.000385289   -0.000283782    0.000287668
      7        1           0.001416150    0.000300908    0.000158453
      8        1           0.000027481   -0.000158789    0.000096811
      9       14          -0.006434075    0.003539828   -0.000547120
     10        8          -0.001185865   -0.000569245    0.000385489
     11        8          -0.001415436   -0.002286730    0.000335524
     12        8          -0.000786530   -0.000773825    0.000429614
     13        8          -0.000638039   -0.001216559   -0.000764858
     14        1          -0.000573099    0.000274900    0.000146271
     15        1          -0.000424796   -0.000076289    0.000344279
     16        1          -0.000034284   -0.000008973   -0.000165946
     17        1          -0.000639194    0.000662907    0.000117278
     18        1           0.000188898   -0.000198396   -0.000155434
 -------------------------------------------------------------------
 Cartesian Forces:  Max     0.006434075 RMS     0.001588092

 GradGradGradGradGradGradGradGradGradGradGradGradGradGradGradGradGradGrad
 Berny optimization.
 Using GEDIIS/GDIIS optimizer.
 FormGI is forming the generalized inverse of G from B-inverse, IUseBI=4.
 Internal  Forces:  Max     0.005522196 RMS     0.000879793
 Search for a local minimum.
 Step number   2 out of a maximum of  101
 All quantities printed in internal units (Hartrees-Bohrs-Radians)
 Mixed Optimization -- En-DIIS/RFO-DIIS
 Update second derivatives using D2CorX and points    1    2
 DE= -6.46D-04 DEPred=-4.81D-04 R= 1.34D+00
 TightC=F SS=  1.41D+00  RLast= 1.02D-01 DXNew= 5.0454D-01 3.0506D-01
 Trust test= 1.34D+00 RLast= 1.02D-01 DXMaxT set to 3.05D-01
 ITU=  1  0
 Use linear search instead of GDIIS.
     Eigenvalues ---    0.00745   0.01747   0.02497   0.02708   0.02905
     Eigenvalues ---    0.03103   0.03235   0.03415   0.03731   0.03769
     Eigenvalues ---    0.03801   0.04094   0.05132   0.05243   0.06781
     Eigenvalues ---    0.07669   0.09098   0.09360   0.10688   0.10922
     Eigenvalues ---    0.11853   0.12239   0.12516   0.13283   0.15164
     Eigenvalues ---    0.15858   0.16000   0.16041   0.16672   0.17113
     Eigenvalues ---    0.20836   0.35792   0.38114   0.38955   0.40901
     Eigenvalues ---    0.42999   0.43488   0.43700   0.44118   0.47935
     Eigenvalues ---    0.49320   0.50663   0.54233   0.54340   0.54524
     Eigenvalues ---    0.54646   0.549221000.000001000.000001000.00000
     Eigenvalues --- 1000.000001000.000001000.000001000.000001000.00000
     Eigenvalues --- 1000.000001000.000001000.000001000.000001000.00000
     Eigenvalues --- 1000.000001000.000001000.000001000.000001000.00000
     Eigenvalues --- 1000.000001000.000001000.000001000.000001000.00000
     Eigenvalues --- 1000.000001000.000001000.000001000.000001000.00000
     Eigenvalues --- 1000.000001000.000001000.000001000.000001000.00000
     Eigenvalues --- 1000.000001000.000001000.000001000.000001000.00000
     Eigenvalues --- 1000.000001000.000001000.000001000.000001000.00000
     Eigenvalues --- 1000.00000
 RFO step:  Lambda=-1.53781071D-04 EMin= 7.44686021D-03
 Quartic linear search produced a step of  0.54129.
 Iteration  1 RMS(Cart)=  0.01181913 RMS(Int)=  0.00008029
 Iteration  2 RMS(Cart)=  0.00008010 RMS(Int)=  0.00004605
 Iteration  3 RMS(Cart)=  0.00000000 RMS(Int)=  0.00004605
 Iteration  1 RMS(Cart)=  0.00000207 RMS(Int)=  0.00000150
 Iteration  2 RMS(Cart)=  0.00000079 RMS(Int)=  0.00000166
 Variable       Old X    -DE/DX   Delta X   Delta X   Delta X     New X
                                 (Linear)    (Quad)   (Total)
    R1        3.14566  -0.00102  -0.00228  -0.00062  -0.00290   3.14275
    R2        3.10819  -0.00088   0.00086  -0.00373  -0.00287   3.10532
    R3        3.08303   0.00138   0.00646   0.00161   0.00807   3.09110
    R4        3.14459  -0.00071  -0.00199   0.00117  -0.00081   3.14378
    R5        8.12583  -0.00552   0.00000   0.00000  -0.00000   8.12583
    R6        4.27873  -0.00186  -0.01561  -0.00903  -0.02464   4.25410
    R7        1.82344   0.00004  -0.00038   0.00037  -0.00001   1.82343
    R8        1.82247  -0.00012   0.00010  -0.00041  -0.00030   1.82216
    R9        1.83986  -0.00141  -0.00891   0.00644  -0.00244   1.83742
   R10        1.82400   0.00021  -0.00073   0.00111   0.00039   1.82439
   R11        4.33503  -0.00191  -0.01587  -0.01180  -0.02767   4.30736
   R12        4.00935  -0.00280  -0.03048  -0.03652  -0.06697   3.94238
   R13        3.10331  -0.00126   0.00000  -0.00442  -0.00442   3.09890
   R14        3.16839  -0.00158  -0.00476  -0.00057  -0.00532   3.16307
   R15        3.12026   0.00061   0.00408   0.00041   0.00449   3.12475
   R16        3.09631   0.00078   0.00394   0.00169   0.00564   3.10195
   R17        1.82139  -0.00010   0.00024  -0.00046  -0.00022   1.82117
   R18        1.82375   0.00025  -0.00069   0.00119   0.00050   1.82425
   R19        1.83307  -0.00143  -0.00302   0.00216  -0.00086   1.83221
   R20        1.83096  -0.00132  -0.00389   0.00315  -0.00073   1.83023
    A1        1.88662  -0.00009   0.00662   0.00397   0.01053   1.89715
    A2        1.98810   0.00023  -0.00552  -0.00378  -0.00934   1.97876
    A3        1.80148   0.00045   0.00078  -0.00114  -0.00057   1.80091
    A4        1.91062  -0.00069  -0.00073  -0.00049  -0.00111   1.90951
    A5        1.99555   0.00005   0.00579   0.00450   0.01023   2.00578
    A6        1.88199   0.00012  -0.00678  -0.00310  -0.00994   1.87205
    A7        1.93254  -0.00000   0.00057  -0.00011   0.00045   1.93300
    A8        2.03785   0.00034   0.00041   0.00340   0.00384   2.04168
    A9        2.01527  -0.00020  -0.00094  -0.00189  -0.00284   2.01243
   A10        2.04685   0.00004   0.00261  -0.00146   0.00115   2.04800
   A11        2.07522  -0.00027   0.00138  -0.00202  -0.00061   2.07462
   A12        2.01701   0.00026  -0.00143   0.00398   0.00255   2.01957
   A13        2.07048   0.00031   0.00420   0.00438   0.00859   2.07907
   A14        1.87398  -0.00041  -0.00190  -0.00548  -0.00740   1.86658
   A15        1.88661   0.00032   0.01068   0.00415   0.01483   1.90144
   A16        1.88582  -0.00065   0.00205   0.00056   0.00260   1.88843
   A17        1.94815  -0.00061   0.00156   0.00126   0.00283   1.95098
   A18        1.91956   0.00037  -0.00186  -0.00189  -0.00391   1.91565
   A19        1.85146   0.00037  -0.00360  -0.00152  -0.00528   1.84618
   A20        1.97064   0.00025  -0.00793  -0.00234  -0.01033   1.96031
   A21        2.04114   0.00004   0.00218  -0.00117   0.00100   2.04214
   A22        2.00932   0.00051   0.00528   0.00568   0.01096   2.02029
   A23        1.98072  -0.00084  -0.00343  -0.00761  -0.01111   1.96960
   A24        2.00045   0.00054  -0.00084   0.00714   0.00634   2.00679
   A25        2.03217  -0.00005   0.00343  -0.00097   0.00243   2.03459
   A26        2.09471  -0.00045   0.00034  -0.00491  -0.00454   2.09017
   A27        2.82654  -0.00085  -0.00065   0.00016  -0.00050   2.82604
   A28        2.98791  -0.00054   0.00475   0.00629   0.01108   2.99898
   A29        2.99413  -0.00023   0.00574   0.00650   0.01227   3.00640
   A30        3.27375   0.00031  -0.00443  -0.00175  -0.00623   3.26752
   A31        3.32110   0.00022  -0.00048  -0.00152  -0.00199   3.31911
    D1        3.12430  -0.00031  -0.00432  -0.00264  -0.00700   3.11730
    D2        0.77010  -0.00035  -0.00393  -0.00318  -0.00714   0.76296
    D3        0.99672   0.00048  -0.00459  -0.00240  -0.00699   0.98973
    D4       -1.35747   0.00044  -0.00420  -0.00294  -0.00712  -1.36460
    D5       -1.03880  -0.00005   0.00580   0.00385   0.00965  -1.02916
    D6        2.89019  -0.00009   0.00620   0.00331   0.00951   2.89970
    D7       -2.64341   0.00017   0.00246  -0.00017   0.00235  -2.64106
    D8       -0.46881  -0.00004  -0.00051  -0.00256  -0.00305  -0.47186
    D9        1.64456  -0.00036  -0.00583  -0.00385  -0.00975   1.63481
   D10       -0.91884  -0.00048   0.00211  -0.00030   0.00178  -0.91707
   D11       -3.03311  -0.00002  -0.00214  -0.00248  -0.00461  -3.03771
   D12        1.06929   0.00027  -0.00439  -0.00571  -0.01004   1.05924
   D13       -1.04477   0.00025  -0.00644  -0.00498  -0.01143  -1.05620
   D14        1.21821   0.00023  -0.00648  -0.00447  -0.01093   1.20727
   D15        0.99997   0.00045   0.00477   0.00132   0.00612   1.00608
   D16       -3.02024   0.00044   0.00473   0.00183   0.00661  -3.01363
   D17        3.12909  -0.00031   0.00274   0.00140   0.00410   3.13319
   D18       -0.89112  -0.00032   0.00271   0.00191   0.00459  -0.88653
   D19        0.02652  -0.00018  -0.00322   0.00074  -0.00250   0.02402
   D20        2.35243   0.00010  -0.00288   0.00426   0.00135   2.35378
   D21       -0.14839   0.00010  -0.00026   0.00525   0.00500  -0.14339
   D22       -2.47806  -0.00035  -0.00199  -0.00395  -0.00583  -2.48389
   D23       -0.32354   0.00011   0.00698   0.00431   0.01128  -0.31225
   D24        2.00314   0.00037   0.00685   0.00860   0.01543   2.01857
   D25        2.67204   0.00006   0.00210   0.00146   0.00357   2.67561
   D26        0.59533  -0.00020  -0.00260   0.00110  -0.00155   0.59377
   D27       -1.58145   0.00035   0.00495   0.00282   0.00781  -1.57364
   D28       -3.10810   0.00002  -0.00025  -0.00284  -0.00312  -3.11122
   D29       -0.76319  -0.00013  -0.00071  -0.00058  -0.00128  -0.76447
   D30       -1.05293  -0.00036   0.00733  -0.00082   0.00650  -1.04643
   D31        1.29198  -0.00052   0.00687   0.00145   0.00835   1.30033
   D32        1.08345   0.00038  -0.00566  -0.00566  -0.01130   1.07214
   D33       -2.85483   0.00023  -0.00613  -0.00340  -0.00946  -2.86428
   D34        3.11617   0.00019   0.00257  -0.00399  -0.00144   3.11473
   D35        1.06050  -0.00003  -0.01039  -0.00825  -0.01861   1.04189
   D36       -1.00372  -0.00090   0.00068  -0.00356  -0.00292  -1.00664
   D37        3.14132  -0.00043  -0.00461   0.00029  -0.00431   3.13701
   D38       -1.09088  -0.00016   0.00687   0.00503   0.01185  -1.07903
   D39        1.01271   0.00069  -0.00265   0.00033  -0.00227   1.01044
   D40        0.14198   0.00028  -0.00003   0.00124   0.00119   0.14317
         Item               Value     Threshold  Converged?
 Maximum Force            0.001748     0.000450     NO 
 RMS     Force            0.000484     0.000300     NO 
 Maximum Displacement     0.061992     0.001800     NO 
 RMS     Displacement     0.011839     0.001200     NO 
 Predicted change in Energy=-1.705790D-04
 GradGradGradGradGradGradGradGradGradGradGradGradGradGradGradGradGradGrad

                          Input orientation:                          
 ---------------------------------------------------------------------
 Center     Atomic      Atomic             Coordinates (Angstroms)
 Number     Number       Type             X           Y           Z
 ---------------------------------------------------------------------
      1         14           0       -1.971389    0.019547    0.020245
      2          8           0       -1.483747   -1.045226   -1.160550
      3          8           0       -3.612742    0.098474    0.013217
      4          8           0       -1.354148    1.522819   -0.166384
      5          8           0       -1.306161   -0.618798    1.405022
      6          1           0       -1.595956   -1.510119    1.636557
      7          1           0       -0.392861    1.626066   -0.269688
      8          1           0       -4.017699    0.923742    0.304278
      9         14           0        2.327965   -0.026850   -0.038363
     10          8           0        3.963723    0.061825   -0.113126
     11          8           0        1.686359    1.484277   -0.364739
     12          8           0        1.905497   -0.495274    1.490137
     13          8           0        1.719038   -1.028054   -1.187823
     14          1           0        0.762457   -1.168251   -1.245439
     15          1           0        0.956398   -0.564433    1.675834
     16          1           0        4.460967   -0.574473    0.412833
     17          1           0        2.132660    2.219882    0.072988
     18          1           0       -1.925994   -0.982963   -2.015889
 ---------------------------------------------------------------------
                    Distance matrix (angstroms):
                    1          2          3          4          5
     1  Si   0.000000
     2  O    1.663073   0.000000
     3  O    1.643265   2.686707   0.000000
     4  O    1.635739   2.756812   2.676240   0.000000
     5  O    1.663616   2.606825   2.787815   2.656716   0.000000
     6  H    2.256832   2.837697   3.047988   3.536634   0.965424
     7  H    2.270840   3.019845   3.575081   0.972319   2.945875
     8  H    2.255133   3.527529   0.964247   2.770364   3.308096
     9  Si   4.300004   4.101894   5.942252   3.996976   3.954824
    10  O    5.936760   5.656640   7.577606   5.515169   5.526273
    11  O    3.958885   4.132949   5.490334   3.047214   4.063269
    12  O    4.178021   4.337690   5.743238   4.176367   3.215159
    13  O    4.021958   3.202947   5.580272   4.122471   4.005267
    14  H    3.238323   2.251171   4.725587   3.589740   3.406761
    15  H    3.413787   3.772339   4.907217   3.617874   2.279357
    16  H    6.471644   6.167395   8.111554   6.208839   5.852022
    17  H    4.656980   5.026026   6.124833   3.563849   4.653805
    18  H    2.270007   0.964917   2.851648   3.166484   3.495632
                    6          7          8          9         10
     6  H    0.000000
     7  H    3.862236   0.000000
     8  H    3.682864   3.736595   0.000000
     9  Si   4.516924   3.191948   6.425611   0.000000
    10  O    6.036756   4.631542   8.038670   1.639865   0.000000
    11  O    4.872904   2.086215   5.770447   1.673824   2.696862
    12  O    3.648496   3.588804   6.205168   1.653545   2.667791
    13  O    4.381632   3.513893   6.240675   1.641481   2.716876
    14  H    3.739637   3.177271   5.443155   2.282684   3.611554
    15  H    2.722201   3.225499   5.370053   2.260235   3.554796
    16  H    6.249739   5.372880   8.610702   2.247924   0.963722
    17  H    5.500930   2.616925   6.289704   2.257952   2.836307
    18  H    3.705021   3.493815   3.659771   4.787581   6.277010
                   11         12         13         14         15
    11  O    0.000000
    12  O    2.721619   0.000000
    13  O    2.643926   2.736803   0.000000
    14  H    2.943660   3.040200   0.968516   0.000000
    15  H    2.982280   0.969564   2.999515   2.989322   0.000000
    16  H    3.541400   2.774397   3.207180   4.096512   3.725221
    17  H    0.965351   3.071154   3.508534   3.885247   3.421274
    18  H    4.675753   5.216357   3.738180   2.802801   4.702358
                   16         17         18
    16  H    0.000000
    17  H    3.653071   0.000000
    18  H    6.845350   5.576225   0.000000
 Stoichiometry    H8O8Si2
 Framework group  C1[X(H8O8Si2)]
 Deg. of freedom    48
 Full point group                 C1      NOp   1
 Largest Abelian subgroup         C1      NOp   1
 Largest concise Abelian subgroup C1      NOp   1
                         Standard orientation:                         
 ---------------------------------------------------------------------
 Center     Atomic      Atomic             Coordinates (Angstroms)
 Number     Number       Type             X           Y           Z
 ---------------------------------------------------------------------
      1         14           0       -2.146600    0.018579    0.021136
      2          8           0       -1.655558   -1.049991   -1.154810
      3          8           0       -3.788087    0.094429    0.011819
      4          8           0       -1.531920    1.522238   -0.170754
      5          8           0       -1.481866   -0.612996    1.409250
      6          1           0       -1.770289   -1.503923    1.643994
      7          1           0       -0.570701    1.626857   -0.273313
      8          1           0       -4.194924    0.920098    0.299094
      9         14           0        2.152900   -0.020066   -0.032117
     10          8           0        3.788580    0.071349   -0.105267
     11          8           0        1.508891    1.488553   -0.365297
     12          8           0        1.729452   -0.483168    1.497732
     13          8           0        1.547220   -1.026979   -1.178301
     14          1           0        0.590971   -1.169181   -1.236507
     15          1           0        0.780259   -0.553349    1.682562
     16          1           0        4.286365   -0.561920    0.423827
     17          1           0        1.953298    2.226726    0.070024
     18          1           0       -2.096885   -0.991965   -2.010923
 ---------------------------------------------------------------------
 Rotational constants (GHZ):           1.9715944           0.4467434           0.4446727
 Standard basis: 6-31+G(d,p) (6D, 7F)
 There are   238 symmetry adapted cartesian basis functions of A   symmetry.
 There are   238 symmetry adapted basis functions of A   symmetry.
   238 basis functions,   424 primitive gaussians,   238 cartesian basis functions
    50 alpha electrons       50 beta electrons
       nuclear repulsion energy       834.9748364782 Hartrees.
 NAtoms=   18 NActive=   18 NUniq=   18 SFac= 1.00D+00 NAtFMM=   60 NAOKFM=F Big=F
 Integral buffers will be    131072 words long.
 Raffenetti 2 integral format.
 Two-electron integral symmetry is turned on.
 Nuclear repulsion after empirical dispersion term =      834.9596856428 Hartrees.
 One-electron integrals computed using PRISM.
 NBasis=   238 RedAO= T EigKep=  2.77D-04  NBF=   238
 NBsUse=   238 1.00D-06 EigRej= -1.00D+00 NBFU=   238
 Initial guess from the checkpoint file:  "/localscratch/sarashs.37136507.0/Gau-5740.chk"
 B after Tr=     0.000000   -0.000000   -0.000000
         Rot=    1.000000    0.000756   -0.000179   -0.000321 Ang=   0.10 deg.
 ExpMin= 3.31D-02 ExpMax= 1.61D+04 ExpMxC= 2.43D+03 IAcc=3 IRadAn=         5 AccDes= 0.00D+00
 Harris functional with IExCor=  402 and IRadAn=       5 diagonalized for initial guess.
 HarFok:  IExCor=  402 AccDes= 0.00D+00 IRadAn=         5 IDoV= 1 UseB2=F ITyADJ=14
 ICtDFT=  3500011 ScaDFX=  1.000000  1.000000  1.000000  1.000000
 FoFCou: FMM=F IPFlag=           0 FMFlag=      100000 FMFlg1=           0
         NFxFlg=           0 DoJE=T BraDBF=F KetDBF=T FulRan=T
         wScrn=  0.000000 ICntrl=       500 IOpCl=  0 I1Cent=   200000004 NGrid=           0
         NMat0=    1 NMatS0=      1 NMatT0=    0 NMatD0=    1 NMtDS0=    0 NMtDT0=    0
 Petite list used in FoFCou.
 Requested convergence on RMS density matrix=1.00D-08 within 128 cycles.
 Requested convergence on MAX density matrix=1.00D-06.
 Requested convergence on             energy=1.00D-06.
 No special actions if energy rises.
 SCF Done:  E(RB3LYP) =  -1186.06952768     A.U. after    9 cycles
            NFock=  9  Conv=0.50D-08     -V/T= 2.0067
 Calling FoFJK, ICntrl=      2127 FMM=F ISym2X=0 I1Cent= 0 IOpClX= 0 NMat=1 NMatS=1 NMatT=0.
 ***** Axes restored to original set *****
 -------------------------------------------------------------------
 Center     Atomic                   Forces (Hartrees/Bohr)
 Number     Number              X              Y              Z
 -------------------------------------------------------------------
      1       14           0.009887803    0.000831108   -0.000135990
      2        8          -0.000059100   -0.000065703   -0.000047063
      3        8           0.000576523   -0.000070407   -0.000158056
      4        8          -0.002272845   -0.000276134   -0.000015463
      5        8           0.000000582    0.000008681   -0.000154672
      6        1           0.000463098   -0.000146879    0.000317225
      7        1           0.002772947    0.000189790   -0.000027876
      8        1           0.000093047    0.000015578    0.000126065
      9       14          -0.010322098   -0.000776190    0.000416688
     10        8          -0.000545573    0.000191283    0.000022839
     11        8          -0.000364233   -0.000143711    0.000053410
     12        8           0.000957835   -0.000145028   -0.000141909
     13        8           0.001170619   -0.000210540   -0.000245254
     14        1          -0.000977467    0.000257586    0.000106461
     15        1          -0.000796678    0.000103350    0.000017679
     16        1          -0.000044351   -0.000053199   -0.000057309
     17        1          -0.000744482    0.000443513    0.000028040
     18        1           0.000204373   -0.000153098   -0.000104816
 -------------------------------------------------------------------
 Cartesian Forces:  Max     0.010322098 RMS     0.002041083

 GradGradGradGradGradGradGradGradGradGradGradGradGradGradGradGradGradGrad
 Berny optimization.
 Using GEDIIS/GDIIS optimizer.
 FormGI is forming the generalized inverse of G from B-inverse, IUseBI=4.
 Internal  Forces:  Max     0.006206494 RMS     0.000888088
 Search for a local minimum.
 Step number   3 out of a maximum of  101
 All quantities printed in internal units (Hartrees-Bohrs-Radians)
 Mixed Optimization -- En-DIIS/RFO-DIIS
 Swapping is turned off.
 Update second derivatives using D2CorX and points    1    2    3
 DE= -2.13D-04 DEPred=-1.71D-04 R= 1.25D+00
 TightC=F SS=  1.41D+00  RLast= 9.99D-02 DXNew= 5.1305D-01 2.9973D-01
 Trust test= 1.25D+00 RLast= 9.99D-02 DXMaxT set to 3.05D-01
 ITU=  1  1  0
     Eigenvalues ---    0.00739   0.01705   0.01877   0.02523   0.02895
     Eigenvalues ---    0.03072   0.03227   0.03407   0.03740   0.03774
     Eigenvalues ---    0.03846   0.04069   0.05049   0.05195   0.06700
     Eigenvalues ---    0.07729   0.09116   0.09553   0.10595   0.10935
     Eigenvalues ---    0.12008   0.12253   0.12460   0.13541   0.15157
     Eigenvalues ---    0.15832   0.16001   0.16083   0.16498   0.17096
     Eigenvalues ---    0.21022   0.36976   0.38605   0.38948   0.40978
     Eigenvalues ---    0.42947   0.43374   0.43735   0.44044   0.48008
     Eigenvalues ---    0.49427   0.54068   0.54247   0.54346   0.54559
     Eigenvalues ---    0.54696   0.587491000.000001000.000001000.00000
     Eigenvalues --- 1000.000001000.000001000.000001000.000001000.00000
     Eigenvalues --- 1000.000001000.000001000.000001000.000001000.00000
     Eigenvalues --- 1000.000001000.000001000.000001000.000001000.00000
     Eigenvalues --- 1000.000001000.000001000.000001000.000001000.00000
     Eigenvalues --- 1000.000001000.000001000.000001000.000001000.00000
     Eigenvalues --- 1000.000001000.000001000.000001000.000001000.00000
     Eigenvalues --- 1000.000001000.000001000.000001000.000001000.00000
     Eigenvalues --- 1000.000001000.000001000.000001000.000001000.00000
     Eigenvalues --- 1000.00000
 En-DIIS/RFO-DIIS/Sim-DIIS IScMMF=       -3 using points:     3    2
 RFO step:  Lambda=-9.19376475D-05.
 DidBck=F Rises=F RFO-DIIS coefs:    1.58259   -0.58259
 Iteration  1 RMS(Cart)=  0.00832246 RMS(Int)=  0.00004556
 Iteration  2 RMS(Cart)=  0.00004337 RMS(Int)=  0.00002937
 Iteration  3 RMS(Cart)=  0.00000000 RMS(Int)=  0.00002937
 Iteration  1 RMS(Cart)=  0.00000455 RMS(Int)=  0.00000329
 Iteration  2 RMS(Cart)=  0.00000173 RMS(Int)=  0.00000366
 Iteration  3 RMS(Cart)=  0.00000066 RMS(Int)=  0.00000396
 Variable       Old X    -DE/DX   Delta X   Delta X   Delta X     New X
                                 (Linear)    (Quad)   (Total)
    R1        3.14275  -0.00019  -0.00169   0.00154  -0.00015   3.14260
    R2        3.10532  -0.00067  -0.00167  -0.00053  -0.00220   3.10312
    R3        3.09110  -0.00089   0.00470  -0.00268   0.00204   3.09314
    R4        3.14378  -0.00021  -0.00047   0.00133   0.00087   3.14465
    R5        8.12583  -0.00621  -0.00000   0.00000   0.00000   8.12583
    R6        4.25410  -0.00150  -0.01435   0.00719  -0.00714   4.24695
    R7        1.82343  -0.00001  -0.00001  -0.00013  -0.00014   1.82329
    R8        1.82216   0.00001  -0.00018   0.00018   0.00001   1.82217
    R9        1.83742   0.00037  -0.00142   0.00357   0.00218   1.83960
   R10        1.82439   0.00007   0.00022  -0.00020   0.00003   1.82442
   R11        4.30736  -0.00156  -0.01612   0.00491  -0.01119   4.29617
   R12        3.94238  -0.00239  -0.03902  -0.00689  -0.04587   3.89650
   R13        3.09890  -0.00058  -0.00257   0.00015  -0.00242   3.09647
   R14        3.16307  -0.00014  -0.00310   0.00305  -0.00003   3.16303
   R15        3.12475  -0.00055   0.00261  -0.00156   0.00106   3.12580
   R16        3.10195  -0.00052   0.00328  -0.00124   0.00206   3.10401
   R17        1.82117  -0.00002  -0.00013   0.00012  -0.00001   1.82116
   R18        1.82425   0.00001   0.00029  -0.00039  -0.00010   1.82415
   R19        1.83221  -0.00075  -0.00050   0.00119   0.00071   1.83292
   R20        1.83023  -0.00057  -0.00043   0.00150   0.00110   1.83133
    A1        1.89715  -0.00051   0.00614  -0.00136   0.00476   1.90191
    A2        1.97876   0.00081  -0.00544   0.00159  -0.00387   1.97489
    A3        1.80091   0.00022  -0.00033  -0.00164  -0.00208   1.79883
    A4        1.90951  -0.00076  -0.00065   0.00098   0.00039   1.90990
    A5        2.00578  -0.00039   0.00596  -0.00141   0.00453   2.01031
    A6        1.87205   0.00073  -0.00579   0.00178  -0.00407   1.86798
    A7        1.93300  -0.00024   0.00026  -0.00067  -0.00041   1.93259
    A8        2.04168   0.00027   0.00224   0.00117   0.00342   2.04511
[...]

                          Input orientation:                          
 ---------------------------------------------------------------------
 Center     Atomic      Atomic             Coordinates (Angstroms)
 Number     Number       Type             X           Y           Z
 ---------------------------------------------------------------------
      1         14           0       -1.970316    0.036747    0.002034
      2          8           0       -1.511799   -1.063930   -1.157686
      3          8           0       -3.609503    0.136978    0.013005
      4          8           0       -1.330815    1.524354   -0.223813
      5          8           0       -1.289496   -0.580927    1.390998
      6          1           0       -1.559934   -1.475800    1.632131
      7          1           0       -0.359645    1.597935   -0.299624
      8          1           0       -3.999112    0.963273    0.321688
      9         14           0        2.328817   -0.043763   -0.029811
     10          8           0        3.958674    0.093963   -0.117690
     11          8           0        1.630784    1.451867   -0.326123
     12          8           0        1.926665   -0.542448    1.494261
     13          8           0        1.740352   -1.038904   -1.195706
     14          1           0        0.782393   -1.175696   -1.256388
     15          1           0        0.976088   -0.578424    1.687403
     16          1           0        4.482619   -0.538547    0.386349
     17          1           0        2.013569    2.192152    0.161386
     18          1           0       -1.954970   -1.016642   -2.013302
 ---------------------------------------------------------------------
                    Distance matrix (angstroms):
                    1          2          3          4          5
     1  Si   0.000000
     2  O    1.663334   0.000000
     3  O    1.642285   2.685714   0.000000
     4  O    1.634914   2.757552   2.678304   0.000000
     5  O    1.665611   2.603556   2.792254   2.653588   0.000000
     6  H    2.261289   2.820467   3.069748   3.535243   0.965442
     7  H    2.263309   3.024774   3.576829   0.976899   2.910372
     8  H    2.253140   3.533387   0.964284   2.780681   3.296968
     9  Si   4.300005   4.130759   5.941224   3.986168   3.924211
    10  O    5.930475   5.687563   7.569427   5.480508   5.502264
    11  O    3.883063   4.110543   5.413367   2.964252   3.950797
    12  O    4.212918   4.373535   5.771040   4.223106   3.218049
    13  O    4.044832   3.252469   5.609334   4.116666   4.010083
    14  H    3.260530   2.299032   4.756387   3.580801   3.413961
    15  H    3.449667   3.810489   4.933868   3.660085   2.284893
    16  H    6.489918   6.212336   8.128847   6.198700   5.859047
    17  H    4.532384   4.976971   5.988714   3.432089   4.484658
    18  H    2.274080   0.964735   2.859062   3.169937   3.495992
                    6          7          8          9         10
     6  H    0.000000
     7  H    3.823639   0.000000
     8  H    3.689977   3.746270   0.000000
     9  Si   4.464881   3.161614   6.417192   0.000000
    10  O    5.998421   4.576343   8.017175   1.638025   0.000000
    11  O    4.752544   1.995958   5.688067   1.676890   2.703039
    12  O    3.611998   3.609222   6.225509   1.653241   2.670667
    13  O    4.368000   3.487962   6.265193   1.641922   2.714122
    14  H    3.730965   3.148441   5.470677   2.275344   3.605194
    15  H    2.690678   3.235583   5.384666   2.250457   3.550532
    16  H    6.240422   5.336913   8.613908   2.248748   0.963661
    17  H    5.327934   2.489532   6.139069   2.266110   2.874668
    18  H    3.695410   3.509667   3.681135   4.819912   6.308563
                   11         12         13         14         15
    11  O    0.000000
    12  O    2.716365   0.000000
    13  O    2.640478   2.741734   0.000000
    14  H    2.913632   3.045724   0.969577   0.000000
    15  H    2.933427   0.970667   3.018022   3.010009   0.000000
    16  H    3.549976   2.785747   3.205197   4.098319   3.740333
    17  H    0.965511   3.043377   3.515120   3.855941   3.328842
    18  H    4.668805   5.253089   3.784753   2.844533   4.741133
                   16         17         18
    16  H    0.000000
    17  H    3.688297   0.000000
    18  H    6.886904   5.547515   0.000000
 Stoichiometry    H8O8Si2
 Framework group  C1[X(H8O8Si2)]
 Deg. of freedom    48
 Full point group                 C1      NOp   1
 Largest Abelian subgroup         C1      NOp   1
 Largest concise Abelian subgroup C1      NOp   1
                         Standard orientation:                         
 ---------------------------------------------------------------------
 Center     Atomic      Atomic             Coordinates (Angstroms)
 Number     Number       Type             X           Y           Z
 ---------------------------------------------------------------------
      1         14           0       -2.145715    0.021551    0.017069
      2          8           0       -1.682241   -1.197458   -1.015349
      3          8           0       -3.785700    0.107986    0.025965
      4          8           0       -1.521187    1.480274   -0.376677
      5          8           0       -1.452804   -0.431465    1.462374
      6          1           0       -1.713759   -1.296226    1.803211
      7          1           0       -0.551105    1.553470   -0.465640
      8          1           0       -4.181599    0.960085    0.242841
      9         14           0        2.153792   -0.024261   -0.029633
     10          8           0        3.781871    0.117115   -0.141417
     11          8           0        1.440461    1.422838   -0.486824
     12          8           0        1.763297   -0.353482    1.542732
     13          8           0        1.569326   -1.148276   -1.074095
     14          1           0        0.612420   -1.299384   -1.113805
     15          1           0        0.813991   -0.376052    1.743989
     16          1           0        4.314007   -0.450651    0.427016
     17          1           0        1.818536    2.216179   -0.086972
     18          1           0       -2.129744   -1.249721   -1.868416
 ---------------------------------------------------------------------
 Rotational constants (GHZ):           1.9764292           0.4477358           0.4456496

 **********************************************************************

            Population analysis using the SCF Density.

 **********************************************************************

 Orbital symmetries:
       Occupied  (A) (A) (A) (A) (A) (A) (A) (A) (A) (A) (A) (A)
                 (A) (A) (A) (A) (A) (A) (A) (A) (A) (A) (A) (A)
                 (A) (A) (A) (A) (A) (A) (A) (A) (A) (A) (A) (A)
                 (A) (A) (A) (A) (A) (A) (A) (A) (A) (A) (A) (A)
                 (A) (A)
       Virtual   (A) (A) (A) (A) (A) (A) (A) (A) (A) (A) (A) (A)
                 (A) (A) (A) (A) (A) (A) (A) (A) (A) (A) (A) (A)
                 (A) (A) (A) (A) (A) (A) (A) (A) (A) (A) (A) (A)
                 (A) (A) (A) (A) (A) (A) (A) (A) (A) (A) (A) (A)
                 (A) (A) (A) (A) (A) (A) (A) (A) (A) (A) (A) (A)
                 (A) (A) (A) (A) (A) (A) (A) (A) (A) (A) (A) (A)
                 (A) (A) (A) (A) (A) (A) (A) (A) (A) (A) (A) (A)
                 (A) (A) (A) (A) (A) (A) (A) (A) (A) (A) (A) (A)
                 (A) (A) (A) (A) (A) (A) (A) (A) (A) (A) (A) (A)
                 (A) (A) (A) (A) (A) (A) (A) (A) (A) (A) (A) (A)
                 (A) (A) (A) (A) (A) (A) (A) (A) (A) (A) (A) (A)
                 (A) (A) (A) (A) (A) (A) (A) (A) (A) (A) (A) (A)
                 (A) (A) (A) (A) (A) (A) (A) (A) (A) (A) (A) (A)
                 (A) (A) (A) (A) (A) (A) (A) (A) (A) (A) (A) (A)
                 (A) (A) (A) (A) (A) (A) (A) (A) (A) (A) (A) (A)
                 (A) (A) (A) (A) (A) (A) (A) (A)
 The electronic state is 1-A.
 Alpha  occ. eigenvalues --  -66.23409 -66.22158 -19.18632 -19.18601 -19.18562
 Alpha  occ. eigenvalues --  -19.17879 -19.17292 -19.16618 -19.15952 -19.15779
 Alpha  occ. eigenvalues --   -5.36738  -5.35462  -3.72731  -3.72725  -3.72688
 Alpha  occ. eigenvalues --   -3.71481  -3.71440  -3.71398  -1.05853  -1.04508
 Alpha  occ. eigenvalues --   -1.02595  -1.02197  -1.01544  -1.00791  -1.00321
 Alpha  occ. eigenvalues --   -0.99697  -0.61094  -0.59848  -0.55294  -0.54762
 Alpha  occ. eigenvalues --   -0.53742  -0.52979  -0.52829  -0.51947  -0.42543
 Alpha  occ. eigenvalues --   -0.41846  -0.40548  -0.40389  -0.39349  -0.38683
 Alpha  occ. eigenvalues --   -0.38356  -0.37313  -0.37100  -0.35968  -0.35373
 Alpha  occ. eigenvalues --   -0.34615  -0.34329  -0.33859  -0.33413  -0.31333
 Alpha virt. eigenvalues --   -0.03774  -0.01219   0.00546   0.00764   0.01769
 Alpha virt. eigenvalues --    0.04213   0.05010   0.06023   0.09088   0.09432
 Alpha virt. eigenvalues --    0.10307   0.10964   0.11956   0.12821   0.12964
 Alpha virt. eigenvalues --    0.14311   0.14565   0.14840   0.15072   0.15347
 Alpha virt. eigenvalues --    0.15832   0.16247   0.16536   0.17155   0.17599
 Alpha virt. eigenvalues --    0.18284   0.19277   0.20339   0.20840   0.20999
 Alpha virt. eigenvalues --    0.21126   0.21326   0.22349   0.23558   0.24281
 Alpha virt. eigenvalues --    0.24455   0.25059   0.26136   0.26461   0.27421
 Alpha virt. eigenvalues --    0.27787   0.27850   0.28799   0.29347   0.30091
 Alpha virt. eigenvalues --    0.31105   0.32701   0.33881   0.35322   0.36700
 Alpha virt. eigenvalues --    0.37700   0.38412   0.40841   0.41187   0.42781
 Alpha virt. eigenvalues --    0.44557   0.45740   0.46434   0.48859   0.49513
 Alpha virt. eigenvalues --    0.51118   0.58407   0.61099   0.62285   0.62682
 Alpha virt. eigenvalues --    0.63100   0.64454   0.72834   0.92755   0.93047
 Alpha virt. eigenvalues --    0.94239   0.95741   0.96945   0.97654   0.98645
 Alpha virt. eigenvalues --    0.99582   0.99797   1.01541   1.01836   1.06906
 Alpha virt. eigenvalues --    1.07632   1.10059   1.15743   1.16398   1.17075
 Alpha virt. eigenvalues --    1.17325   1.18243   1.18944   1.19104   1.19718
 Alpha virt. eigenvalues --    1.20857   1.21177   1.22625   1.23809   1.24660
 Alpha virt. eigenvalues --    1.26216   1.26365   1.26899   1.27290   1.28994
 Alpha virt. eigenvalues --    1.30390   1.31337   1.33348   1.34630   1.36287
 Alpha virt. eigenvalues --    1.37402   1.48697   1.50366   1.53577   1.54472
 Alpha virt. eigenvalues --    1.55086   1.56002   1.57153   1.58625   1.60018
 Alpha virt. eigenvalues --    1.61115   1.62282   1.62562   1.65661   1.67215
 Alpha virt. eigenvalues --    1.68804   1.71469   1.72318   1.74290   1.75973
 Alpha virt. eigenvalues --    1.76900   1.78480   1.80967   1.85114   1.87871
 Alpha virt. eigenvalues --    1.90479   1.91125   1.97788   1.99387   2.02721
 Alpha virt. eigenvalues --    2.03441   2.09929   2.10700   2.33922   2.36163
 Alpha virt. eigenvalues --    2.37223   2.38920   2.39740   2.42156   2.43168
 Alpha virt. eigenvalues --    2.44177   2.45853   2.46765   2.58021   2.59411
 Alpha virt. eigenvalues --    2.59968   2.60325   2.60687   2.61646   2.62082
 Alpha virt. eigenvalues --    2.63510   2.64116   2.65711   2.65909   2.66599
 Alpha virt. eigenvalues --    2.67346   2.68858   2.69583   2.71229   2.76553
 Alpha virt. eigenvalues --    2.77799   2.79649   2.81423   2.83142   2.84493
 Alpha virt. eigenvalues --    2.99322   3.01293   3.40503   3.42277   3.42641
 Alpha virt. eigenvalues --    3.43329   3.44038   3.54451   3.55916   3.59885
 Alpha virt. eigenvalues --    4.14341   4.18444   4.22397   4.23144   4.25110
 Alpha virt. eigenvalues --    4.26738   4.30791   4.35854
          Condensed to atoms (all electrons):
               1          2          3          4          5          6
     1  Si  11.567352   0.038694   0.047844   0.162176   0.010222   0.040129
     2  O    0.038694   8.599029  -0.008748   0.019531   0.086987  -0.008848
     3  O    0.047844  -0.008748   8.592066  -0.011388  -0.054724  -0.003746
     4  O    0.162176   0.019531  -0.011388   8.454864   0.065044   0.005643
     5  O    0.010222   0.086987  -0.054724   0.065044   8.582989   0.239439
     6  H    0.040129  -0.008848  -0.003746   0.005643   0.239439   0.359352
     7  H    0.023935  -0.005240   0.007110   0.242904  -0.004253  -0.000014
     8  H    0.033391   0.004678   0.236942  -0.001998  -0.004123   0.000053
     9  Si  -0.063775   0.034719  -0.003550   0.017123   0.047884  -0.002962
    10  O   -0.003243   0.001305  -0.000082   0.001437   0.001869  -0.000021
    11  O    0.044257  -0.016275   0.002092  -0.031948  -0.017882   0.000271
    12  O    0.009168  -0.011441   0.000832  -0.008138  -0.012912   0.000649
    13  O    0.030056  -0.016799   0.001607  -0.013840  -0.020894   0.000403
    14  H    0.001944   0.011008   0.000004   0.000481  -0.000816   0.000014
    15  H   -0.003362   0.000819   0.000026   0.000687   0.011058  -0.001135
    16  H    0.000160  -0.000004   0.000000  -0.000003  -0.000010  -0.000000
    17  H   -0.002347   0.000193  -0.000025   0.001939   0.000226  -0.000001
    18  H    0.026101   0.241469  -0.002790  -0.007196   0.005493   0.000063
               7          8          9         10         11         12
     1  Si   0.023935   0.033391  -0.063775  -0.003243   0.044257   0.009168
     2  O   -0.005240   0.004678   0.034719   0.001305  -0.016275  -0.011441
     3  O    0.007110   0.236942  -0.003550  -0.000082   0.002092   0.000832
     4  O    0.242904  -0.001998   0.017123   0.001437  -0.031948  -0.008138
     5  O   -0.004253  -0.004123   0.047884   0.001869  -0.017882  -0.012912
     6  H   -0.000014   0.000053  -0.002962  -0.000021   0.000271   0.000649
     7  H    0.292854   0.000025   0.002999   0.000121   0.013071   0.000551
     8  H    0.000025   0.352649   0.000082   0.000000  -0.000002  -0.000003
     9  Si   0.002999   0.000082  11.568035   0.025790  -0.024758   0.144445
    10  O    0.000121   0.000000   0.025790   8.580349   0.002068  -0.003079
    11  O    0.013071  -0.000002  -0.024758   0.002068   8.667125   0.066862
    12  O    0.000551  -0.000003   0.144445  -0.003079   0.066862   8.450024
    13  O   -0.000192  -0.000001   0.088240  -0.021082   0.065212   0.028971
    14  H    0.000003  -0.000000   0.033908   0.005890  -0.004081  -0.007965
    15  H    0.000038  -0.000000   0.031657   0.008753  -0.007434   0.243232
    16  H   -0.000001  -0.000000   0.034033   0.239105   0.003021  -0.002925
    17  H   -0.001983  -0.000000   0.031354   0.000652   0.238767  -0.011596
    18  H    0.000148   0.000050  -0.001289  -0.000003   0.000096   0.000021
              13         14         15         16         17         18
     1  Si   0.030056   0.001944  -0.003362   0.000160  -0.002347   0.026101
     2  O   -0.016799   0.011008   0.000819  -0.000004   0.000193   0.241469
     3  O    0.001607   0.000004   0.000026   0.000000  -0.000025  -0.002790
     4  O   -0.013840   0.000481   0.000687  -0.000003   0.001939  -0.007196
     5  O   -0.020894  -0.000816   0.011058  -0.000010   0.000226   0.005493
     6  H    0.000403   0.000014  -0.001135  -0.000000  -0.000001   0.000063
     7  H   -0.000192   0.000003   0.000038  -0.000001  -0.001983   0.000148
     8  H   -0.000001  -0.000000  -0.000000  -0.000000  -0.000000   0.000050
     9  Si   0.088240   0.033908   0.031657   0.034033   0.031354  -0.001289
    10  O   -0.021082   0.005890   0.008753   0.239105   0.000652  -0.000003
    11  O    0.065212  -0.004081  -0.007434   0.003021   0.238767   0.000096
    12  O    0.028971  -0.007965   0.243232  -0.002925  -0.011596   0.000021
    13  O    8.484519   0.239895  -0.008536  -0.003621   0.006666   0.000430
    14  H    0.239895   0.322339   0.000117  -0.000019  -0.000044  -0.000584
    15  H   -0.008536   0.000117   0.319592   0.000029   0.000210  -0.000007
    16  H   -0.003621  -0.000019   0.000029   0.357422   0.000078   0.000000
    17  H    0.006666  -0.000044   0.000210   0.000078   0.353030  -0.000000
    18  H    0.000430  -0.000584  -0.000007   0.000000  -0.000000   0.350565
 Mulliken charges:
               1
     1  Si   2.037299
     2  O   -0.971076
     3  O   -0.803469
     4  O   -0.897318
     5  O   -0.935593
     6  H    0.370711
     7  H    0.427924
     8  H    0.378259
     9  Si   2.036066
    10  O   -0.839828
    11  O   -1.000462
    12  O   -0.886696
    13  O   -0.861035
    14  H    0.397908
    15  H    0.404257
    16  H    0.372737
    17  H    0.382880
    18  H    0.387435
 Sum of Mulliken charges =  -0.00000
 Mulliken charges with hydrogens summed into heavy atoms:
               1
     1  Si   2.037299
     2  O   -0.583641
     3  O   -0.425210
     4  O   -0.469393
     5  O   -0.564883
     9  Si   2.036066
    10  O   -0.467091
    11  O   -0.617582
    12  O   -0.482440
    13  O   -0.463126
 Electronic spatial extent (au):  <R**2>=           2533.3097
 Charge=              0.0000 electrons
 Dipole moment (field-independent basis, Debye):
    X=             -2.1397    Y=              0.1215    Z=              1.1638  Tot=              2.4387
 Quadrupole moment (field-independent basis, Debye-Ang):
   XX=            -66.2660   YY=            -68.6036   ZZ=            -72.6016
   XY=              0.8817   XZ=              4.4269   YZ=             -0.1670
 Traceless Quadrupole moment (field-independent basis, Debye-Ang):
   XX=              2.8911   YY=              0.5535   ZZ=             -3.4446
   XY=              0.8817   XZ=              4.4269   YZ=             -0.1670
 Octapole moment (field-independent basis, Debye-Ang**2):
  XXX=              1.6674  YYY=             10.7624  ZZZ=             -9.6932  XYY=              0.4626
  XXY=              7.7553  XXZ=             22.4201  XZZ=            -25.0272  YZZ=            -11.0984
  YYZ=              9.7270  XYZ=             -4.5926
 Hexadecapole moment (field-independent basis, Debye-Ang**3):
 XXXX=          -2118.3531 YYYY=           -341.6689 ZZZZ=           -342.6926 XXXY=           -183.1676
 XXXZ=             70.8072 YYYX=             46.1901 YYYZ=             -3.0633 ZZZX=             13.2500
 ZZZY=              1.7339 XXYY=           -399.9409 XXZZ=           -445.4759 YYZZ=           -110.0843
 XXYZ=              5.4785 YYXZ=             -1.9420 ZZXY=             31.5676
 N-N= 8.356173498708D+02 E-N=-4.480794870594D+03  KE= 1.178133884479D+03
 1\1\GINC-GRA1038\FOpt\RB3LYP\6-31+G(d,p)\H8O8Si2\SARASHS\11-Aug-2020\0
 \\#n B3LYP/6-31+G(d,p) EmpiricalDispersion=GD3 Opt=modredundant\\Title
 \\0,1\Si,-1.9703164123,0.0367472095,0.0020339156\O,-1.5117989265,-1.06
 39299683,-1.1576863083\O,-3.6095028121,0.1369783912,0.013004722\O,-1.3
 308151826,1.5243543663,-0.2238126434\O,-1.2894964931,-0.580927166,1.39
 09979432\H,-1.5599338961,-1.4757998228,1.6321306248\H,-0.3596453486,1.
 597935452,-0.2996237948\H,-3.9991118043,0.9632734718,0.3216876126\Si,2
 .3288166469,-0.0437633594,-0.0298107554\O,3.9586735923,0.0939628924,-0
 .1176902316\O,1.6307840505,1.4518672368,-0.3261230777\O,1.926665371,-0
 .5424476391,1.4942612554\O,1.7403518,-1.0389042581,-1.1957063449\H,0.7
 823928704,-1.1756962752,-1.2563883893\H,0.9760881493,-0.5784240678,1.6
 874025381\H,4.4826193292,-0.5385469047,0.3863488093\H,2.0135687278,2.1
 921521954,0.1613856602\H,-1.9549696618,-1.0166417539,-2.0133015359\\Ve
 rsion=ES64L-G16RevB.01\State=1-A\HF=-1186.0697453\RMSD=2.699e-09\RMSF=
 2.146e-03\Dipole=-0.843901,0.0043617,0.4564836\Quadrupole=2.123892,0.3
 969489,-2.5208409,0.2675526,3.3670108,0.1779988\PG=C01 [X(H8O8Si2)]\\@


 HONESTY IN A LAWYER IS LIKE A HEN'S HIND LEGS.
  -- MAGNUS OLESON, LAKE WOBEGON PATRIARCH, C.1875
 Job cpu time:       0 days  0 hours 44 minutes 13.5 seconds.
 Elapsed time:       0 days  0 hours  2 minutes 50.4 seconds.
 File lengths (MBytes):  RWF=     40 Int=      0 D2E=      0 Chk=      5 Scr=      1
 Normal termination of Gaussian 16 at Tue Aug 11 13:26:27 2020.
