 Entering Gaussian System, Link 0=g16
 Initial command:
 /opt/software/gaussian/g16.b01/l1.exe "/localscratch/sarashs.36560085.0/Gau-12516.inp" -scrdir="/localscratch/sarashs.36560085.0/"
 Entering Link 1 = /opt/software/gaussian/g16.b01/l1.exe PID=     12523.
  
 Copyright (c) 1988-2017, Gaussian, Inc.  All Rights Reserved.
  
 This is part of the Gaussian(R) 16 program.  It is based on
 the Gaussian(R) 09 system (copyright 2009, Gaussian, Inc.),
 the Gaussian(R) 03 system (copyright 2003, Gaussian, Inc.),
 the Gaussian(R) 98 system (copyright 1998, Gaussian, Inc.),
 the Gaussian(R) 94 system (copyright 1995, Gaussian, Inc.),
 the Gaussian 92(TM) system (copyright 1992, Gaussian, Inc.),
 the Gaussian 90(TM) system (copyright 1990, Gaussian, Inc.),
 the Gaussian 88(TM) system (copyright 1988, Gaussian, Inc.),
 the Gaussian 86(TM) system (copyright 1986, Carnegie Mellon
 University), and the Gaussian 82(TM) system (copyright 1983,
 Carnegie Mellon University). Gaussian is a federally registered
 trademark of Gaussian, Inc.
  
 This software contains proprietary and confidential information,
 including trade secrets, belonging to Gaussian, Inc.
  
 This software is provided under written license and may be
 used, copied, transmitted, or stored only in accord with that
 written license.
  
 The following legend is applicable only to US Government
 contracts under FAR:
  
                    RESTRICTED RIGHTS LEGEND
  
 Use, reproduction and disclosure by the US Government is
 subject to restrictions as set forth in subparagraphs (a)
 and (c) of the Commercial Computer Software - Restricted
 Rights clause in FAR 52.227-19.
  
 Gaussian, Inc.
 340 Quinnipiac St., Bldg. 40, Wallingford CT 06492
  
  
 ---------------------------------------------------------------
 Warning -- This program may not be used in any manner that
 competes with the business of Gaussian, Inc. or will provide
 assistance to any competitor of Gaussian, Inc.  The licensee
 of this program is prohibited from giving any competitor of
 Gaussian, Inc. access to this program.  By using this program,
 the user acknowledges that Gaussian, Inc. is engaged in the
 business of creating and licensing software in the field of
 computational chemistry and represents and warrants to the
 licensee that it is not a competitor of Gaussian, Inc. and that
 it will not use this program in any manner prohibited above.
 ---------------------------------------------------------------
  

 Cite this work as:
 Gaussian 16, Revision B.01,
 M. J. Frisch, G. W. Trucks, H. B. Schlegel, G. E. Scuseria, 
 M. A. Robb, J. R. Cheeseman, G. Scalmani, V. Barone, 
 G. A. Petersson, H. Nakatsuji, X. Li, M. Caricato, A. V. Marenich, 
 J. Bloino, B. G. Janesko, R. Gomperts, B. Mennucci, H. P. Hratchian, 
 J. V. Ortiz, A. F. Izmaylov, J. L. Sonnenberg, D. Williams-Young, 
 F. Ding, F. Lipparini, F. Egidi, J. Goings, B. Peng, A. Petrone, 
 T. Henderson, D. Ranasinghe, V. G. Zakrzewski, J. Gao, N. Rega, 
 G. Zheng, W. Liang, M. Hada, M. Ehara, K. Toyota, R. Fukuda, 
 J. Hasegawa, M. Ishida, T. Nakajima, Y. Honda, O. Kitao, H. Nakai, 
 T. Vreven, K. Throssell, J. A. Montgomery, Jr., J. E. Peralta, 
 F. Ogliaro, M. J. Bearpark, J. J. Heyd, E. N. Brothers, K. N. Kudin, 
 V. N. Staroverov, T. A. Keith, R. Kobayashi, J. Normand, 
 K. Raghavachari, A. P. Rendell, J. C. Burant, S. S. Iyengar, 
 J. Tomasi, M. Cossi, J. M. Millam, M. Klene, C. Adamo, R. Cammi, 
 J. W. Ochterski, R. L. Martin, K. Morokuma, O. Farkas, 
 J. B. Foresman, and D. J. Fox, Gaussian, Inc., Wallingford CT, 2016.
 
 ******************************************
 Gaussian 16:  ES64L-G16RevB.01 20-Dec-2017
                29-Jul-2020 
 ******************************************
 %NProcShared=16
 Will use up to   16 processors via shared memory.
 -------------------------------------------------------------
 #n B3LYP/6-31+G(d,p) EmpiricalDispersion=GD3 Opt=modredundant
 -------------------------------------------------------------
 1/18=120,19=15,26=3,38=1/1,3;
 2/9=110,12=2,17=6,18=5,40=1/2;
 3/5=1,6=6,7=111,11=2,25=1,30=1,71=1,74=-5,124=31/1,2,3;
 4//1;
 5/5=2,38=5/2;
 6/7=2,8=2,9=2,10=2,28=1/1;
 7//1,2,3,16;
 1/18=20,19=15,26=3/3(2);
 2/9=110/2;
 99//99;
 2/9=110/2;
 3/5=1,6=6,7=111,11=2,25=1,30=1,71=1,74=-5,124=31/1,2,3;
 4/5=5,16=3,69=1/1;
 5/5=2,38=5/2;
 7//1,2,3,16;
 1/18=20,19=15,26=3/3(-5);
 2/9=110/2;
 6/7=2,8=2,9=2,10=2,19=2,28=1/1;
 99/9=1/99;
 -----
 Title
 -----
 Symbolic Z-matrix:
 Charge =  0 Multiplicity = 1
 Si                   -5.70519  -0.88055  -0.52811 
 O                    -4.08437  -1.0589   -0.30808 
 O                    -6.00894   0.65446  -1.0021 
 O                    -6.48382  -1.17985   0.87906 
 O                    -6.21544  -1.94251  -1.66187 
 H                    -5.61108  -2.05459  -2.41378 
 H                    -6.86913  -2.06831   0.93194 
 H                    -6.89901   0.96871  -0.78282 
 Si                   -3.31018  -2.97416  -1.406 
 O                    -1.79319  -2.57507  -0.93631 
 O                    -4.23059  -3.30155  -0.09125 
 O                    -3.24876  -4.28448  -2.38516 
 O                    -3.98384  -1.70788  -2.2029 
 H                    -4.00478  -0.89769  -1.66505 
 H                    -4.11864  -4.64444  -2.60985 
 H                    -1.10594  -3.06413  -1.41428 
 H                    -4.35706  -2.53859   0.49456 
 H                    -3.71036  -0.36128   0.25495 
 
 Add virtual bond connecting atoms H14        and O2         Dist= 2.59D+00.
 The following ModRedundant input section has been read:
 B       1       9 F                                                           
 

 GradGradGradGradGradGradGradGradGradGradGradGradGradGradGradGradGradGrad
 Berny optimization.
 Initialization pass.
                           ----------------------------
                           !    Initial Parameters    !
                           ! (Angstroms and Degrees)  !
 --------------------------                            --------------------------
 ! Name  Definition              Value          Derivative Info.                !
 --------------------------------------------------------------------------------
 ! R1    R(1,2)                  1.6454         estimate D2E/DX2                !
 ! R2    R(1,3)                  1.635          estimate D2E/DX2                !
 ! R3    R(1,4)                  1.6358         estimate D2E/DX2                !
 ! R4    R(1,5)                  1.6351         estimate D2E/DX2                !
 ! R5    R(1,9)                  3.3            Frozen                          !
 ! R6    R(2,14)                 1.3688         estimate D2E/DX2                !
 ! R7    R(2,18)                 0.9714         estimate D2E/DX2                !
 ! R8    R(3,8)                  0.9691         estimate D2E/DX2                !
 ! R9    R(4,7)                  0.9699         estimate D2E/DX2                !
 ! R10   R(5,6)                  0.9712         estimate D2E/DX2                !
 ! R11   R(9,10)                 1.6374         estimate D2E/DX2                !
 ! R12   R(9,11)                 1.638          estimate D2E/DX2                !
 ! R13   R(9,12)                 1.6369         estimate D2E/DX2                !
 ! R14   R(9,13)                 1.6408         estimate D2E/DX2                !
 ! R15   R(10,16)                0.9695         estimate D2E/DX2                !
 ! R16   R(11,17)                0.9702         estimate D2E/DX2                !
 ! R17   R(12,15)                0.9679         estimate D2E/DX2                !
 ! R18   R(13,14)                0.9727         estimate D2E/DX2                !
 ! A1    A(2,1,3)              108.8772         estimate D2E/DX2                !
 ! A2    A(2,1,4)              109.5124         estimate D2E/DX2                !
 ! A3    A(2,1,5)              109.2523         estimate D2E/DX2                !
 ! A4    A(3,1,4)              109.4344         estimate D2E/DX2                !
 ! A5    A(3,1,5)              110.5346         estimate D2E/DX2                !
 ! A6    A(4,1,5)              109.214          estimate D2E/DX2                !
 ! A7    A(1,2,14)              84.9482         estimate D2E/DX2                !
 ! A8    A(1,2,18)             112.2687         estimate D2E/DX2                !
 ! A9    A(14,2,18)            117.8808         estimate D2E/DX2                !
 ! A10   A(1,3,8)              114.1731         estimate D2E/DX2                !
 ! A11   A(1,4,7)              113.8041         estimate D2E/DX2                !
 ! A12   A(1,5,6)              114.6833         estimate D2E/DX2                !
 ! A13   A(10,9,11)            109.82           estimate D2E/DX2                !
 ! A14   A(10,9,12)            109.3858         estimate D2E/DX2                !
 ! A15   A(10,9,13)            109.3648         estimate D2E/DX2                !
 ! A16   A(11,9,12)            109.9517         estimate D2E/DX2                !
 ! A17   A(11,9,13)            108.2631         estimate D2E/DX2                !
 ! A18   A(12,9,13)            110.0383         estimate D2E/DX2                !
 ! A19   A(9,10,16)            113.1017         estimate D2E/DX2                !
 ! A20   A(9,11,17)            113.6237         estimate D2E/DX2                !
 ! A21   A(9,12,15)            113.7569         estimate D2E/DX2                !
 ! A22   A(9,13,14)            112.5252         estimate D2E/DX2                !
 ! A23   A(2,14,13)            116.8281         estimate D2E/DX2                !
 ! D1    D(3,1,2,14)           -67.633          estimate D2E/DX2                !
 ! D2    D(3,1,2,18)            50.4723         estimate D2E/DX2                !
 ! D3    D(4,1,2,14)           172.7477         estimate D2E/DX2                !
 ! D4    D(4,1,2,18)           -69.147          estimate D2E/DX2                !
 ! D5    D(5,1,2,14)            53.1705         estimate D2E/DX2                !
 ! D6    D(5,1,2,18)           171.2758         estimate D2E/DX2                !
 ! D7    D(2,1,3,8)           -154.199          estimate D2E/DX2                !
 ! D8    D(4,1,3,8)            -34.5313         estimate D2E/DX2                !
 ! D9    D(5,1,3,8)             85.7881         estimate D2E/DX2                !
 ! D10   D(2,1,4,7)           -100.0138         estimate D2E/DX2                !
 ! D11   D(3,1,4,7)            140.7097         estimate D2E/DX2                !
 ! D12   D(5,1,4,7)             19.587          estimate D2E/DX2                !
 ! D13   D(2,1,5,6)            -39.7339         estimate D2E/DX2                !
 ! D14   D(3,1,5,6)             80.0535         estimate D2E/DX2                !
 ! D15   D(4,1,5,6)           -159.4953         estimate D2E/DX2                !
 ! D16   D(1,2,14,13)          -94.9882         estimate D2E/DX2                !
 ! D17   D(18,2,14,13)         152.4538         estimate D2E/DX2                !
 ! D18   D(11,9,10,16)         130.3438         estimate D2E/DX2                !
 ! D19   D(12,9,10,16)           9.5908         estimate D2E/DX2                !
 ! D20   D(13,9,10,16)        -110.9862         estimate D2E/DX2                !
 ! D21   D(10,9,11,17)          63.842          estimate D2E/DX2                !
 ! D22   D(12,9,11,17)        -175.7474         estimate D2E/DX2                !
 ! D23   D(13,9,11,17)         -55.5049         estimate D2E/DX2                !
 ! D24   D(10,9,12,15)         172.6026         estimate D2E/DX2                !
 ! D25   D(11,9,12,15)          51.9299         estimate D2E/DX2                !
 ! D26   D(13,9,12,15)         -67.2318         estimate D2E/DX2                !
 ! D27   D(10,9,13,14)         -57.463          estimate D2E/DX2                !
 ! D28   D(11,9,13,14)          62.1705         estimate D2E/DX2                !
 ! D29   D(12,9,13,14)        -177.6412         estimate D2E/DX2                !
 ! D30   D(9,13,14,2)          -28.9378         estimate D2E/DX2                !
 --------------------------------------------------------------------------------
 Trust Radius=3.00D-01 FncErr=1.00D-07 GrdErr=1.00D-06 EigMax=2.50D+02 EigMin=1.00D-04
 Number of steps in this run=     81 maximum allowed number of steps=    108.
 GradGradGradGradGradGradGradGradGradGradGradGradGradGradGradGradGradGrad

                          Input orientation:                          
 ---------------------------------------------------------------------
 Center     Atomic      Atomic             Coordinates (Angstroms)
 Number     Number       Type             X           Y           Z
 ---------------------------------------------------------------------
      1         14           0       -5.705190   -0.880550   -0.528110
      2          8           0       -4.084370   -1.058900   -0.308080
      3          8           0       -6.008940    0.654460   -1.002100
      4          8           0       -6.483820   -1.179850    0.879060
      5          8           0       -6.215440   -1.942510   -1.661870
      6          1           0       -5.611080   -2.054590   -2.413780
      7          1           0       -6.869130   -2.068310    0.931940
      8          1           0       -6.899010    0.968710   -0.782820
      9         14           0       -3.310180   -2.974160   -1.406000
     10          8           0       -1.793190   -2.575070   -0.936310
     11          8           0       -4.230590   -3.301550   -0.091250
     12          8           0       -3.248760   -4.284480   -2.385160
     13          8           0       -3.983840   -1.707880   -2.202900
     14          1           0       -4.004780   -0.897690   -1.665050
     15          1           0       -4.118640   -4.644440   -2.609850
     16          1           0       -1.105940   -3.064130   -1.414280
     17          1           0       -4.357060   -2.538590    0.494560
     18          1           0       -3.710360   -0.361280    0.254950
 ---------------------------------------------------------------------
                    Distance matrix (angstroms):
                    1          2          3          4          5
     1  Si   0.000000
     2  O    1.645381   0.000000
     3  O    1.634988   2.668564   0.000000
     4  O    1.635840   2.679793   2.670013   0.000000
     5  O    1.635092   2.674878   2.687414   2.666459   0.000000
     6  H    2.223281   2.784998   3.080598   3.517050   0.971175
     7  H    2.212979   3.211144   3.448755   0.969856   2.677870
     8  H    2.215817   3.501254   0.969052   2.747824   3.116921
     9  Si   3.299995   2.339449   4.540190   4.302678   3.093591
    10  O    4.282729   2.818324   5.311002   5.219599   4.525800
    11  O    2.868193   2.257847   4.431951   3.243479   2.872885
    12  O    4.590144   3.926432   5.824481   5.546122   3.848267
    13  O    2.540166   2.005399   3.335206   4.003398   2.308203
    14  H    2.045561   1.368828   2.620177   3.563390   2.445133
    15  H    4.584501   4.260917   5.851191   5.456185   3.549037
    16  H    5.167825   3.757083   6.167432   6.142598   5.237015
    17  H    2.369052   1.705307   3.894132   2.552866   2.908449
    18  H    2.205033   0.971370   2.809871   2.958319   3.528443
                    6          7          8          9         10
     6  H    0.000000
     7  H    3.574454   0.000000
     8  H    3.668670   3.487805   0.000000
     9  Si   2.674952   4.353464   5.367893   0.000000
    10  O    4.126754   5.432525   6.217020   1.637419   0.000000
    11  O    2.975703   3.087020   5.082702   1.637958   2.680078
    12  O    3.248659   5.387174   6.594530   1.636907   2.672065
    13  O    1.677077   4.275749   4.204638   1.640833   2.674924
    14  H    2.116415   4.039704   3.555045   2.204836   2.869808
    15  H    2.995521   5.171646   6.525025   2.211944   3.534225
    16  H    4.723818   6.301648   7.086762   2.206091   0.969509
    17  H    3.203945   2.592867   4.516012   2.213099   2.936350
    18  H    3.688110   3.653778   3.607399   3.121865   3.161567
                   11         12         13         14         15
    11  O    0.000000
    12  O    2.681821   0.000000
    13  O    2.657016   2.685597   0.000000
    14  H    2.882079   3.544076   0.972692   0.000000
    15  H    2.856437   0.967857   2.967687   3.865714   0.000000
    16  H    3.401502   2.650196   3.277750   3.627619   3.605985
    17  H    0.970194   3.545314   2.847045   2.735063   3.758831
    18  H    3.005941   4.751290   2.815875   2.015147   5.169065
                   16         17         18
    16  H    0.000000
    17  H    3.806526   0.000000
    18  H    4.107886   2.283925   0.000000
 Stoichiometry    H8O8Si2
 Framework group  C1[X(H8O8Si2)]
 Deg. of freedom    48
 Full point group                 C1      NOp   1
 Largest Abelian subgroup         C1      NOp   1
 Largest concise Abelian subgroup C1      NOp   1
                         Standard orientation:                         
 ---------------------------------------------------------------------
 Center     Atomic      Atomic             Coordinates (Angstroms)
 Number     Number       Type             X           Y           Z
 ---------------------------------------------------------------------
      1         14           0       -1.638226   -0.006301   -0.012389
      2          8           0       -0.409422    1.062465    0.222259
      3          8           0       -2.700922    0.634818   -1.076733
      4          8           0       -2.395637   -0.288878    1.409741
      5          8           0       -1.028844   -1.411020   -0.585924
      6          1           0       -0.315469   -1.307880   -1.236799
      7          1           0       -2.127463   -1.116505    1.838387
      8          1           0       -3.604865    0.297313   -0.987067
      9         14           0        1.661715   -0.003731    0.006306
     10          8           0        2.382162    1.449714    0.228998
     11          8           0        0.844315   -0.431600    1.359707
     12          8           0        2.800918   -1.127911   -0.337061
     13          8           0        0.588333    0.104807   -1.229980
     14          1           0       -0.085352    0.790097   -1.079465
     15          1           0        2.458617   -2.032638   -0.369437
     16          1           0        3.319780    1.451289   -0.017615
     17          1           0        0.110940    0.165571    1.576096
     18          1           0       -0.732245    1.954056    0.432999
 ---------------------------------------------------------------------
 Rotational constants (GHZ):           2.0083428           0.6545557           0.6497509
 Standard basis: 6-31+G(d,p) (6D, 7F)
 There are   238 symmetry adapted cartesian basis functions of A   symmetry.
 There are   238 symmetry adapted basis functions of A   symmetry.
   238 basis functions,   424 primitive gaussians,   238 cartesian basis functions
    50 alpha electrons       50 beta electrons
       nuclear repulsion energy       928.3189221304 Hartrees.
 NAtoms=   18 NActive=   18 NUniq=   18 SFac= 1.00D+00 NAtFMM=   60 NAOKFM=F Big=F
 Integral buffers will be    131072 words long.
 Raffenetti 2 integral format.
 Two-electron integral symmetry is turned on.
 Nuclear repulsion after empirical dispersion term =      928.3021742677 Hartrees.
 One-electron integrals computed using PRISM.
 NBasis=   238 RedAO= T EigKep=  1.65D-04  NBF=   238
 NBsUse=   238 1.00D-06 EigRej= -1.00D+00 NBFU=   238
 ExpMin= 3.31D-02 ExpMax= 1.61D+04 ExpMxC= 2.43D+03 IAcc=3 IRadAn=         5 AccDes= 0.00D+00
 Harris functional with IExCor=  402 and IRadAn=       5 diagonalized for initial guess.
 HarFok:  IExCor=  402 AccDes= 0.00D+00 IRadAn=         5 IDoV= 1 UseB2=F ITyADJ=14
 ICtDFT=  3500011 ScaDFX=  1.000000  1.000000  1.000000  1.000000
 FoFCou: FMM=F IPFlag=           0 FMFlag=      100000 FMFlg1=           0
         NFxFlg=           0 DoJE=T BraDBF=F KetDBF=T FulRan=T
         wScrn=  0.000000 ICntrl=       500 IOpCl=  0 I1Cent=   200000004 NGrid=           0
         NMat0=    1 NMatS0=      1 NMatT0=    0 NMatD0=    1 NMtDS0=    0 NMtDT0=    0
 Petite list used in FoFCou.
 Requested convergence on RMS density matrix=1.00D-08 within 128 cycles.
 Requested convergence on MAX density matrix=1.00D-06.
 Requested convergence on             energy=1.00D-06.
 No special actions if energy rises.
 SCF Done:  E(RB3LYP) =  -1185.92972975     A.U. after   12 cycles
            NFock= 12  Conv=0.33D-08     -V/T= 2.0056

 **********************************************************************

            Population analysis using the SCF Density.

 **********************************************************************

 Orbital symmetries:
       Occupied  (A) (A) (A) (A) (A) (A) (A) (A) (A) (A) (A) (A)
                 (A) (A) (A) (A) (A) (A) (A) (A) (A) (A) (A) (A)
                 (A) (A) (A) (A) (A) (A) (A) (A) (A) (A) (A) (A)
                 (A) (A) (A) (A) (A) (A) (A) (A) (A) (A) (A) (A)
                 (A) (A)
       Virtual   (A) (A) (A) (A) (A) (A) (A) (A) (A) (A) (A) (A)
                 (A) (A) (A) (A) (A) (A) (A) (A) (A) (A) (A) (A)
                 (A) (A) (A) (A) (A) (A) (A) (A) (A) (A) (A) (A)
                 (A) (A) (A) (A) (A) (A) (A) (A) (A) (A) (A) (A)
                 (A) (A) (A) (A) (A) (A) (A) (A) (A) (A) (A) (A)
                 (A) (A) (A) (A) (A) (A) (A) (A) (A) (A) (A) (A)
                 (A) (A) (A) (A) (A) (A) (A) (A) (A) (A) (A) (A)
                 (A) (A) (A) (A) (A) (A) (A) (A) (A) (A) (A) (A)
                 (A) (A) (A) (A) (A) (A) (A) (A) (A) (A) (A) (A)
                 (A) (A) (A) (A) (A) (A) (A) (A) (A) (A) (A) (A)
                 (A) (A) (A) (A) (A) (A) (A) (A) (A) (A) (A) (A)
                 (A) (A) (A) (A) (A) (A) (A) (A) (A) (A) (A) (A)
                 (A) (A) (A) (A) (A) (A) (A) (A) (A) (A) (A) (A)
                 (A) (A) (A) (A) (A) (A) (A) (A) (A) (A) (A) (A)
                 (A) (A) (A) (A) (A) (A) (A) (A) (A) (A) (A) (A)
                 (A) (A) (A) (A) (A) (A) (A) (A)
 The electronic state is 1-A.
 Alpha  occ. eigenvalues --  -66.23878 -66.20634 -19.21875 -19.18907 -19.18755
 Alpha  occ. eigenvalues --  -19.16939 -19.15980 -19.14571 -19.13914 -19.12821
 Alpha  occ. eigenvalues --   -5.37562  -5.34183  -3.73640  -3.73470  -3.73433
 Alpha  occ. eigenvalues --   -3.70223  -3.70137  -3.70083  -1.13119  -1.05156
 Alpha  occ. eigenvalues --   -1.03601  -1.02963  -1.01594  -1.00527  -0.99574
 Alpha  occ. eigenvalues --   -0.98169  -0.64034  -0.59342  -0.57968  -0.56919
 Alpha  occ. eigenvalues --   -0.54550  -0.53823  -0.53037  -0.51626  -0.48171
 Alpha  occ. eigenvalues --   -0.42973  -0.41844  -0.40484  -0.40024  -0.38466
 Alpha  occ. eigenvalues --   -0.38131  -0.37607  -0.36973  -0.35577  -0.34933
 Alpha  occ. eigenvalues --   -0.34083  -0.33697  -0.31220  -0.30776  -0.29350
 Alpha virt. eigenvalues --   -0.03849  -0.00616  -0.00021   0.00882   0.02177
 Alpha virt. eigenvalues --    0.04055   0.05309   0.07015   0.07883   0.09545
 Alpha virt. eigenvalues --    0.10092   0.11491   0.11772   0.12483   0.13174
 Alpha virt. eigenvalues --    0.13670   0.13801   0.14455   0.16164   0.16406
 Alpha virt. eigenvalues --    0.16597   0.17583   0.17947   0.18817   0.19137
 Alpha virt. eigenvalues --    0.19411   0.19934   0.20712   0.21974   0.22342
 Alpha virt. eigenvalues --    0.22368   0.23396   0.24260   0.24816   0.25338
 Alpha virt. eigenvalues --    0.26248   0.26841   0.28095   0.28762   0.28910
 Alpha virt. eigenvalues --    0.30064   0.30565   0.30729   0.31413   0.32082
 Alpha virt. eigenvalues --    0.33744   0.34888   0.35106   0.37870   0.38057
 Alpha virt. eigenvalues --    0.39538   0.40011   0.41852   0.43244   0.45209
 Alpha virt. eigenvalues --    0.45561   0.48986   0.49602   0.51832   0.53279
 Alpha virt. eigenvalues --    0.54935   0.57861   0.61791   0.63450   0.65491
 Alpha virt. eigenvalues --    0.68776   0.70967   0.76988   0.90700   0.92617
 Alpha virt. eigenvalues --    0.93654   0.94494   0.95787   0.97363   0.98567
 Alpha virt. eigenvalues --    0.99257   1.00402   1.02296   1.03317   1.04560
 Alpha virt. eigenvalues --    1.06160   1.09578   1.12745   1.16588   1.17497
 Alpha virt. eigenvalues --    1.17979   1.19283   1.19971   1.20625   1.22366
 Alpha virt. eigenvalues --    1.23842   1.24203   1.25388   1.25827   1.26081
 Alpha virt. eigenvalues --    1.27006   1.28413   1.30031   1.30285   1.33251
 Alpha virt. eigenvalues --    1.33774   1.34811   1.35939   1.38074   1.41226
 Alpha virt. eigenvalues --    1.44304   1.47499   1.50545   1.52757   1.55952
 Alpha virt. eigenvalues --    1.56454   1.59398   1.60602   1.61524   1.63021
 Alpha virt. eigenvalues --    1.63164   1.65311   1.66216   1.68064   1.72206
 Alpha virt. eigenvalues --    1.73074   1.74320   1.75545   1.76527   1.78314
 Alpha virt. eigenvalues --    1.84526   1.87616   1.92123   1.92412   1.95436
 Alpha virt. eigenvalues --    1.95741   2.02314   2.07352   2.10402   2.10914
 Alpha virt. eigenvalues --    2.14500   2.17275   2.28561   2.35792   2.37779
 Alpha virt. eigenvalues --    2.39089   2.39500   2.41554   2.42571   2.46664
 Alpha virt. eigenvalues --    2.48607   2.49834   2.54642   2.58105   2.60226
 Alpha virt. eigenvalues --    2.61093   2.62109   2.62846   2.64002   2.65175
 Alpha virt. eigenvalues --    2.66827   2.68242   2.69656   2.71813   2.73635
 Alpha virt. eigenvalues --    2.74511   2.76385   2.78875   2.79763   2.81697
 Alpha virt. eigenvalues --    2.82389   2.86638   2.93904   2.99051   3.03139
 Alpha virt. eigenvalues --    3.05612   3.20651   3.40847   3.42317   3.43310
 Alpha virt. eigenvalues --    3.47239   3.54753   3.60870   3.61056   3.74176
 Alpha virt. eigenvalues --    4.18544   4.20236   4.25748   4.32170   4.36119
 Alpha virt. eigenvalues --    4.41408   4.66850   4.86954
          Condensed to atoms (all electrons):
               1          2          3          4          5          6
     1  Si  12.352985  -0.230750  -0.155795  -0.007257  -0.098104   0.041246
     2  O   -0.230750   9.206970   0.112322   0.030950   0.068468  -0.007715
     3  O   -0.155795   0.112322   8.790247  -0.104657  -0.012691  -0.001548
     4  O   -0.007257   0.030950  -0.104657   8.609905   0.069705   0.005901
     5  O   -0.098104   0.068468  -0.012691   0.069705   8.648834   0.235375
     6  H    0.041246  -0.007715  -0.001548   0.005901   0.235375   0.298258
     7  H    0.048278  -0.009955   0.005790   0.240629  -0.003769   0.000070
     8  H    0.042366   0.000060   0.230700   0.000555  -0.006347  -0.000046
     9  Si   0.131096  -0.358977   0.018586   0.026714  -0.089533   0.027094
    10  O    0.015415   0.082814  -0.000075  -0.003025  -0.009440  -0.000519
    11  O   -0.055018   0.136349  -0.005201  -0.035668   0.045332  -0.013006
    12  O   -0.009992  -0.081633  -0.000830   0.006778  -0.003061   0.006273
    13  O   -0.037952  -0.116409  -0.036403  -0.023802   0.016807  -0.000357
    14  H    0.029951   0.000590   0.006318   0.004922  -0.020268  -0.000762
    15  H   -0.000223   0.000334   0.000006  -0.000063  -0.001902   0.000158
    16  H   -0.000240   0.001464   0.000006  -0.000005   0.000123  -0.000007
    17  H    0.005825  -0.009606  -0.000677   0.026317  -0.015356   0.000982
    18  H    0.028595   0.223715   0.001953  -0.008957  -0.000186  -0.000283
               7          8          9         10         11         12
     1  Si   0.048278   0.042366   0.131096   0.015415  -0.055018  -0.009992
     2  O   -0.009955   0.000060  -0.358977   0.082814   0.136349  -0.081633
     3  O    0.005790   0.230700   0.018586  -0.000075  -0.005201  -0.000830
     4  O    0.240629   0.000555   0.026714  -0.003025  -0.035668   0.006778
     5  O   -0.003769  -0.006347  -0.089533  -0.009440   0.045332  -0.003061
     6  H    0.000070  -0.000046   0.027094  -0.000519  -0.013006   0.006273
     7  H    0.334491   0.000036   0.001325   0.000013  -0.002497  -0.000040
     8  H    0.000036   0.350547   0.000821  -0.000013   0.000189   0.000001
     9  Si   0.001325   0.000821  12.971828  -0.410862  -0.354635   0.097091
    10  O    0.000013  -0.000013  -0.410862   8.917742   0.168994  -0.129734
    11  O   -0.002497   0.000189  -0.354635   0.168994   8.697808  -0.022740
    12  O   -0.000040   0.000001   0.097091  -0.129734  -0.022740   8.623706
    13  O   -0.000783   0.001071  -0.525695   0.187238   0.181357  -0.007749
    14  H    0.000055  -0.000071   0.082290  -0.007378  -0.017680   0.011791
    15  H    0.000000   0.000000   0.058244   0.010901  -0.006697   0.226005
    16  H    0.000000  -0.000000   0.035557   0.228558   0.000761  -0.004429
    17  H   -0.000333  -0.000008   0.052677  -0.006254   0.240036   0.009161
    18  H    0.000109  -0.000033  -0.023837   0.005206   0.007483  -0.000680
              13         14         15         16         17         18
     1  Si  -0.037952   0.029951  -0.000223  -0.000240   0.005825   0.028595
     2  O   -0.116409   0.000590   0.000334   0.001464  -0.009606   0.223715
     3  O   -0.036403   0.006318   0.000006   0.000006  -0.000677   0.001953
     4  O   -0.023802   0.004922  -0.000063  -0.000005   0.026317  -0.008957
     5  O    0.016807  -0.020268  -0.001902   0.000123  -0.015356  -0.000186
     6  H   -0.000357  -0.000762   0.000158  -0.000007   0.000982  -0.000283
     7  H   -0.000783   0.000055   0.000000   0.000000  -0.000333   0.000109
     8  H    0.001071  -0.000071   0.000000  -0.000000  -0.000008  -0.000033
     9  Si  -0.525695   0.082290   0.058244   0.035557   0.052677  -0.023837
    10  O    0.187238  -0.007378   0.010901   0.228558  -0.006254   0.005206
    11  O    0.181357  -0.017680  -0.006697   0.000761   0.240036   0.007483
    12  O   -0.007749   0.011791   0.226005  -0.004429   0.009161  -0.000680
    13  O    9.126842   0.209062  -0.007565  -0.006007  -0.025960   0.033943
    14  H    0.209062   0.333544  -0.000072  -0.000100   0.002021  -0.006923
    15  H   -0.007565  -0.000072   0.361555  -0.000032  -0.000064   0.000002
    16  H   -0.006007  -0.000100  -0.000032   0.359115  -0.000065   0.000016
    17  H   -0.025960   0.002021  -0.000064  -0.000065   0.347628  -0.001117
    18  H    0.033943  -0.006923   0.000002   0.000016  -0.001117   0.306354
 Mulliken charges:
               1
     1  Si   1.899574
     2  O   -1.048991
     3  O   -0.848049
     4  O   -0.838940
     5  O   -0.823985
     6  H    0.408884
     7  H    0.386581
     8  H    0.380171
     9  Si   2.260216
    10  O   -1.049580
    11  O   -0.965168
    12  O   -0.719916
    13  O   -0.967637
    14  H    0.372709
    15  H    0.359412
    16  H    0.385286
    17  H    0.374793
    18  H    0.434642
 Sum of Mulliken charges =  -0.00000
 Mulliken charges with hydrogens summed into heavy atoms:
               1
     1  Si   1.899574
     2  O   -0.614349
     3  O   -0.467877
     4  O   -0.452360
     5  O   -0.415101
     9  Si   2.260216
    10  O   -0.664294
    11  O   -0.590375
    12  O   -0.360504
    13  O   -0.594929
 Electronic spatial extent (au):  <R**2>=           1869.1549
 Charge=             -0.0000 electrons
 Dipole moment (field-independent basis, Debye):
    X=             -2.0975    Y=              0.7011    Z=              0.4626  Tot=              2.2595
 Quadrupole moment (field-independent basis, Debye-Ang):
   XX=            -66.2396   YY=            -66.8291   ZZ=            -76.6434
   XY=             -0.2721   XZ=             -2.2277   YZ=              0.6504
 Traceless Quadrupole moment (field-independent basis, Debye-Ang):
   XX=              3.6645   YY=              3.0749   ZZ=             -6.7394
   XY=             -0.2721   XZ=             -2.2277   YZ=              0.6504
 Octapole moment (field-independent basis, Debye-Ang**2):
  XXX=            -18.4199  YYY=             -2.4887  ZZZ=              6.7323  XYY=              5.6066
  XXY=              4.4053  XXZ=            -11.3300  XZZ=             -6.6630  YZZ=             -5.4454
  YYZ=              3.0096  XYZ=              2.8343
 Hexadecapole moment (field-independent basis, Debye-Ang**3):
 XXXX=          -1319.8731 YYYY=           -323.9147 ZZZZ=           -362.2701 XXXY=             88.6000
 XXXZ=             54.6974 YYYX=            -49.0475 YYYZ=              5.0933 ZZZX=            -13.1111
 ZZZY=             -2.8505 XXYY=           -294.8477 XXZZ=           -337.6786 YYZZ=           -110.5125
 XXYZ=            -12.3582 YYXZ=            -30.1306 ZZXY=             17.9689
 N-N= 9.283021742677D+02 E-N=-4.666848314446D+03  KE= 1.179367456090D+03
 Calling FoFJK, ICntrl=      2127 FMM=F ISym2X=0 I1Cent= 0 IOpClX= 0 NMat=1 NMatS=1 NMatT=0.
 ***** Axes restored to original set *****
 -------------------------------------------------------------------
 Center     Atomic                   Forces (Hartrees/Bohr)
 Number     Number              X              Y              Z
 -------------------------------------------------------------------
      1       14          -0.064558358   -0.008789784   -0.012627379
      2        8           0.013825489    0.099020937    0.111649853
      3        8           0.003576997    0.011553038    0.007366727
      4        8          -0.004435135   -0.006725720    0.006618700
      5        8          -0.037565131   -0.000748457    0.012526508
      6        1          -0.000854222    0.003822527    0.003094229
      7        1           0.000575402    0.003473964    0.001174861
      8        1           0.004557524    0.000361100   -0.002392247
      9       14           0.007558034   -0.000788248    0.004615947
     10        8           0.016851874   -0.006587769   -0.004312481
     11        8          -0.007978172   -0.037716313    0.017785553
     12        8          -0.006113570   -0.004409190   -0.003452548
     13        8           0.031871838   -0.024806995   -0.115104415
     14        1           0.027285719   -0.007433737   -0.035966873
     15        1           0.004222844   -0.002176357   -0.000713861
     16        1          -0.000661096    0.004338259    0.004275927
     17        1           0.008071073   -0.023503220   -0.001401111
     18        1           0.003768889    0.001115965    0.006862613
 -------------------------------------------------------------------
 Cartesian Forces:  Max     0.115104415 RMS     0.030068505

 GradGradGradGradGradGradGradGradGradGradGradGradGradGradGradGradGradGrad
 Berny optimization.
 FormGI is forming the generalized inverse of G from B-inverse, IUseBI=4.
 Internal  Forces:  Max     0.136516431 RMS     0.036892186
 Search for a local minimum.
 Step number   1 out of a maximum of   81
 All quantities printed in internal units (Hartrees-Bohrs-Radians)
 Mixed Optimization -- RFO/linear search
 Second derivative matrix not updated -- first step.
 ITU=  0
     Eigenvalues ---    0.00642   0.03739   0.03799   0.03837   0.03844
     Eigenvalues ---    0.03851   0.03865   0.03875   0.03876   0.06973
     Eigenvalues ---    0.08052   0.10703   0.10772   0.10963   0.12173
     Eigenvalues ---    0.12197   0.12246   0.12480   0.15546   0.16000
     Eigenvalues ---    0.16000   0.16000   0.16000   0.16000   0.16000
     Eigenvalues ---    0.16000   0.20131   0.20260   0.20696   0.20836
     Eigenvalues ---    0.21853   0.40687   0.43792   0.44527   0.44613
     Eigenvalues ---    0.44696   0.44868   0.44990   0.45007   0.51587
     Eigenvalues ---    0.53098   0.53138   0.53337   0.53406   0.53477
     Eigenvalues ---    0.53571   0.538171000.000001000.000001000.00000
     Eigenvalues --- 1000.000001000.000001000.000001000.000001000.00000
     Eigenvalues --- 1000.000001000.000001000.000001000.000001000.00000
     Eigenvalues --- 1000.000001000.000001000.000001000.000001000.00000
     Eigenvalues --- 1000.000001000.000001000.000001000.000001000.00000
     Eigenvalues --- 1000.00000
 RFO step:  Lambda=-2.28901963D-01 EMin= 6.42150996D-03
 Linear search not attempted -- first point.
 Maximum step size (   0.300) exceeded in Quadratic search.
    -- Step size scaled by   0.508
 Iteration  1 RMS(Cart)=  0.24997975 RMS(Int)=  0.01680599
 Iteration  2 RMS(Cart)=  0.09339829 RMS(Int)=  0.00251663
 Iteration  3 RMS(Cart)=  0.00309256 RMS(Int)=  0.00179965
 Iteration  4 RMS(Cart)=  0.00000806 RMS(Int)=  0.00179965
 Iteration  5 RMS(Cart)=  0.00000008 RMS(Int)=  0.00179965
 Iteration  1 RMS(Cart)=  0.00105999 RMS(Int)=  0.00010650
 Iteration  2 RMS(Cart)=  0.00006781 RMS(Int)=  0.00010965
 Iteration  3 RMS(Cart)=  0.00000434 RMS(Int)=  0.00011005
 Iteration  4 RMS(Cart)=  0.00000028 RMS(Int)=  0.00011008
 Variable       Old X    -DE/DX   Delta X   Delta X   Delta X     New X
                                 (Linear)    (Quad)   (Total)
    R1        3.10932   0.01562   0.00000   0.01738   0.01503   3.12435
    R2        3.08968   0.00823   0.00000   0.00616   0.00616   3.09584
    R3        3.09129   0.00914   0.00000   0.00685   0.00685   3.09814
    R4        3.08988  -0.00084   0.00000  -0.00063  -0.00063   3.08925
    R5        6.23609   0.10669   0.00000   0.00000   0.00000   6.23609
    R6        2.58671   0.10102   0.00000   0.13638   0.13485   2.72156
    R7        1.83562   0.00623   0.00000   0.00416   0.00416   1.83979
    R8        1.83124  -0.00461   0.00000  -0.00306  -0.00306   1.82818
    R9        1.83276  -0.00335   0.00000  -0.00223  -0.00223   1.83053
   R10        1.83526  -0.00337   0.00000  -0.00225  -0.00225   1.83301
   R11        3.09427   0.01444   0.00000   0.01086   0.01086   3.10514
   R12        3.09529   0.02534   0.00000   0.01909   0.01909   3.11438
   R13        3.09331   0.00769   0.00000   0.00578   0.00578   3.09909
   R14        3.10072   0.00160   0.00000   0.00592   0.00377   3.10449
   R15        1.83211  -0.00476   0.00000  -0.00317  -0.00317   1.82894
   R16        1.83340  -0.02038   0.00000  -0.01358  -0.01358   1.81982
   R17        1.82899  -0.00282   0.00000  -0.00187  -0.00187   1.82712
   R18        1.83812   0.06145   0.00000   0.04558   0.04266   1.88078
    A1        1.90027  -0.03044   0.00000  -0.03574  -0.03610   1.86416
    A2        1.91135  -0.01376   0.00000  -0.01794  -0.01795   1.89340
    A3        1.90681   0.05918   0.00000   0.07541   0.07562   1.98243
    A4        1.90999   0.01176   0.00000   0.00708   0.00651   1.91650
    A5        1.92919  -0.00145   0.00000   0.00068   0.00089   1.93008
    A6        1.90614  -0.02531   0.00000  -0.02951  -0.02935   1.87680
    A7        1.48263   0.06910   0.00000   0.10249   0.09821   1.58083
    A8        1.95946   0.01888   0.00000   0.02603   0.02943   1.98889
    A9        2.05741  -0.01846   0.00000  -0.02338  -0.02601   2.03140
   A10        1.99270   0.00417   0.00000   0.00544   0.00544   1.99814
   A11        1.98626   0.00291   0.00000   0.00380   0.00380   1.99005
   A12        2.00160  -0.00597   0.00000  -0.00780  -0.00780   1.99380
   A13        1.91672  -0.00147   0.00000   0.00229   0.00090   1.91762
   A14        1.90914   0.00742   0.00000  -0.00135  -0.00197   1.90718
   A15        1.90878  -0.01110   0.00000  -0.00872  -0.01022   1.89856
   A16        1.91902  -0.04152   0.00000  -0.05232  -0.05164   1.86738
   A17        1.88955   0.07825   0.00000   0.10100   0.10066   1.99021
   A18        1.92053  -0.03113   0.00000  -0.04010  -0.03935   1.88118
   A19        1.97400   0.00705   0.00000   0.00921   0.00921   1.98320
   A20        1.98311   0.01442   0.00000   0.01883   0.01883   2.00194
   A21        1.98543   0.00692   0.00000   0.00904   0.00904   1.99447
   A22        1.96394   0.04929   0.00000   0.08249   0.07572   2.03965
   A23        2.03903   0.13652   0.00000   0.15934   0.15232   2.19136
    D1       -1.18042  -0.01158   0.00000  -0.02029  -0.02092  -1.20134
    D2        0.88091  -0.00060   0.00000   0.00013   0.00164   0.88254
    D3        3.01502   0.00062   0.00000   0.00330   0.00196   3.01698
    D4       -1.20684   0.01161   0.00000   0.02371   0.02452  -1.18232
    D5        0.92800   0.00396   0.00000   0.00444   0.00320   0.93120
    D6        2.98933   0.01494   0.00000   0.02485   0.02575   3.01508
    D7       -2.69128   0.02668   0.00000   0.03611   0.03598  -2.65530
    D8       -0.60268  -0.00135   0.00000  -0.00297  -0.00291  -0.60559
    D9        1.49729  -0.02608   0.00000  -0.03456  -0.03450   1.46279
   D10       -1.74557  -0.02911   0.00000  -0.03809  -0.03818  -1.78375
   D11        2.45585   0.00923   0.00000   0.01208   0.01220   2.46805
   D12        0.34186   0.01947   0.00000   0.02523   0.02520   0.36705
   D13       -0.69349   0.00059   0.00000  -0.00124  -0.00180  -0.69529
   D14        1.39720  -0.00047   0.00000   0.00272   0.00310   1.40030
   D15       -2.78372  -0.00300   0.00000  -0.00697  -0.00678  -2.79050
   D16       -1.65786   0.07103   0.00000   0.11611   0.12045  -1.53741
   D17        2.66082   0.01479   0.00000   0.03443   0.03812   2.69894
   D18        2.27493  -0.04503   0.00000  -0.06094  -0.06066   2.21427
   D19        0.16739   0.00239   0.00000   0.00297   0.00305   0.17044
   D20       -1.93707   0.04283   0.00000   0.05834   0.05799  -1.87908
   D21        1.11425   0.01016   0.00000   0.01548   0.01613   1.13038
   D22       -3.06737  -0.00778   0.00000  -0.01776  -0.01689  -3.08426
   D23       -0.96874  -0.02242   0.00000  -0.03579  -0.03730  -1.00605
   D24        3.01248   0.00124   0.00000   0.00095   0.00106   3.01355
   D25        0.90635   0.02430   0.00000   0.03165   0.03188   0.93822
   D26       -1.17342  -0.02704   0.00000  -0.03545  -0.03578  -1.20920
   D27       -1.00292   0.00618   0.00000   0.01695   0.01664  -0.98627
   D28        1.08508   0.04430   0.00000   0.07447   0.07548   1.16056
   D29       -3.10042   0.02325   0.00000   0.04888   0.04817  -3.05225
   D30       -0.50506   0.10605   0.00000   0.18888   0.19507  -0.30999
         Item               Value     Threshold  Converged?
 Maximum Force            0.122785     0.000450     NO 
 RMS     Force            0.034692     0.000300     NO 
 Maximum Displacement     0.837091     0.001800     NO 
 RMS     Displacement     0.333879     0.001200     NO 
 Predicted change in Energy=-1.053699D-01
 GradGradGradGradGradGradGradGradGradGradGradGradGradGradGradGradGradGrad

                          Input orientation:                          
 ---------------------------------------------------------------------
 Center     Atomic      Atomic             Coordinates (Angstroms)
 Number     Number       Type             X           Y           Z
 ---------------------------------------------------------------------
      1         14           0       -5.647960   -0.841607   -0.457339
      2          8           0       -4.004238   -0.735884   -0.314080
      3          8           0       -6.155599    0.560779   -1.135180
      4          8           0       -6.291380   -0.998593    1.042397
      5          8           0       -6.146292   -2.121780   -1.343488
      6          1           0       -5.600773   -2.301548   -2.125129
      7          1           0       -6.556723   -1.903251    1.264934
      8          1           0       -7.058611    0.816009   -0.899914
      9         14           0       -3.369498   -3.001873   -1.473129
     10          8           0       -1.949234   -2.744387   -0.687920
     11          8           0       -4.513442   -3.520638   -0.406184
     12          8           0       -3.168105   -4.196567   -2.578405
     13          8           0       -3.781714   -1.633300   -2.283045
     14          1           0       -3.860847   -0.799292   -1.745710
     15          1           0       -3.986187   -4.485029   -3.005453
     16          1           0       -1.197512   -3.207934   -1.083820
     17          1           0       -4.755514   -2.877604    0.268571
     18          1           0       -3.696691    0.081689    0.115843
 ---------------------------------------------------------------------
                    Distance matrix (angstroms):
                    1          2          3          4          5
     1  Si   0.000000
     2  O    1.653337   0.000000
     3  O    1.638247   2.642706   0.000000
     4  O    1.639463   2.672091   2.681775   0.000000
     5  O    1.634760   2.751143   2.690651   2.641031   0.000000
     6  H    2.217020   2.877521   3.079083   3.493973   0.969985
     7  H    2.217918   3.220437   3.463076   0.968677   2.649543
     8  H    2.221148   3.475740   0.967431   2.766585   3.108004
     9  Si   3.299995   2.623165   4.535313   4.344928   2.915812
    10  O    4.165851   2.897737   5.368210   4.989592   4.293333
    11  O    2.909803   2.832424   4.459381   3.408836   2.345537
    12  O    4.680210   4.219315   5.800032   5.752573   3.833975
    13  O    2.728159   2.175245   3.430292   4.214242   2.590870
    14  H    2.203511   1.440189   2.736499   3.704153   2.670958
    15  H    4.746461   4.615181   5.802107   5.818439   3.607371
    16  H    5.079219   3.818539   6.228039   5.945543   5.073222
    17  H    2.338522   2.343259   3.969034   2.547229   2.259263
    18  H    2.233487   0.973574   2.800146   2.959379   3.603536
                    6          7          8          9         10
     6  H    0.000000
     7  H    3.544716   0.000000
     8  H    3.653164   3.511813   0.000000
     9  Si   2.427786   4.343083   5.339883   0.000000
    10  O    3.949102   5.074456   6.231139   1.643168   0.000000
    11  O    2.371337   3.095735   5.052540   1.648058   2.693900
    12  O    3.116798   5.613670   6.563482   1.639967   2.677388
    13  O    1.944342   4.512394   4.318589   1.642826   2.671502
    14  H    2.329822   4.189326   3.681068   2.273122   2.925163
    15  H    2.854723   5.613327   6.478741   2.219927   3.542593
    16  H    4.614603   5.994998   7.111851   2.216200   0.967832
    17  H    2.603094   2.277380   4.506927   2.229350   2.967798
    18  H    3.785143   3.666086   3.587965   3.484285   3.418530
                   11         12         13         14         15
    11  O    0.000000
    12  O    2.642983   0.000000
    13  O    2.760449   2.652187   0.000000
    14  H    3.102568   3.565775   0.995269   0.000000
    15  H    2.822100   0.966870   2.948905   3.897090   0.000000
    16  H    3.398877   2.663535   3.255106   3.651439   3.619441
    17  H    0.963008   3.516362   3.001220   3.029379   3.727587
    18  H    3.730463   5.083489   2.950098   2.066024   5.539062
                   16         17         18
    16  H    0.000000
    17  H    3.820662   0.000000
    18  H    4.301942   3.146721   0.000000
 Stoichiometry    H8O8Si2
 Framework group  C1[X(H8O8Si2)]
 Deg. of freedom    48
 Full point group                 C1      NOp   1
 Largest Abelian subgroup         C1      NOp   1
 Largest concise Abelian subgroup C1      NOp   1
                         Standard orientation:                         
 ---------------------------------------------------------------------
 Center     Atomic      Atomic             Coordinates (Angstroms)
 Number     Number       Type             X           Y           Z
 ---------------------------------------------------------------------
      1         14           0       -1.643134   -0.008703   -0.012343
      2          8           0       -0.627415    1.241734    0.359471
      3          8           0       -2.699338    0.555320   -1.130451
      4          8           0       -2.451578   -0.443194    1.346140
      5          8           0       -0.869323   -1.336063   -0.570706
      6          1           0       -0.132030   -1.144101   -1.171056
      7          1           0       -2.110551   -1.245544    1.768361
      8          1           0       -3.560928    0.115358   -1.125975
      9         14           0        1.656803    0.001991    0.003974
     10          8           0        2.218653    1.256665    0.904040
     11          8           0        0.876840   -1.078233    0.973957
     12          8           0        2.924085   -0.789187   -0.672432
     13          8           0        0.729665    0.598339   -1.214083
     14          1           0       -0.039502    1.173695   -0.953493
     15          1           0        2.684430   -1.607889   -1.127549
     16          1           0        3.163050    1.429491    0.781796
     17          1           0        0.077879   -0.740057    1.391908
     18          1           0       -1.086424    2.069972    0.585694
 ---------------------------------------------------------------------
 Rotational constants (GHZ):           1.9338306           0.6461923           0.6394753
 Standard basis: 6-31+G(d,p) (6D, 7F)
 There are   238 symmetry adapted cartesian basis functions of A   symmetry.
 There are   238 symmetry adapted basis functions of A   symmetry.
   238 basis functions,   424 primitive gaussians,   238 cartesian basis functions
    50 alpha electrons       50 beta electrons
       nuclear repulsion energy       916.7185686391 Hartrees.
 NAtoms=   18 NActive=   18 NUniq=   18 SFac= 1.00D+00 NAtFMM=   60 NAOKFM=F Big=F
 Integral buffers will be    131072 words long.
 Raffenetti 2 integral format.
 Two-electron integral symmetry is turned on.
 Nuclear repulsion after empirical dispersion term =      916.7014613964 Hartrees.
 One-electron integrals computed using PRISM.
 NBasis=   238 RedAO= T EigKep=  1.90D-04  NBF=   238
 NBsUse=   238 1.00D-06 EigRej= -1.00D+00 NBFU=   238
 Initial guess from the checkpoint file:  "/localscratch/sarashs.36560085.0/Gau-12523.chk"
 B after Tr=     0.000000   -0.000000    0.000000
         Rot=    0.992511   -0.120122    0.012112   -0.018578 Ang= -14.03 deg.
 ExpMin= 3.31D-02 ExpMax= 1.61D+04 ExpMxC= 2.43D+03 IAcc=3 IRadAn=         5 AccDes= 0.00D+00
 Harris functional with IExCor=  402 and IRadAn=       5 diagonalized for initial guess.
 HarFok:  IExCor=  402 AccDes= 0.00D+00 IRadAn=         5 IDoV= 1 UseB2=F ITyADJ=14
 ICtDFT=  3500011 ScaDFX=  1.000000  1.000000  1.000000  1.000000
 FoFCou: FMM=F IPFlag=           0 FMFlag=      100000 FMFlg1=           0
         NFxFlg=           0 DoJE=T BraDBF=F KetDBF=T FulRan=T
         wScrn=  0.000000 ICntrl=       500 IOpCl=  0 I1Cent=   200000004 NGrid=           0
         NMat0=    1 NMatS0=      1 NMatT0=    0 NMatD0=    1 NMtDS0=    0 NMtDT0=    0
 Petite list used in FoFCou.
 Requested convergence on RMS density matrix=1.00D-08 within 128 cycles.
 Requested convergence on MAX density matrix=1.00D-06.
 Requested convergence on             energy=1.00D-06.
 No special actions if energy rises.
 SCF Done:  E(RB3LYP) =  -1185.97097820     A.U. after   12 cycles
            NFock= 12  Conv=0.64D-08     -V/T= 2.0059
 Calling FoFJK, ICntrl=      2127 FMM=F ISym2X=0 I1Cent= 0 IOpClX= 0 NMat=1 NMatS=1 NMatT=0.
 ***** Axes restored to original set *****
 -------------------------------------------------------------------
 Center     Atomic                   Forces (Hartrees/Bohr)
 Number     Number              X              Y              Z
 -------------------------------------------------------------------
      1       14          -0.043755825    0.008186671   -0.006429022
      2        8           0.001176555    0.041949451    0.051940241
      3        8           0.000826886    0.011048329    0.005794651
      4        8          -0.002875296   -0.009295363    0.006196649
      5        8          -0.026233386    0.017933263   -0.003600255
      6        1          -0.007281177    0.006326331    0.000427055
      7        1          -0.003566443    0.004513123    0.002445524
      8        1           0.002620611    0.000642616   -0.002948901
      9       14           0.023624227   -0.000992746    0.003378409
     10        8           0.012235946   -0.006402390   -0.001493259
     11        8           0.019719591   -0.017200755    0.012214896
     12        8          -0.005156334   -0.004728797   -0.004016919
     13        8          -0.000805204   -0.010312012   -0.051440175
     14        1           0.020698168   -0.022998638   -0.022747308
     15        1           0.004431015   -0.002517959   -0.000889501
     16        1          -0.001090786    0.002421841    0.003295806
     17        1           0.005206001   -0.012518131    0.003335305
     18        1           0.000225450   -0.006054836    0.004536804
 -------------------------------------------------------------------
 Cartesian Forces:  Max     0.051940241 RMS     0.016175832

 GradGradGradGradGradGradGradGradGradGradGradGradGradGradGradGradGradGrad
 Berny optimization.
 Using GEDIIS/GDIIS optimizer.
 FormGI is forming the generalized inverse of G from B-inverse, IUseBI=4.
 Internal  Forces:  Max     0.102342463 RMS     0.027213885
 Search for a local minimum.
 Step number   2 out of a maximum of   81
 All quantities printed in internal units (Hartrees-Bohrs-Radians)
 Mixed Optimization -- RFO/linear search
 Update second derivatives using D2CorX and points    1    2
 DE= -4.12D-02 DEPred=-1.05D-01 R= 3.91D-01
 Trust test= 3.91D-01 RLast= 4.06D-01 DXMaxT set to 3.00D-01
 ITU=  0  0
 Use linear search instead of GDIIS.
     Eigenvalues ---    0.00722   0.03705   0.03827   0.03844   0.03851
     Eigenvalues ---    0.03865   0.03873   0.03876   0.03890   0.06141
     Eigenvalues ---    0.08547   0.09977   0.10303   0.11260   0.12007
     Eigenvalues ---    0.12453   0.12828   0.14186   0.15942   0.15993
     Eigenvalues ---    0.16000   0.16000   0.16000   0.16000   0.16000
     Eigenvalues ---    0.17859   0.20020   0.20491   0.20588   0.21027
     Eigenvalues ---    0.41641   0.43723   0.44140   0.44564   0.44676
     Eigenvalues ---    0.44832   0.44972   0.44994   0.50328   0.53063
     Eigenvalues ---    0.53118   0.53219   0.53404   0.53472   0.53566
     Eigenvalues ---    0.53814   1.103361000.000001000.000001000.00000
     Eigenvalues --- 1000.000001000.000001000.000001000.000001000.00000
     Eigenvalues --- 1000.000001000.000001000.000001000.000001000.00000
     Eigenvalues --- 1000.000001000.000001000.000001000.000001000.00000
     Eigenvalues --- 1000.000001000.000001000.000001000.000001000.00000
     Eigenvalues --- 1000.00000
 RFO step:  Lambda=-1.13610967D-01 EMin= 7.21993417D-03
 Quartic linear search produced a step of -0.17218.
 Maximum step size (   0.300) exceeded in Quadratic search.
    -- Step size scaled by   0.518
 Iteration  1 RMS(Cart)=  0.19644536 RMS(Int)=  0.00937427
 Iteration  2 RMS(Cart)=  0.02035618 RMS(Int)=  0.00053211
 Iteration  3 RMS(Cart)=  0.00019848 RMS(Int)=  0.00052657
 Iteration  4 RMS(Cart)=  0.00000008 RMS(Int)=  0.00052657
 Iteration  1 RMS(Cart)=  0.00008368 RMS(Int)=  0.00000853
 Iteration  2 RMS(Cart)=  0.00000546 RMS(Int)=  0.00000879
 Iteration  3 RMS(Cart)=  0.00000036 RMS(Int)=  0.00000883
 Variable       Old X    -DE/DX   Delta X   Delta X   Delta X     New X
                                 (Linear)    (Quad)   (Total)
    R1        3.12435   0.02250  -0.00259   0.01517   0.01279   3.13714
    R2        3.09584   0.00776  -0.00106   0.01019   0.00913   3.10497
    R3        3.09814   0.01089  -0.00118   0.01282   0.01164   3.10978
    R4        3.08925  -0.00706   0.00011  -0.00514  -0.00503   3.08422
    R5        6.23609   0.08840  -0.00000   0.00000  -0.00000   6.23609
    R6        2.72156   0.03351  -0.02322   0.12644   0.10333   2.82490
    R7        1.83979  -0.00301  -0.00072   0.00179   0.00107   1.84086
    R8        1.82818  -0.00299   0.00053  -0.00428  -0.00376   1.82442
    R9        1.83053  -0.00268   0.00038  -0.00340  -0.00302   1.82752
   R10        1.83301  -0.00561   0.00039  -0.00510  -0.00472   1.82829
   R11        3.10514   0.00987  -0.00187   0.01551   0.01364   3.11878
   R12        3.11438   0.00212  -0.00329   0.01723   0.01394   3.12832
   R13        3.09909   0.00850  -0.00100   0.01038   0.00939   3.10847
   R14        3.10449   0.00742  -0.00065  -0.00310  -0.00359   3.10091
   R15        1.82894  -0.00336   0.00055  -0.00458  -0.00404   1.82490
   R16        1.81982  -0.00733   0.00234  -0.01564  -0.01330   1.80652
   R17        1.82712  -0.00261   0.00032  -0.00305  -0.00273   1.82439
   R18        1.88078  -0.00040  -0.00735   0.02322   0.01610   1.89688
    A1        1.86416  -0.02981   0.00622  -0.06489  -0.05847   1.80569
    A2        1.89340  -0.00953   0.00309  -0.02192  -0.01973   1.87367
    A3        1.98243   0.06002  -0.01302   0.13322   0.12046   2.10289
    A4        1.91650   0.00871  -0.00112   0.00712   0.00480   1.92130
    A5        1.93008  -0.01689  -0.00015  -0.02238  -0.02157   1.90851
    A6        1.87680  -0.01268   0.00505  -0.03236  -0.02805   1.84875
    A7        1.58083  -0.02729  -0.01691  -0.00058  -0.01706   1.56377
    A8        1.98889  -0.02078  -0.00507   0.01890   0.01357   2.00246
    A9        2.03140   0.02775   0.00448   0.02865   0.03363   2.06503
   A10        1.99814   0.00441  -0.00094   0.00984   0.00891   2.00705
   A11        1.99005   0.00861  -0.00065   0.01431   0.01366   2.00371
   A12        1.99380  -0.00133   0.00134  -0.00738  -0.00604   1.98777
   A13        1.91762  -0.02172  -0.00016  -0.02626  -0.02784   1.88979
   A14        1.90718   0.00412   0.00034  -0.00548  -0.00657   1.90061
   A15        1.89856  -0.01362   0.00176  -0.02457  -0.02404   1.87452
   A16        1.86738  -0.01543   0.00889  -0.05601  -0.04684   1.82053
   A17        1.99021   0.06486  -0.01733   0.15788   0.14079   2.13100
   A18        1.88118  -0.01952   0.00678  -0.05081  -0.04361   1.83757
   A19        1.98320   0.00470  -0.00159   0.01294   0.01135   1.99455
   A20        2.00194   0.01112  -0.00324   0.02847   0.02522   2.02716
   A21        1.99447   0.00812  -0.00156   0.01741   0.01585   2.01032
   A22        2.03965  -0.06997  -0.01304  -0.11021  -0.12271   1.91694
   A23        2.19136  -0.04176  -0.02623   0.02116  -0.00454   2.18682
    D1       -1.20134  -0.02050   0.00360  -0.06181  -0.05709  -1.25843
    D2        0.88254  -0.00879  -0.00028  -0.02494  -0.02445   0.85809
    D3        3.01698  -0.00960  -0.00034  -0.02353  -0.02384   2.99314
    D4       -1.18232   0.00211  -0.00422   0.01334   0.00880  -1.17352
    D5        0.93120  -0.02492  -0.00055  -0.05169  -0.05286   0.87834
    D6        3.01508  -0.01321  -0.00443  -0.01481  -0.02022   2.99486
    D7       -2.65530   0.02191  -0.00620   0.05385   0.04778  -2.60751
    D8       -0.60559  -0.00158   0.00050  -0.00491  -0.00425  -0.60984
    D9        1.46279  -0.02214   0.00594  -0.05408  -0.04843   1.41436
   D10       -1.78375  -0.03362   0.00657  -0.07600  -0.06912  -1.85287
   D11        2.46805   0.00268  -0.00210   0.01022   0.00830   2.47635
   D12        0.36705   0.02571  -0.00434   0.05269   0.04787   0.41492
   D13       -0.69529   0.00424   0.00031   0.00210   0.00245  -0.69284
   D14        1.40030  -0.00516  -0.00053  -0.00623  -0.00681   1.39348
   D15       -2.79050  -0.01216   0.00117  -0.03046  -0.02928  -2.81978
   D16       -1.53741  -0.05959  -0.02074   0.00907  -0.01192  -1.54933
   D17        2.69894  -0.02778  -0.00656  -0.01994  -0.02685   2.67209
   D18        2.21427  -0.02895   0.01044  -0.08368  -0.07249   2.14178
   D19        0.17044  -0.00013  -0.00052   0.00248   0.00191   0.17234
   D20       -1.87908   0.02873  -0.00999   0.08058   0.06988  -1.80920
   D21        1.13038   0.00361  -0.00278   0.01735   0.01443   1.14481
   D22       -3.08426  -0.01219   0.00291  -0.03582  -0.03191  -3.11617
   D23       -1.00605  -0.00827   0.00642  -0.04295  -0.03739  -1.04343
   D24        3.01355  -0.00272  -0.00018  -0.00282  -0.00299   3.01056
   D25        0.93822   0.02966  -0.00549   0.06323   0.05771   0.99594
   D26       -1.20920  -0.02778   0.00616  -0.06397  -0.05780  -1.26700
   D27       -0.98627  -0.01604  -0.00287  -0.03267  -0.03573  -1.02200
   D28        1.16056  -0.00938  -0.01300   0.02452   0.01254   1.17310
   D29       -3.05225  -0.00256  -0.00829   0.01575   0.00663  -3.04562
   D30       -0.30999  -0.10234  -0.03359  -0.06200  -0.09612  -0.40611
         Item               Value     Threshold  Converged?
 Maximum Force            0.092484     0.000450     NO 
 RMS     Force            0.025138     0.000300     NO 
 Maximum Displacement     0.581991     0.001800     NO 
 RMS     Displacement     0.209566     0.001200     NO 
 Predicted change in Energy=-5.527148D-02
 GradGradGradGradGradGradGradGradGradGradGradGradGradGradGradGradGradGrad

                          Input orientation:                          
 ---------------------------------------------------------------------
 Center     Atomic      Atomic             Coordinates (Angstroms)
 Number     Number       Type             X           Y           Z
 ---------------------------------------------------------------------
      1         14           0       -5.697622   -0.863157   -0.511597
      2          8           0       -4.050738   -0.855911   -0.302631
      3          8           0       -6.018677    0.647766   -1.071720
      4          8           0       -6.379625   -1.072823    0.971303
      5          8           0       -6.403466   -1.963457   -1.488768
      6          1           0       -5.908749   -2.140575   -2.301122
      7          1           0       -6.752440   -1.951673    1.125811
      8          1           0       -6.885130    0.997397   -0.828619
      9         14           0       -3.337730   -2.978624   -1.431204
     10          8           0       -1.869653   -2.591117   -0.784399
     11          8           0       -4.287041   -3.602860   -0.227209
     12          8           0       -3.143121   -4.227318   -2.484152
     13          8           0       -3.819481   -1.708102   -2.351170
     14          1           0       -3.872916   -0.879791   -1.786695
     15          1           0       -3.961750   -4.603336   -2.831290
     16          1           0       -1.120419   -3.025763   -1.211366
     17          1           0       -4.525753   -3.000823    0.475961
     18          1           0       -3.706009   -0.090642    0.191817
 ---------------------------------------------------------------------
                    Distance matrix (angstroms):
                    1          2          3          4          5
     1  Si   0.000000
     2  O    1.660104   0.000000
     3  O    1.643077   2.593324   0.000000
     4  O    1.645625   2.663394   2.695302   0.000000
     5  O    1.632097   2.858131   2.672168   2.616438   0.000000
     6  H    2.208794   3.016046   3.049321   3.474274   0.967489
     7  H    2.231282   3.246588   3.482045   0.967079   2.637792
     8  H    2.229874   3.427126   0.965443   2.789456   3.071556
     9  Si   3.299995   2.507582   4.524092   4.319402   3.229956
    10  O    4.208755   2.828458   5.271368   5.072234   4.630935
    11  O    3.094607   2.758125   4.666861   3.495201   2.959464
    12  O    4.661976   4.116939   5.833543   5.689109   4.092151
    13  O    2.761408   2.230746   3.467503   4.242257   2.736042
    14  H    2.226140   1.494871   2.729269   3.731943   2.768894
    15  H    4.731085   4.521640   5.907716   5.724539   3.838398
    16  H    5.110512   3.757769   6.124317   6.019740   5.395928
    17  H    2.630241   2.330771   4.235132   2.720182   2.908968
    18  H    2.249020   0.974142   2.736824   2.953049   3.688913
                    6          7          8          9         10
     6  H    0.000000
     7  H    3.534313   0.000000
     8  H    3.601174   3.540398   0.000000
     9  Si   2.840637   4.387847   5.362452   0.000000
    10  O    4.337941   5.281989   6.167204   1.650385   0.000000
    11  O    3.011532   3.261177   5.317342   1.655434   2.679151
    12  O    3.469393   5.589059   6.636344   1.644934   2.681051
    13  O    2.134146   4.555325   4.363037   1.640929   2.652606
    14  H    2.449250   4.233590   3.676299   2.194971   2.818918
    15  H    3.183877   5.520681   6.627597   2.233681   3.551853
    16  H    4.989913   6.191586   7.040185   2.228682   0.965696
    17  H    3.219456   2.545812   4.822277   2.247036   2.968373
    18  H    3.907561   3.690058   3.511684   3.333207   3.252319
                   11         12         13         14         15
    11  O    0.000000
    12  O    2.606202   0.000000
    13  O    2.884429   2.611818   0.000000
    14  H    3.165217   3.496424   1.003787   0.000000
    15  H    2.808558   0.965426   2.938219   3.868314   0.000000
    16  H    3.365873   2.674891   3.212525   3.537293   3.631261
    17  H    0.955971   3.489732   3.187887   3.169320   3.718072
    18  H    3.584530   4.958804   3.015931   2.136615   5.437737
                   16         17         18
    16  H    0.000000
    17  H    3.800526   0.000000
    18  H    4.155615   3.036754   0.000000
 Stoichiometry    H8O8Si2
 Framework group  C1[X(H8O8Si2)]
 Deg. of freedom    48
 Full point group                 C1      NOp   1
 Largest Abelian subgroup         C1      NOp   1
 Largest concise Abelian subgroup C1      NOp   1
                         Standard orientation:                         
 ---------------------------------------------------------------------
 Center     Atomic      Atomic             Coordinates (Angstroms)
 Number     Number       Type             X           Y           Z
 ---------------------------------------------------------------------
      1         14           0       -1.648992   -0.016095   -0.015666
      2          8           0       -0.540759    1.088241    0.539498
      3          8           0       -2.691018    0.898165   -0.897717
      4          8           0       -2.418542   -0.641806    1.297483
      5          8           0       -1.167387   -1.297051   -0.905019
      6          1           0       -0.471831   -1.090456   -1.544983
      7          1           0       -2.162216   -1.546049    1.525262
      8          1           0       -3.601193    0.576697   -0.915582
      9         14           0        1.650949   -0.003169   -0.001989
     10          8           0        2.263610    1.260330    0.865183
     11          8           0        1.036661   -1.113262    1.061405
     12          8           0        2.890197   -0.791839   -0.742308
     13          8           0        0.750897    0.628260   -1.220124
     14          1           0        0.020557    1.203247   -0.841203
     15          1           0        2.647614   -1.615459   -1.183729
     16          1           0        3.197017    1.441939    0.696837
     17          1           0        0.280822   -0.831700    1.574545
     18          1           0       -0.927418    1.883166    0.948819
 ---------------------------------------------------------------------
 Rotational constants (GHZ):           1.8502985           0.6333461           0.6256677
 Standard basis: 6-31+G(d,p) (6D, 7F)
 There are   238 symmetry adapted cartesian basis functions of A   symmetry.
 There are   238 symmetry adapted basis functions of A   symmetry.
   238 basis functions,   424 primitive gaussians,   238 cartesian basis functions
    50 alpha electrons       50 beta electrons
       nuclear repulsion energy       905.9227123322 Hartrees.
 NAtoms=   18 NActive=   18 NUniq=   18 SFac= 1.00D+00 NAtFMM=   60 NAOKFM=F Big=F
 Integral buffers will be    131072 words long.
 Raffenetti 2 integral format.
 Two-electron integral symmetry is turned on.
 Nuclear repulsion after empirical dispersion term =      905.9055238511 Hartrees.
 One-electron integrals computed using PRISM.
 NBasis=   238 RedAO= T EigKep=  2.29D-04  NBF=   238
 NBsUse=   238 1.00D-06 EigRej= -1.00D+00 NBFU=   238
 Initial guess from the checkpoint file:  "/localscratch/sarashs.36560085.0/Gau-12523.chk"
 B after Tr=     0.000000    0.000000   -0.000000
         Rot=    0.998535   -0.051999   -0.011540    0.009509 Ang=  -6.20 deg.
 ExpMin= 3.31D-02 ExpMax= 1.61D+04 ExpMxC= 2.43D+03 IAcc=3 IRadAn=         5 AccDes= 0.00D+00
 Harris functional with IExCor=  402 and IRadAn=       5 diagonalized for initial guess.
 HarFok:  IExCor=  402 AccDes= 0.00D+00 IRadAn=         5 IDoV= 1 UseB2=F ITyADJ=14
 ICtDFT=  3500011 ScaDFX=  1.000000  1.000000  1.000000  1.000000
 FoFCou: FMM=F IPFlag=           0 FMFlag=      100000 FMFlg1=           0
         NFxFlg=           0 DoJE=T BraDBF=F KetDBF=T FulRan=T
         wScrn=  0.000000 ICntrl=       500 IOpCl=  0 I1Cent=   200000004 NGrid=           0
         NMat0=    1 NMatS0=      1 NMatT0=    0 NMatD0=    1 NMtDS0=    0 NMtDT0=    0
 Petite list used in FoFCou.
 Requested convergence on RMS density matrix=1.00D-08 within 128 cycles.
 Requested convergence on MAX density matrix=1.00D-06.
 Requested convergence on             energy=1.00D-06.
 No special actions if energy rises.
 SCF Done:  E(RB3LYP) =  -1186.00171615     A.U. after   11 cycles
            NFock= 11  Conv=0.62D-08     -V/T= 2.0062
 Calling FoFJK, ICntrl=      2127 FMM=F ISym2X=0 I1Cent= 0 IOpClX= 0 NMat=1 NMatS=1 NMatT=0.
 ***** Axes restored to original set *****
 -------------------------------------------------------------------
 Center     Atomic                   Forces (Hartrees/Bohr)
 Number     Number              X              Y              Z
 -------------------------------------------------------------------
      1       14          -0.040282884    0.016793278    0.008922296
      2        8           0.001334286    0.027723713    0.041052236
      3        8           0.002408568    0.008136686    0.005970203
      4        8          -0.001080216   -0.006078273    0.003769952
      5        8           0.003943073   -0.006143414    0.000657601
      6        1          -0.000969099    0.000768515   -0.002465282
      7        1          -0.002480566    0.002978566    0.000799116
      8        1           0.000646722    0.000578183   -0.002861830
      9       14           0.028491406   -0.014111925   -0.001098140
     10        8           0.008597699   -0.003958628    0.000042049
     11        8          -0.006328797    0.000401216   -0.007423050
     12        8          -0.002722817   -0.005035333   -0.003382445
     13        8          -0.014138469    0.007876890   -0.026875370
     14        1           0.018971411   -0.023639713   -0.029310079
     15        1           0.003512652   -0.001944726   -0.000354257
     16        1          -0.000588545    0.001359694    0.001634875
     17        1           0.002278853    0.000223388    0.009328647
     18        1          -0.001593277   -0.005928115    0.001593477
 -------------------------------------------------------------------
 Cartesian Forces:  Max     0.041052236 RMS     0.012796704

 GradGradGradGradGradGradGradGradGradGradGradGradGradGradGradGradGradGrad
 Berny optimization.
 Using GEDIIS/GDIIS optimizer.
 FormGI is forming the generalized inverse of G from B-inverse, IUseBI=4.
 Internal  Forces:  Max     0.048608617 RMS     0.008839350
 Search for a local minimum.
 Step number   3 out of a maximum of   81
 All quantities printed in internal units (Hartrees-Bohrs-Radians)
 Mixed Optimization -- RFO/linear search
 Update second derivatives using D2CorX and points    2    3
 DE= -3.07D-02 DEPred=-5.53D-02 R= 5.56D-01
 TightC=F SS=  1.41D+00  RLast= 3.56D-01 DXNew= 5.0454D-01 1.0666D+00
 Trust test= 5.56D-01 RLast= 3.56D-01 DXMaxT set to 5.05D-01
 ITU=  1  0  0
 Use linear search instead of GDIIS.
     Eigenvalues ---    0.00645   0.03789   0.03834   0.03844   0.03851
     Eigenvalues ---    0.03864   0.03875   0.03881   0.03891   0.06229
     Eigenvalues ---    0.09210   0.09723   0.10521   0.11700   0.12866
     Eigenvalues ---    0.13406   0.13731   0.14490   0.15981   0.15994
     Eigenvalues ---    0.16000   0.16000   0.16000   0.16000   0.16037
     Eigenvalues ---    0.19695   0.20031   0.20901   0.21249   0.32851
     Eigenvalues ---    0.41506   0.43843   0.44071   0.44554   0.44680
     Eigenvalues ---    0.44828   0.44981   0.45045   0.51164   0.53087
     Eigenvalues ---    0.53150   0.53397   0.53467   0.53564   0.53709
     Eigenvalues ---    0.53817   1.041741000.000001000.000001000.00000
     Eigenvalues --- 1000.000001000.000001000.000001000.000001000.00000
     Eigenvalues --- 1000.000001000.000001000.000001000.000001000.00000
     Eigenvalues --- 1000.000001000.000001000.000001000.000001000.00000
     Eigenvalues --- 1000.000001000.000001000.000001000.000001000.00000
     Eigenvalues --- 1000.00000
 RFO step:  Lambda=-1.26562449D-01 EMin= 6.44533966D-03
 Quartic linear search produced a step of  1.44957.
 Maximum step size (   0.505) exceeded in Quadratic search.
    -- Step size scaled by   0.945
 Iteration  1 RMS(Cart)=  0.22523274 RMS(Int)=  0.04520827
 Iteration  2 RMS(Cart)=  0.10179471 RMS(Int)=  0.01628742
 Iteration  3 RMS(Cart)=  0.02440767 RMS(Int)=  0.00517761
 Iteration  4 RMS(Cart)=  0.00032568 RMS(Int)=  0.00517620
 Iteration  5 RMS(Cart)=  0.00000301 RMS(Int)=  0.00517620
 Iteration  6 RMS(Cart)=  0.00000002 RMS(Int)=  0.00517620
 Iteration  1 RMS(Cart)=  0.00160818 RMS(Int)=  0.00015697
 Iteration  2 RMS(Cart)=  0.00009735 RMS(Int)=  0.00016137
 Iteration  3 RMS(Cart)=  0.00000589 RMS(Int)=  0.00016191
 Iteration  4 RMS(Cart)=  0.00000036 RMS(Int)=  0.00016195
 Variable       Old X    -DE/DX   Delta X   Delta X   Delta X     New X
                                 (Linear)    (Quad)   (Total)
    R1        3.13714   0.01110   0.01854   0.01962   0.03428   3.17142
    R2        3.10497   0.00636   0.01323   0.01811   0.03134   3.13631
    R3        3.10978   0.00599   0.01688   0.01409   0.03096   3.14074
    R4        3.08422   0.00342  -0.00729   0.01891   0.01162   3.09584
    R5        6.23609   0.03645  -0.00000   0.00000   0.00000   6.23609
    R6        2.82490   0.04861   0.14979   0.39913   0.54613   3.37103
    R7        1.84086  -0.00441   0.00156  -0.00947  -0.00791   1.83295
    R8        1.82442  -0.00109  -0.00545  -0.00190  -0.00735   1.81708
    R9        1.82752  -0.00163  -0.00438  -0.00354  -0.00792   1.81959
   R10        1.82829   0.00143  -0.00684   0.00881   0.00198   1.83026
   R11        3.11878   0.00717   0.01977   0.02125   0.04102   3.15980
   R12        3.12832   0.00347   0.02020   0.01906   0.03926   3.16758
   R13        3.10847   0.00778   0.01361   0.02252   0.03612   3.14460
   R14        3.10091   0.00688  -0.00520   0.01397   0.00641   3.10731
   R15        1.82490  -0.00179  -0.00585  -0.00381  -0.00966   1.81524
   R16        1.80652   0.00644  -0.01928   0.02156   0.00229   1.80881
   R17        1.82439  -0.00209  -0.00395  -0.00489  -0.00885   1.81555
   R18        1.89688   0.00299   0.02333   0.02152   0.04141   1.93829
    A1        1.80569  -0.00681  -0.08476  -0.05235  -0.13741   1.66828
    A2        1.87367   0.00537  -0.02860   0.03085  -0.00376   1.86991
    A3        2.10289  -0.00404   0.17462  -0.01294   0.16216   2.26505
    A4        1.92130  -0.00098   0.00696  -0.02818  -0.02555   1.89575
    A5        1.90851   0.00812  -0.03127   0.06256   0.03613   1.94464
    A6        1.84875  -0.00159  -0.04065  -0.00359  -0.04783   1.80092
    A7        1.56377   0.00469  -0.02474   0.07205   0.03178   1.59555
    A8        2.00246   0.00317   0.01967   0.11863   0.13502   2.13748
    A9        2.06503   0.00410   0.04875   0.03901   0.07560   2.14063
   A10        2.00705   0.00371   0.01291   0.02804   0.04095   2.04800
   A11        2.00371   0.00413   0.01980   0.02799   0.04779   2.05150
   A12        1.98777   0.00160  -0.00875   0.00749  -0.00127   1.98650
   A13        1.88979   0.00017  -0.04035   0.01888  -0.03680   1.85299
   A14        1.90061  -0.00446  -0.00952  -0.05851  -0.07413   1.82648
   A15        1.87452   0.00533  -0.03485   0.04325  -0.00464   1.86988
   A16        1.82053   0.00040  -0.06790  -0.02443  -0.08903   1.73151
   A17        2.13100  -0.00267   0.20409   0.01368   0.21454   2.34554
   A18        1.83757   0.00039  -0.06321  -0.00808  -0.06565   1.77192
   A19        1.99455   0.00235   0.01645   0.02029   0.03674   2.03129
   A20        2.02716   0.00515   0.03657   0.04327   0.07984   2.10700
   A21        2.01032   0.00607   0.02298   0.04546   0.06844   2.07876
   A22        1.91694  -0.01564  -0.17788  -0.14384  -0.33232   1.58462
   A23        2.18682   0.01822  -0.00657   0.16434   0.14816   2.33498
    D1       -1.25843  -0.00807  -0.08275  -0.15189  -0.23309  -1.49152
    D2        0.85809  -0.00006  -0.03544  -0.03694  -0.06411   0.79399
    D3        2.99314  -0.00605  -0.03456  -0.10861  -0.14681   2.84632
    D4       -1.17352   0.00196   0.01275   0.00635   0.02217  -1.15135
    D5        0.87834  -0.00567  -0.07662  -0.12143  -0.20604   0.67230
    D6        2.99486   0.00234  -0.02931  -0.00647  -0.03706   2.95780
    D7       -2.60751  -0.00330   0.06927  -0.01821   0.04925  -2.55826
    D8       -0.60984  -0.00104  -0.00616  -0.02161  -0.02499  -0.63483
    D9        1.41436   0.00119  -0.07020  -0.00582  -0.07698   1.33738
   D10       -1.85287  -0.00258  -0.10019  -0.04507  -0.14339  -1.99626
   D11        2.47635   0.00306   0.01202   0.01376   0.02681   2.50316
   D12        0.41492  -0.00515   0.06939  -0.04369   0.02279   0.43772
   D13       -0.69284   0.00154   0.00355  -0.01049  -0.00952  -0.70236
   D14        1.39348  -0.00368  -0.00988  -0.03722  -0.04409   1.34939
   D15       -2.81978  -0.00152  -0.04245  -0.04012  -0.08300  -2.90278
   D16       -1.54933   0.00888  -0.01728   0.26096   0.25197  -1.29736
   D17        2.67209   0.00117  -0.03892   0.06749   0.03055   2.70264
   D18        2.14178  -0.00082  -0.10507  -0.03826  -0.13619   2.00559
   D19        0.17234   0.00086   0.00276   0.01010   0.01183   0.18418
   D20       -1.80920  -0.00012   0.10130   0.02618   0.12137  -1.68783
   D21        1.14481  -0.00004   0.02091  -0.01200   0.00974   1.15455
   D22       -3.11617  -0.00487  -0.04626  -0.08247  -0.12252   3.04449
   D23       -1.04343  -0.00569  -0.05420  -0.10551  -0.16675  -1.21018
   D24        3.01056  -0.00246  -0.00433  -0.01928  -0.02267   2.98789
   D25        0.99594  -0.00086   0.08366  -0.00267   0.08067   1.07660
   D26       -1.26700   0.00183  -0.08378  -0.00043  -0.08483  -1.35183
   D27       -1.02200  -0.00481  -0.05179  -0.09169  -0.14801  -1.17001
   D28        1.17310  -0.00148   0.01818  -0.00968   0.01662   1.18972
   D29       -3.04562  -0.00233   0.00961  -0.04066  -0.03464  -3.08025
   D30       -0.40611  -0.00709  -0.13934  -0.12131  -0.24839  -0.65451
         Item               Value     Threshold  Converged?
 Maximum Force            0.047662     0.000450     NO 
 RMS     Force            0.007678     0.000300     NO 
 Maximum Displacement     0.670400     0.001800     NO 
 RMS     Displacement     0.279198     0.001200     NO 
 Predicted change in Energy=-1.957777D-02
 GradGradGradGradGradGradGradGradGradGradGradGradGradGradGradGradGradGrad

                          Input orientation:                          
 ---------------------------------------------------------------------
 Center     Atomic      Atomic             Coordinates (Angstroms)
 Number     Number       Type             X           Y           Z
 ---------------------------------------------------------------------
      1         14           0       -5.797982   -0.908929   -0.561073
      2          8           0       -4.158856   -0.892875   -0.201197
      3          8           0       -5.911176    0.717529   -0.871399
      4          8           0       -6.606749   -1.236794    0.853381
      5          8           0       -6.618383   -1.788705   -1.673184
      6          1           0       -6.155763   -1.878866   -2.519300
      7          1           0       -7.089647   -2.068062    0.907752
      8          1           0       -6.736318    1.154567   -0.641776
      9         14           0       -3.303013   -2.888217   -1.425661
     10          8           0       -1.731633   -2.501699   -1.004637
     11          8           0       -4.023915   -3.489356   -0.036915
     12          8           0       -3.170873   -4.303388   -2.291046
[...]

                          Input orientation:                          
 ---------------------------------------------------------------------
 Center     Atomic      Atomic             Coordinates (Angstroms)
 Number     Number       Type             X           Y           Z
 ---------------------------------------------------------------------
      1         14           0       -5.749413   -0.950799   -0.571530
      2          8           0       -4.283635   -0.178570   -0.315195
      3          8           0       -6.722501    0.386453   -0.757643
      4          8           0       -6.461460   -1.811690    0.628494
      5          8           0       -5.753600   -1.842387   -1.966860
      6          1           0       -5.310040   -1.423516   -2.718287
      7          1           0       -6.003450   -2.634015    0.847919
      8          1           0       -7.666399    0.255932   -0.613951
      9         14           0       -3.341846   -3.082335   -1.313245
     10          8           0       -1.911598   -3.816682   -0.921758
     11          8           0       -4.040423   -2.790419    0.166881
     12          8           0       -4.252749   -4.148275   -2.158406
     13          8           0       -2.997109   -1.722209   -2.194167
     14          1           0       -3.028125   -0.901288   -1.676654
     15          1           0       -5.139813   -3.824994   -2.365542
     16          1           0       -1.215733   -3.785701   -1.587272
     17          1           0       -3.441058   -2.404429    0.819339
     18          1           0       -4.421370    0.764116   -0.149172
 ---------------------------------------------------------------------
                    Distance matrix (angstroms):
                    1          2          3          4          5
     1  Si   0.000000
     2  O    1.676469   0.000000
     3  O    1.664266   2.542258   0.000000
     4  O    1.639574   2.881068   2.611771   0.000000
     5  O    1.655866   2.767143   2.714535   2.690329   0.000000
     6  H    2.241668   2.894520   3.019131   3.560532   0.967905
     7  H    2.216436   3.215558   3.495438   0.966508   2.934635
     8  H    2.265576   3.423615   0.963653   2.696406   3.145171
     9  Si   3.299995   3.211686   4.875450   3.888044   2.789488
    10  O    4.802580   4.385241   6.390467   5.208121   4.444217
    11  O    2.617269   2.667078   4.259202   2.651871   2.895962
    12  O    3.870663   4.376865   5.350287   4.254979   2.757964
    13  O    3.286822   2.751092   4.515374   4.469581   2.768457
    14  H    2.937542   1.988013   4.018864   4.234422   2.897948
    15  H    3.442541   4.270055   4.777711   3.842446   2.113389
    16  H    5.442669   4.903223   6.958422   6.026938   4.951040
    17  H    3.062035   2.636580   4.587348   3.083925   3.664239
    18  H    2.209755   0.967053   2.409994   3.376612   3.445676
                    6          7          8          9         10
     6  H    0.000000
     7  H    3.829354   0.000000
     8  H    3.577876   3.640639   0.000000
     9  Si   2.932510   3.457710   5.507703   0.000000
    10  O    4.528154   4.612344   7.056817   1.654732   0.000000
    11  O    3.435775   2.083687   4.799755   1.662528   2.601970
    12  O    2.975844   3.794197   5.782334   1.637153   2.668378
    13  O    2.390308   4.373073   5.311534   1.656746   2.680331
    14  H    2.562198   4.269470   4.897150   2.233261   3.211857
    15  H    2.433209   3.534209   5.109370   2.211686   3.536376
    16  H    4.860294   5.493521   7.674192   2.256140   0.963377
    17  H    4.119476   2.572816   5.194742   2.239936   2.713877
    18  H    3.489387   3.878719   3.317301   4.161205   5.280110
                   11         12         13         14         15
    11  O    0.000000
    12  O    2.701077   0.000000
    13  O    2.793586   2.731979   0.000000
    14  H    2.827045   3.503529   0.970924   0.000000
    15  H    2.948249   0.966591   3.007034   3.671764   0.000000
    16  H    3.470808   3.111450   2.792780   3.407725   4.000706
    17  H    0.966399   3.544969   3.121495   2.942775   3.879077
    18  H    3.588834   5.310089   3.520275   2.654789   5.146687
                   16         17         18
    16  H    0.000000
    17  H    3.556931   0.000000
    18  H    5.748484   3.455243   0.000000
 Stoichiometry    H8O8Si2
 Framework group  C1[X(H8O8Si2)]
 Deg. of freedom    48
 Full point group                 C1      NOp   1
 Largest Abelian subgroup         C1      NOp   1
 Largest concise Abelian subgroup C1      NOp   1
                         Standard orientation:                         
 ---------------------------------------------------------------------
 Center     Atomic      Atomic             Coordinates (Angstroms)
 Number     Number       Type             X           Y           Z
 ---------------------------------------------------------------------
      1         14           0       -1.621933   -0.033078    0.020981
      2          8           0       -1.107962    1.469049    0.559495
      3          8           0       -3.161466    0.373418   -0.463145
      4          8           0       -1.837323   -1.270005    1.075412
      5          8           0       -0.749521   -0.565007   -1.282031
      6          1           0       -0.538251    0.116943   -1.935598
      7          1           0       -1.015377   -1.621381    1.442942
      8          1           0       -3.796254   -0.348338   -0.531985
      9         14           0        1.677785   -0.020527   -0.019900
     10          8           0        3.115795    0.302705    0.732288
     11          8           0        0.663883   -0.404480    1.240491
     12          8           0        1.884712   -1.326168   -0.985691
     13          8           0        1.232968    1.324764   -0.878468
     14          1           0        0.567161    1.872632   -0.432110
     15          1           0        1.071120   -1.630561   -1.409614
     16          1           0        3.744982    0.844105    0.243304
     17          1           0        0.712144    0.205471    1.988527
     18          1           0       -1.856136    2.077393    0.632599
 ---------------------------------------------------------------------
 Rotational constants (GHZ):           1.8773913           0.6310920           0.6194167

 **********************************************************************

            Population analysis using the SCF Density.

 **********************************************************************

 Orbital symmetries:
       Occupied  (A) (A) (A) (A) (A) (A) (A) (A) (A) (A) (A) (A)
                 (A) (A) (A) (A) (A) (A) (A) (A) (A) (A) (A) (A)
                 (A) (A) (A) (A) (A) (A) (A) (A) (A) (A) (A) (A)
                 (A) (A) (A) (A) (A) (A) (A) (A) (A) (A) (A) (A)
                 (A) (A)
       Virtual   (A) (A) (A) (A) (A) (A) (A) (A) (A) (A) (A) (A)
                 (A) (A) (A) (A) (A) (A) (A) (A) (A) (A) (A) (A)
                 (A) (A) (A) (A) (A) (A) (A) (A) (A) (A) (A) (A)
                 (A) (A) (A) (A) (A) (A) (A) (A) (A) (A) (A) (A)
                 (A) (A) (A) (A) (A) (A) (A) (A) (A) (A) (A) (A)
                 (A) (A) (A) (A) (A) (A) (A) (A) (A) (A) (A) (A)
                 (A) (A) (A) (A) (A) (A) (A) (A) (A) (A) (A) (A)
                 (A) (A) (A) (A) (A) (A) (A) (A) (A) (A) (A) (A)
                 (A) (A) (A) (A) (A) (A) (A) (A) (A) (A) (A) (A)
                 (A) (A) (A) (A) (A) (A) (A) (A) (A) (A) (A) (A)
                 (A) (A) (A) (A) (A) (A) (A) (A) (A) (A) (A) (A)
                 (A) (A) (A) (A) (A) (A) (A) (A) (A) (A) (A) (A)
                 (A) (A) (A) (A) (A) (A) (A) (A) (A) (A) (A) (A)
                 (A) (A) (A) (A) (A) (A) (A) (A) (A) (A) (A) (A)
                 (A) (A) (A) (A) (A) (A) (A) (A) (A) (A) (A) (A)
                 (A) (A) (A) (A) (A) (A) (A) (A)
 The electronic state is 1-A.
 Alpha  occ. eigenvalues --  -66.23614 -66.22309 -19.18967 -19.18897 -19.18696
 Alpha  occ. eigenvalues --  -19.16873 -19.16608 -19.16494 -19.16045 -19.15922
 Alpha  occ. eigenvalues --   -5.36846  -5.35652  -3.72891  -3.72811  -3.72776
 Alpha  occ. eigenvalues --   -3.71709  -3.71620  -3.71552  -1.06731  -1.04701
 Alpha  occ. eigenvalues --   -1.03171  -1.02411  -1.01362  -1.00535  -1.00300
 Alpha  occ. eigenvalues --   -0.99972  -0.60578  -0.59777  -0.55491  -0.54678
 Alpha  occ. eigenvalues --   -0.53771  -0.53406  -0.52927  -0.51265  -0.44569
 Alpha  occ. eigenvalues --   -0.42822  -0.41447  -0.40994  -0.40269  -0.38371
 Alpha  occ. eigenvalues --   -0.38022  -0.37059  -0.36589  -0.36125  -0.35344
 Alpha  occ. eigenvalues --   -0.34240  -0.34138  -0.33660  -0.32816  -0.31750
 Alpha virt. eigenvalues --   -0.03646  -0.00407   0.00702   0.01180   0.02181
 Alpha virt. eigenvalues --    0.04134   0.05568   0.06460   0.08126   0.08642
 Alpha virt. eigenvalues --    0.10033   0.11314   0.11928   0.12459   0.13302
 Alpha virt. eigenvalues --    0.13951   0.14656   0.15144   0.15468   0.15534
 Alpha virt. eigenvalues --    0.16748   0.17006   0.17373   0.18101   0.18454
 Alpha virt. eigenvalues --    0.18892   0.19584   0.20983   0.21457   0.21851
 Alpha virt. eigenvalues --    0.22827   0.23336   0.23888   0.24162   0.25455
 Alpha virt. eigenvalues --    0.25688   0.26247   0.26987   0.27074   0.28085
 Alpha virt. eigenvalues --    0.28205   0.29283   0.29599   0.31184   0.31268
 Alpha virt. eigenvalues --    0.32134   0.33461   0.36006   0.36368   0.37195
 Alpha virt. eigenvalues --    0.39721   0.40118   0.40993   0.44003   0.45254
 Alpha virt. eigenvalues --    0.46314   0.48713   0.49896   0.52181   0.54210
 Alpha virt. eigenvalues --    0.55177   0.57558   0.61693   0.63538   0.64142
 Alpha virt. eigenvalues --    0.65400   0.70617   0.72796   0.90641   0.92372
 Alpha virt. eigenvalues --    0.93921   0.95776   0.96222   0.98537   0.98684
 Alpha virt. eigenvalues --    1.00080   1.02165   1.04176   1.07483   1.08944
 Alpha virt. eigenvalues --    1.10535   1.11291   1.13569   1.15481   1.16481
 Alpha virt. eigenvalues --    1.16874   1.18777   1.19576   1.20320   1.20814
 Alpha virt. eigenvalues --    1.21365   1.23162   1.23939   1.25009   1.25398
 Alpha virt. eigenvalues --    1.26818   1.28272   1.28374   1.29150   1.30263
 Alpha virt. eigenvalues --    1.31402   1.32748   1.34381   1.35329   1.38063
 Alpha virt. eigenvalues --    1.45541   1.47641   1.51874   1.53111   1.57214
 Alpha virt. eigenvalues --    1.58295   1.59071   1.60860   1.61320   1.62396
 Alpha virt. eigenvalues --    1.63442   1.64457   1.66890   1.67156   1.69154
 Alpha virt. eigenvalues --    1.71332   1.73151   1.73580   1.75498   1.79139
 Alpha virt. eigenvalues --    1.79557   1.82441   1.84095   1.86674   1.91506
 Alpha virt. eigenvalues --    1.94352   1.97037   1.99811   2.04709   2.07777
 Alpha virt. eigenvalues --    2.09619   2.10363   2.13636   2.35291   2.37351
 Alpha virt. eigenvalues --    2.39454   2.40102   2.41612   2.42047   2.43560
 Alpha virt. eigenvalues --    2.45433   2.48098   2.50337   2.58781   2.59724
 Alpha virt. eigenvalues --    2.60638   2.61649   2.62633   2.63495   2.63758
 Alpha virt. eigenvalues --    2.64789   2.65915   2.66787   2.67968   2.69665
 Alpha virt. eigenvalues --    2.71197   2.72726   2.74261   2.75763   2.76880
 Alpha virt. eigenvalues --    2.78303   2.79968   2.81681   2.84041   2.85187
 Alpha virt. eigenvalues --    3.03009   3.03506   3.40556   3.43703   3.44383
 Alpha virt. eigenvalues --    3.46282   3.50330   3.51198   3.55566   3.56125
 Alpha virt. eigenvalues --    4.21312   4.24034   4.24967   4.25987   4.32228
 Alpha virt. eigenvalues --    4.42908   4.53074   4.66226
          Condensed to atoms (all electrons):
               1          2          3          4          5          6
     1  Si  11.978676  -0.189869  -0.036067  -0.046509  -0.167901   0.041501
     2  O   -0.189869   8.950222   0.052985   0.037969   0.084410  -0.008104
     3  O   -0.036067   0.052985   8.759402  -0.062716  -0.031891  -0.003767
     4  O   -0.046509   0.037969  -0.062716   8.540794   0.182395   0.001495
     5  O   -0.167901   0.084410  -0.031891   0.182395   8.723635   0.269803
     6  H    0.041501  -0.008104  -0.003767   0.001495   0.269803   0.306459
     7  H    0.027709  -0.001562   0.009418   0.233419  -0.002437   0.000009
     8  H    0.035305   0.005972   0.238998  -0.001521  -0.007227   0.000051
     9  Si   0.152094  -0.000477   0.009824  -0.039394  -0.063169  -0.022582
    10  O    0.002952  -0.003988  -0.000616   0.001397  -0.014596  -0.000472
    11  O   -0.136254  -0.011444  -0.046769   0.058542   0.047876   0.000453
    12  O   -0.045394  -0.009115   0.000230   0.003377   0.031833   0.000267
    13  O   -0.022042  -0.017693  -0.003225  -0.008181   0.050147   0.006223
    14  H    0.005104   0.000398  -0.000879   0.000857  -0.009804  -0.000223
    15  H   -0.000589   0.000186  -0.000015   0.000087   0.012408  -0.001620
    16  H    0.000928   0.000229   0.000000   0.000012   0.000590  -0.000005
    17  H   -0.011952   0.008560   0.000282   0.000135   0.003983  -0.000002
    18  H    0.038044   0.197407   0.007932  -0.005858  -0.003511   0.000315
               7          8          9         10         11         12
     1  Si   0.027709   0.035305   0.152094   0.002952  -0.136254  -0.045394
     2  O   -0.001562   0.005972  -0.000477  -0.003988  -0.011444  -0.009115
     3  O    0.009418   0.238998   0.009824  -0.000616  -0.046769   0.000230
     4  O    0.233419  -0.001521  -0.039394   0.001397   0.058542   0.003377
     5  O   -0.002437  -0.007227  -0.063169  -0.014596   0.047876   0.031833
     6  H    0.000009   0.000051  -0.022582  -0.000472   0.000453   0.000267
     7  H    0.333134  -0.000012   0.002170  -0.000478  -0.008437  -0.000246
     8  H   -0.000012   0.353060   0.000317   0.000000   0.000434  -0.000019
     9  Si   0.002170   0.000317  11.959815  -0.051689  -0.285714  -0.134098
    10  O   -0.000478   0.000000  -0.051689   8.685697   0.072975  -0.069380
    11  O   -0.008437   0.000434  -0.285714   0.072975   8.953490   0.172543
    12  O   -0.000246  -0.000019  -0.134098  -0.069380   0.172543   8.643855
    13  O    0.000160   0.000053   0.015733  -0.001420   0.065275   0.097775
    14  H   -0.000008  -0.000003   0.034414  -0.004796  -0.005263   0.003665
    15  H   -0.000051  -0.000001   0.027442   0.004441  -0.000054   0.235701
    16  H   -0.000000  -0.000000   0.048823   0.218695   0.001182  -0.002868
    17  H    0.001006  -0.000001   0.031280   0.002863   0.254709   0.001010
    18  H    0.000027   0.000010   0.001506   0.000049   0.003323  -0.000027
              13         14         15         16         17         18
     1  Si  -0.022042   0.005104  -0.000589   0.000928  -0.011952   0.038044
     2  O   -0.017693   0.000398   0.000186   0.000229   0.008560   0.197407
     3  O   -0.003225  -0.000879  -0.000015   0.000000   0.000282   0.007932
     4  O   -0.008181   0.000857   0.000087   0.000012   0.000135  -0.005858
     5  O    0.050147  -0.009804   0.012408   0.000590   0.003983  -0.003511
     6  H    0.006223  -0.000223  -0.001620  -0.000005  -0.000002   0.000315
     7  H    0.000160  -0.000008  -0.000051  -0.000000   0.001006   0.000027
     8  H    0.000053  -0.000003  -0.000001  -0.000000  -0.000001   0.000010
     9  Si   0.015733   0.034414   0.027442   0.048823   0.031280   0.001506
    10  O   -0.001420  -0.004796   0.004441   0.218695   0.002863   0.000049
    11  O    0.065275  -0.005263  -0.000054   0.001182   0.254709   0.003323
    12  O    0.097775   0.003665   0.235701  -0.002868   0.001010  -0.000027
    13  O    8.575345   0.248945  -0.008303  -0.004675  -0.009286   0.002969
    14  H    0.248945   0.316392   0.000134   0.000156  -0.000030  -0.000367
    15  H   -0.008303   0.000134   0.327566  -0.000069  -0.000074   0.000000
    16  H   -0.004675   0.000156  -0.000069   0.369441   0.000162  -0.000000
    17  H   -0.009286  -0.000030  -0.000074   0.000162   0.317382  -0.000187
    18  H    0.002969  -0.000367   0.000000  -0.000000  -0.000187   0.331512
 Mulliken charges:
               1
     1  Si   2.374264
     2  O   -1.096086
     3  O   -0.893126
     4  O   -0.896299
     5  O   -1.106543
     6  H    0.410199
     7  H    0.406181
     8  H    0.374583
     9  Si   2.313706
    10  O   -0.841635
    11  O   -1.136866
    12  O   -0.929107
    13  O   -0.987799
    14  H    0.411309
    15  H    0.402810
    16  H    0.367398
    17  H    0.400157
    18  H    0.426854
 Sum of Mulliken charges =  -0.00000
 Mulliken charges with hydrogens summed into heavy atoms:
               1
     1  Si   2.374264
     2  O   -0.669232
     3  O   -0.518543
     4  O   -0.490118
     5  O   -0.696344
     9  Si   2.313706
    10  O   -0.474237
    11  O   -0.736709
    12  O   -0.526297
    13  O   -0.576490
 Electronic spatial extent (au):  <R**2>=           1952.9265
 Charge=             -0.0000 electrons
 Dipole moment (field-independent basis, Debye):
    X=             -1.6217    Y=              2.1424    Z=              0.2027  Tot=              2.6946
 Quadrupole moment (field-independent basis, Debye-Ang):
   XX=            -74.2200   YY=            -69.9596   ZZ=            -69.6542
   XY=              4.1431   XZ=              1.0074   YZ=              2.5893
 Traceless Quadrupole moment (field-independent basis, Debye-Ang):
   XX=             -2.9421   YY=              1.3183   ZZ=              1.6238
   XY=              4.1431   XZ=              1.0074   YZ=              2.5893
 Octapole moment (field-independent basis, Debye-Ang**2):
  XXX=             -7.8266  YYY=             11.7309  ZZZ=              3.0308  XYY=             -8.6644
  XXY=             16.0897  XXZ=            -11.2051  XZZ=             -4.4280  YZZ=             -0.3638
  YYZ=              5.3167  XYZ=             -6.2583
 Hexadecapole moment (field-independent basis, Debye-Ang**3):
 XXXX=          -1409.3052 YYYY=           -356.4440 ZZZZ=           -317.0902 XXXY=            129.1061
 XXXZ=            -11.5714 YYYX=            -20.1301 YYYZ=              8.6910 ZZZX=              9.4999
 ZZZY=              4.5291 XXYY=           -332.7851 XXZZ=           -366.4029 YYZZ=           -123.3684
 XXYZ=             22.8978 YYXZ=              3.7027 ZZXY=             -6.3692
 N-N= 9.006744754467D+02 E-N=-4.610994430366D+03  KE= 1.178381168716D+03
 1\1\GINC-GRA1308\FOpt\RB3LYP\6-31+G(d,p)\H8O8Si2\SARASHS\29-Jul-2020\0
 \\#n B3LYP/6-31+G(d,p) EmpiricalDispersion=GD3 Opt=modredundant\\Title
 \\0,1\Si,-5.7494125554,-0.9507988611,-0.5715302754\O,-4.2836348439,-0.
 1785698198,-0.3151950882\O,-6.722500545,0.3864526091,-0.7576433504\O,-
 6.4614603289,-1.8116902388,0.6284937287\O,-5.7536000363,-1.8423865783,
 -1.9668601957\H,-5.3100399186,-1.4235155371,-2.7182871514\H,-6.0034502
 494,-2.6340149264,0.8479189928\H,-7.666398528,0.2559316164,-0.61395109
 96\Si,-3.3418456413,-3.0823351684,-1.3132453609\O,-1.9115975357,-3.816
 6823764,-0.9217581149\O,-4.0404229367,-2.7904190323,0.1668813592\O,-4.
 2527492233,-4.1482754112,-2.15840623\O,-2.9971086675,-1.7222091339,-2.
 1941667776\H,-3.0281249948,-0.9012881341,-1.676653887\H,-5.1398129386,
 -3.8249942405,-2.3655418642\H,-1.2157334566,-3.7857012754,-1.587271974
 1\H,-3.4410578968,-2.4044292085,0.8193389206\H,-4.421369703,0.76411571
 67,-0.1491716319\\Version=ES64L-G16RevB.01\State=1-A\HF=-1186.0545296\
 RMSD=4.213e-09\RMSF=5.247e-03\Dipole=0.0952086,1.0484905,0.1244632\Qua
 drupole=3.018331,-3.5055811,0.48725,2.0303999,1.5369828,0.2306894\PG=C
 01 [X(H8O8Si2)]\\@


 A leading authority is anyone who has guessed right more than once.
 -- Frank A. Clark
 Job cpu time:       0 days  3 hours 45 minutes 56.8 seconds.
 Elapsed time:       0 days  0 hours 16 minutes 13.7 seconds.
 File lengths (MBytes):  RWF=     40 Int=      0 D2E=      0 Chk=      5 Scr=      1
 Normal termination of Gaussian 16 at Wed Jul 29 17:27:22 2020.
