 Entering Gaussian System, Link 0=g16
 Initial command:
 /opt/software/gaussian/g16.b01/l1.exe "/localscratch/sarashs.37136499.0/Gau-17249.inp" -scrdir="/localscratch/sarashs.37136499.0/"
 Entering Link 1 = /opt/software/gaussian/g16.b01/l1.exe PID=     17257.
  
 Copyright (c) 1988-2017, Gaussian, Inc.  All Rights Reserved.
  
 This is part of the Gaussian(R) 16 program.  It is based on
 the Gaussian(R) 09 system (copyright 2009, Gaussian, Inc.),
 the Gaussian(R) 03 system (copyright 2003, Gaussian, Inc.),
 the Gaussian(R) 98 system (copyright 1998, Gaussian, Inc.),
 the Gaussian(R) 94 system (copyright 1995, Gaussian, Inc.),
 the Gaussian 92(TM) system (copyright 1992, Gaussian, Inc.),
 the Gaussian 90(TM) system (copyright 1990, Gaussian, Inc.),
 the Gaussian 88(TM) system (copyright 1988, Gaussian, Inc.),
 the Gaussian 86(TM) system (copyright 1986, Carnegie Mellon
 University), and the Gaussian 82(TM) system (copyright 1983,
 Carnegie Mellon University). Gaussian is a federally registered
 trademark of Gaussian, Inc.
  
 This software contains proprietary and confidential information,
 including trade secrets, belonging to Gaussian, Inc.
  
 This software is provided under written license and may be
 used, copied, transmitted, or stored only in accord with that
 written license.
  
 The following legend is applicable only to US Government
 contracts under FAR:
  
                    RESTRICTED RIGHTS LEGEND
  
 Use, reproduction and disclosure by the US Government is
 subject to restrictions as set forth in subparagraphs (a)
 and (c) of the Commercial Computer Software - Restricted
 Rights clause in FAR 52.227-19.
  
 Gaussian, Inc.
 340 Quinnipiac St., Bldg. 40, Wallingford CT 06492
  
  
 ---------------------------------------------------------------
 Warning -- This program may not be used in any manner that
 competes with the business of Gaussian, Inc. or will provide
 assistance to any competitor of Gaussian, Inc.  The licensee
 of this program is prohibited from giving any competitor of
 Gaussian, Inc. access to this program.  By using this program,
 the user acknowledges that Gaussian, Inc. is engaged in the
 business of creating and licensing software in the field of
 computational chemistry and represents and warrants to the
 licensee that it is not a competitor of Gaussian, Inc. and that
 it will not use this program in any manner prohibited above.
 ---------------------------------------------------------------
  

 Cite this work as:
 Gaussian 16, Revision B.01,
 M. J. Frisch, G. W. Trucks, H. B. Schlegel, G. E. Scuseria, 
 M. A. Robb, J. R. Cheeseman, G. Scalmani, V. Barone, 
 G. A. Petersson, H. Nakatsuji, X. Li, M. Caricato, A. V. Marenich, 
 J. Bloino, B. G. Janesko, R. Gomperts, B. Mennucci, H. P. Hratchian, 
 J. V. Ortiz, A. F. Izmaylov, J. L. Sonnenberg, D. Williams-Young, 
 F. Ding, F. Lipparini, F. Egidi, J. Goings, B. Peng, A. Petrone, 
 T. Henderson, D. Ranasinghe, V. G. Zakrzewski, J. Gao, N. Rega, 
 G. Zheng, W. Liang, M. Hada, M. Ehara, K. Toyota, R. Fukuda, 
 J. Hasegawa, M. Ishida, T. Nakajima, Y. Honda, O. Kitao, H. Nakai, 
 T. Vreven, K. Throssell, J. A. Montgomery, Jr., J. E. Peralta, 
 F. Ogliaro, M. J. Bearpark, J. J. Heyd, E. N. Brothers, K. N. Kudin, 
 V. N. Staroverov, T. A. Keith, R. Kobayashi, J. Normand, 
 K. Raghavachari, A. P. Rendell, J. C. Burant, S. S. Iyengar, 
 J. Tomasi, M. Cossi, J. M. Millam, M. Klene, C. Adamo, R. Cammi, 
 J. W. Ochterski, R. L. Martin, K. Morokuma, O. Farkas, 
 J. B. Foresman, and D. J. Fox, Gaussian, Inc., Wallingford CT, 2016.
 
 ******************************************
 Gaussian 16:  ES64L-G16RevB.01 20-Dec-2017
                11-Aug-2020 
 ******************************************
 %NProcShared=16
 Will use up to   16 processors via shared memory.
 -------------------------------------------------------------
 #n B3LYP/6-31+G(d,p) EmpiricalDispersion=GD3 Opt=modredundant
 -------------------------------------------------------------
 1/18=120,19=15,26=3,38=1/1,3;
 2/9=110,12=2,17=6,18=5,40=1/2;
 3/5=1,6=6,7=111,11=2,25=1,30=1,71=1,74=-5,124=31/1,2,3;
 4//1;
 5/5=2,38=5/2;
 6/7=2,8=2,9=2,10=2,28=1/1;
 7//1,2,3,16;
 1/18=20,19=15,26=3/3(2);
 2/9=110/2;
 99//99;
 2/9=110/2;
 3/5=1,6=6,7=111,11=2,25=1,30=1,71=1,74=-5,124=31/1,2,3;
 4/5=5,16=3,69=1/1;
 5/5=2,38=5/2;
 7//1,2,3,16;
 1/18=20,19=15,26=3/3(-5);
 2/9=110/2;
 6/7=2,8=2,9=2,10=2,19=2,28=1/1;
 99/9=1/99;
 -----
 Title
 -----
 Symbolic Z-matrix:
 Charge =  0 Multiplicity = 1
 Si                   -1.97199   0.03198   0.02178 
 O                    -1.49839  -1.04281  -1.16096 
 O                    -3.61529   0.07731   0.01517 
 O                    -1.38578   1.53664  -0.16122 
 O                    -1.32513  -0.62357   1.41007 
 H                    -1.61852  -1.51781   1.62751 
 H                    -0.41713   1.65614  -0.27249 
 H                    -4.03179   0.8972    0.30533 
 Si                    2.52698  -0.04331  -0.03831 
 O                     4.16438   0.05651  -0.11455 
 O                     1.9258    1.49029  -0.37507 
 O                     2.11963  -0.48945   1.49408 
 O                     1.93413  -1.03708  -1.19287 
 H                     0.97481  -1.18094  -1.26466 
 H                     1.1672   -0.55956   1.68013 
 H                     4.6621   -0.57315   0.41867 
 H                     2.39308   2.21243   0.0641 
 H                    -1.95012  -0.97878  -2.01163 
 
 Add virtual bond connecting atoms O11        and H7         Dist= 4.44D+00.
 Add virtual bond connecting atoms H14        and O2         Dist= 4.69D+00.
 Add virtual bond connecting atoms H15        and O5         Dist= 4.74D+00.
 The following ModRedundant input section has been read:
 B       1       9 F                                                           
 

 GradGradGradGradGradGradGradGradGradGradGradGradGradGradGradGradGradGrad
 Berny optimization.
 Initialization pass.
                           ----------------------------
                           !    Initial Parameters    !
                           ! (Angstroms and Degrees)  !
 --------------------------                            --------------------------
 ! Name  Definition              Value          Derivative Info.                !
 --------------------------------------------------------------------------------
 ! R1    R(1,2)                  1.6668         estimate D2E/DX2                !
 ! R2    R(1,3)                  1.6439         estimate D2E/DX2                !
 ! R3    R(1,4)                  1.6252         estimate D2E/DX2                !
 ! R4    R(1,5)                  1.666          estimate D2E/DX2                !
 ! R5    R(1,9)                  4.5            Frozen                          !
 ! R6    R(2,14)                 2.4792         estimate D2E/DX2                !
 ! R7    R(2,18)                 0.9653         estimate D2E/DX2                !
 ! R8    R(3,8)                  0.9643         estimate D2E/DX2                !
 ! R9    R(4,7)                  0.9823         estimate D2E/DX2                !
 ! R10   R(5,6)                  0.9659         estimate D2E/DX2                !
 ! R11   R(5,15)                 2.5077         estimate D2E/DX2                !
 ! R12   R(7,11)                 2.351          estimate D2E/DX2                !
 ! R13   R(9,10)                 1.6422         estimate D2E/DX2                !
 ! R14   R(9,11)                 1.6813         estimate D2E/DX2                !
 ! R15   R(9,12)                 1.6472         estimate D2E/DX2                !
 ! R16   R(9,13)                 1.6346         estimate D2E/DX2                !
 ! R17   R(10,16)                0.9636         estimate D2E/DX2                !
 ! R18   R(11,17)                0.9658         estimate D2E/DX2                !
 ! R19   R(12,15)                0.973          estimate D2E/DX2                !
 ! R20   R(13,14)                0.9727         estimate D2E/DX2                !
 ! A1    A(2,1,3)              107.3944         estimate D2E/DX2                !
 ! A2    A(2,1,4)              114.4947         estimate D2E/DX2                !
 ! A3    A(2,1,5)              103.1351         estimate D2E/DX2                !
 ! A4    A(3,1,4)              109.5475         estimate D2E/DX2                !
 ! A5    A(3,1,5)              113.7235         estimate D2E/DX2                !
 ! A6    A(4,1,5)              108.5478         estimate D2E/DX2                !
 ! A7    A(1,2,14)             110.429          estimate D2E/DX2                !
 ! A8    A(1,2,18)             116.7164         estimate D2E/DX2                !
 ! A9    A(14,2,18)            115.7005         estimate D2E/DX2                !
 ! A10   A(1,3,8)              116.9996         estimate D2E/DX2                !
 ! A11   A(1,4,7)              118.7559         estimate D2E/DX2                !
 ! A12   A(1,5,6)              115.7177         estimate D2E/DX2                !
 ! A13   A(1,5,15)             117.7481         estimate D2E/DX2                !
 ! A14   A(6,5,15)             107.5333         estimate D2E/DX2                !
 ! A15   A(10,9,11)            106.9645         estimate D2E/DX2                !
 ! A16   A(10,9,12)            107.8322         estimate D2E/DX2                !
 ! A17   A(10,9,13)            111.4555         estimate D2E/DX2                !
 ! A18   A(11,9,12)            110.18           estimate D2E/DX2                !
 ! A19   A(11,9,13)            106.4622         estimate D2E/DX2                !
 ! A20   A(12,9,13)            113.7492         estimate D2E/DX2                !
 ! A21   A(9,10,16)            116.7181         estimate D2E/DX2                !
 ! A22   A(7,11,9)             114.327          estimate D2E/DX2                !
 ! A23   A(7,11,17)            114.1789         estimate D2E/DX2                !
 ! A24   A(9,11,17)            114.7059         estimate D2E/DX2                !
 ! A25   A(9,12,15)            116.0717         estimate D2E/DX2                !
 ! A26   A(9,13,14)            119.9823         estimate D2E/DX2                !
 ! A27   A(5,15,12)            162.5792         estimate D2E/DX2                !
 ! A28   L(4,7,11,2,-1)        171.015          estimate D2E/DX2                !
 ! A29   L(2,14,13,15,-1)      171.1246         estimate D2E/DX2                !
 ! A30   L(4,7,11,2,-2)        188.1044         estimate D2E/DX2                !
 ! A31   L(2,14,13,15,-2)      190.1735         estimate D2E/DX2                !
 ! D1    D(3,1,2,14)           179.4134         estimate D2E/DX2                !
 ! D2    D(3,1,2,18)            44.5394         estimate D2E/DX2                !
 ! D3    D(4,1,2,14)            57.5409         estimate D2E/DX2                !
 ! D4    D(4,1,2,18)           -77.3331         estimate D2E/DX2                !
 ! D5    D(5,1,2,14)           -60.1866         estimate D2E/DX2                !
 ! D6    D(5,1,2,18)           164.9394         estimate D2E/DX2                !
 ! D7    D(2,1,3,8)           -151.7167         estimate D2E/DX2                !
 ! D8    D(4,1,3,8)            -26.8074         estimate D2E/DX2                !
 ! D9    D(5,1,3,8)             94.8432         estimate D2E/DX2                !
 ! D10   D(2,1,4,7)            -52.8688         estimate D2E/DX2                !
 ! D11   D(3,1,4,7)           -173.5574         estimate D2E/DX2                !
 ! D12   D(5,1,4,7)             61.7309         estimate D2E/DX2                !
 ! D13   D(2,1,5,6)            -59.1788         estimate D2E/DX2                !
 ! D14   D(2,1,5,15)            69.9613         estimate D2E/DX2                !
 ! D15   D(3,1,5,6)             56.7888         estimate D2E/DX2                !
 ! D16   D(3,1,5,15)          -174.071          estimate D2E/DX2                !
 ! D17   D(4,1,5,6)            178.9933         estimate D2E/DX2                !
 ! D18   D(4,1,5,15)           -51.8665         estimate D2E/DX2                !
 ! D19   D(1,2,13,9)             1.833          estimate D2E/DX2                !
 ! D20   D(18,2,13,9)          135.1086         estimate D2E/DX2                !
 ! D21   D(1,4,11,9)            -8.3358         estimate D2E/DX2                !
 ! D22   D(1,4,11,17)         -141.7819         estimate D2E/DX2                !
 ! D23   D(1,5,15,12)          -18.0993         estimate D2E/DX2                !
 ! D24   D(6,5,15,12)          114.7774         estimate D2E/DX2                !
 ! D25   D(11,9,10,16)         152.8745         estimate D2E/DX2                !
 ! D26   D(12,9,10,16)          34.3851         estimate D2E/DX2                !
 ! D27   D(13,9,10,16)         -91.1347         estimate D2E/DX2                !
 ! D28   D(10,9,11,7)         -178.3022         estimate D2E/DX2                !
 ! D29   D(10,9,11,17)         -43.6517         estimate D2E/DX2                !
 ! D30   D(12,9,11,7)          -61.3519         estimate D2E/DX2                !
 ! D31   D(12,9,11,17)          73.2987         estimate D2E/DX2                !
 ! D32   D(13,9,11,7)           62.4289         estimate D2E/DX2                !
 ! D33   D(13,9,11,17)        -162.9205         estimate D2E/DX2                !
 ! D34   D(10,9,12,15)         178.2711         estimate D2E/DX2                !
 ! D35   D(11,9,12,15)          61.8618         estimate D2E/DX2                !
 ! D36   D(13,9,12,15)         -57.5813         estimate D2E/DX2                !
 ! D37   D(10,9,13,14)        -179.5279         estimate D2E/DX2                !
 ! D38   D(11,9,13,14)         -63.2299         estimate D2E/DX2                !
 ! D39   D(12,9,13,14)          58.3046         estimate D2E/DX2                !
 ! D40   D(9,12,15,5)            7.1604         estimate D2E/DX2                !
 --------------------------------------------------------------------------------
 Trust Radius=3.00D-01 FncErr=1.00D-07 GrdErr=1.00D-06 EigMax=2.50D+02 EigMin=1.00D-04
 Number of steps in this run=    101 maximum allowed number of steps=    108.
 GradGradGradGradGradGradGradGradGradGradGradGradGradGradGradGradGradGrad

                          Input orientation:                          
 ---------------------------------------------------------------------
 Center     Atomic      Atomic             Coordinates (Angstroms)
 Number     Number       Type             X           Y           Z
 ---------------------------------------------------------------------
      1         14           0       -1.971990    0.031980    0.021780
      2          8           0       -1.498390   -1.042810   -1.160960
      3          8           0       -3.615290    0.077310    0.015170
      4          8           0       -1.385780    1.536640   -0.161220
      5          8           0       -1.325130   -0.623570    1.410070
      6          1           0       -1.618520   -1.517810    1.627510
      7          1           0       -0.417130    1.656140   -0.272490
      8          1           0       -4.031790    0.897200    0.305330
      9         14           0        2.526980   -0.043310   -0.038310
     10          8           0        4.164380    0.056510   -0.114550
     11          8           0        1.925800    1.490290   -0.375070
     12          8           0        2.119630   -0.489450    1.494080
     13          8           0        1.934130   -1.037080   -1.192870
     14          1           0        0.974810   -1.180940   -1.264660
     15          1           0        1.167200   -0.559560    1.680130
     16          1           0        4.662100   -0.573150    0.418670
     17          1           0        2.393080    2.212430    0.064100
     18          1           0       -1.950120   -0.978780   -2.011630
 ---------------------------------------------------------------------
                    Distance matrix (angstroms):
                    1          2          3          4          5
     1  Si   0.000000
     2  O    1.666837   0.000000
     3  O    1.643938   2.668186   0.000000
     4  O    1.625156   2.768704   2.670482   0.000000
     5  O    1.665990   2.610743   2.771608   2.671917   0.000000
     6  H    2.259460   2.831187   3.021777   3.547307   0.965931
     7  H    2.267616   3.040203   3.578223   0.982316   2.975323
     8  H    2.252062   3.511661   0.964305   2.761869   3.295330
     9  Si   4.500001   4.296853   6.143687   4.221497   4.156111
    10  O    6.137933   5.862631   7.780779   5.744322   5.737743
    11  O    4.180541   4.331200   5.731708   3.318801   4.268920
    12  O    4.379602   4.521672   5.949597   4.374124   3.448393
    13  O    4.228006   3.432673   5.787684   4.325522   4.191547
    14  H    3.436529   2.479224   4.928506   3.764997   3.571354
    15  H    3.599244   3.925646   5.103911   3.781842   2.507736
    16  H    6.673444   6.377103   8.312707   6.431511   6.068965
    17  H    4.879548   5.219281   6.376648   3.845419   4.866171
    18  H    2.270874   0.965298   2.827726   3.173300   3.496401
                    6          7          8          9         10
     6  H    0.000000
     7  H    3.889383   0.000000
     8  H    3.661189   3.738400   0.000000
     9  Si   4.704708   3.407456   6.634765   0.000000
    10  O    6.241409   4.855306   8.249864   1.642211   0.000000
    11  O    5.061738   2.351032   6.025577   1.681295   2.671111
    12  O    3.879316   3.762908   6.416844   1.647178   2.658339
    13  O    4.561465   3.691742   6.448119   1.634643   2.707901
    14  H    3.899165   3.312238   5.643543   2.281966   3.609348
    15  H    2.946396   3.351440   5.571510   2.251344   3.547324
    16  H    6.465281   5.589813   8.818078   2.246842   0.963598
    17  H    5.696655   2.884447   6.562543   2.262030   2.795963
    18  H    3.693758   3.509625   3.636063   4.981317   6.485202
                   11         12         13         14         15
    11  O    0.000000
    12  O    2.729590   0.000000
    13  O    2.656401   2.748456   0.000000
    14  H    2.971737   3.065847   0.972700   0.000000
    15  H    3.000201   0.972961   3.011700   3.015778   0.000000
    16  H    3.517833   2.761823   3.202204   4.098672   3.715615
    17  H    0.965768   3.069165   3.514246   3.910505   3.434860
    18  H    4.878257   5.393729   3.970033   3.025566   4.850002
                   16         17         18
    16  H    0.000000
    17  H    3.610212   0.000000
    18  H    7.056369   5.775453   0.000000
 Stoichiometry    H8O8Si2
 Framework group  C1[X(H8O8Si2)]
 Deg. of freedom    48
 Full point group                 C1      NOp   1
 Largest Abelian subgroup         C1      NOp   1
 Largest concise Abelian subgroup C1      NOp   1
                         Standard orientation:                         
 ---------------------------------------------------------------------
 Center     Atomic      Atomic             Coordinates (Angstroms)
 Number     Number       Type             X           Y           Z
 ---------------------------------------------------------------------
      1         14           0       -2.247162    0.031796    0.019847
      2          8           0       -1.768337   -1.043999   -1.159871
      3          8           0       -3.890534    0.073582    0.009106
      4          8           0       -1.663732    1.537397   -0.164294
      5          8           0       -1.602329   -0.619981    1.410853
      6          1           0       -1.894336   -1.514475    1.629106
      7          1           0       -0.695068    1.658789   -0.273379
      8          1           0       -4.309508    0.893071    0.296827
      9         14           0        2.252094   -0.033924   -0.029016
     10          8           0        3.889459    0.069285   -0.101388
     11          8           0        1.648458    1.497800   -0.369894
     12          8           0        1.841918   -0.478311    1.503130
     13          8           0        1.664231   -1.030944   -1.183324
     14          1           0        0.705402   -1.176989   -1.257233
     15          1           0        0.889183   -0.550150    1.686950
     16          1           0        4.387210   -0.558388    0.434140
     17          1           0        2.113101    2.221695    0.069185
     18          1           0       -2.218100   -0.982399   -2.011762
 ---------------------------------------------------------------------
 Rotational constants (GHZ):           1.9567178           0.4129316           0.4110028
 Standard basis: 6-31+G(d,p) (6D, 7F)
 There are   238 symmetry adapted cartesian basis functions of A   symmetry.
 There are   238 symmetry adapted basis functions of A   symmetry.
   238 basis functions,   424 primitive gaussians,   238 cartesian basis functions
    50 alpha electrons       50 beta electrons
       nuclear repulsion energy       820.6620005415 Hartrees.
 NAtoms=   18 NActive=   18 NUniq=   18 SFac= 1.00D+00 NAtFMM=   60 NAOKFM=F Big=F
 Integral buffers will be    131072 words long.
 Raffenetti 2 integral format.
 Two-electron integral symmetry is turned on.
 Nuclear repulsion after empirical dispersion term =      820.6477733319 Hartrees.
 One-electron integrals computed using PRISM.
 NBasis=   238 RedAO= T EigKep=  2.99D-04  NBF=   238
 NBsUse=   238 1.00D-06 EigRej= -1.00D+00 NBFU=   238
 ExpMin= 3.31D-02 ExpMax= 1.61D+04 ExpMxC= 2.43D+03 IAcc=3 IRadAn=         5 AccDes= 0.00D+00
 Harris functional with IExCor=  402 and IRadAn=       5 diagonalized for initial guess.
 HarFok:  IExCor=  402 AccDes= 0.00D+00 IRadAn=         5 IDoV= 1 UseB2=F ITyADJ=14
 ICtDFT=  3500011 ScaDFX=  1.000000  1.000000  1.000000  1.000000
 FoFCou: FMM=F IPFlag=           0 FMFlag=      100000 FMFlg1=           0
         NFxFlg=           0 DoJE=T BraDBF=F KetDBF=T FulRan=T
         wScrn=  0.000000 ICntrl=       500 IOpCl=  0 I1Cent=   200000004 NGrid=           0
         NMat0=    1 NMatS0=      1 NMatT0=    0 NMatD0=    1 NMtDS0=    0 NMtDT0=    0
 Petite list used in FoFCou.
 Requested convergence on RMS density matrix=1.00D-08 within 128 cycles.
 Requested convergence on MAX density matrix=1.00D-06.
 Requested convergence on             energy=1.00D-06.
 No special actions if energy rises.
 SCF Done:  E(RB3LYP) =  -1186.06361511     A.U. after   11 cycles
            NFock= 11  Conv=0.88D-08     -V/T= 2.0068

 **********************************************************************

            Population analysis using the SCF Density.

 **********************************************************************

 Orbital symmetries:
       Occupied  (A) (A) (A) (A) (A) (A) (A) (A) (A) (A) (A) (A)
                 (A) (A) (A) (A) (A) (A) (A) (A) (A) (A) (A) (A)
                 (A) (A) (A) (A) (A) (A) (A) (A) (A) (A) (A) (A)
                 (A) (A) (A) (A) (A) (A) (A) (A) (A) (A) (A) (A)
                 (A) (A)
       Virtual   (A) (A) (A) (A) (A) (A) (A) (A) (A) (A) (A) (A)
                 (A) (A) (A) (A) (A) (A) (A) (A) (A) (A) (A) (A)
                 (A) (A) (A) (A) (A) (A) (A) (A) (A) (A) (A) (A)
                 (A) (A) (A) (A) (A) (A) (A) (A) (A) (A) (A) (A)
                 (A) (A) (A) (A) (A) (A) (A) (A) (A) (A) (A) (A)
                 (A) (A) (A) (A) (A) (A) (A) (A) (A) (A) (A) (A)
                 (A) (A) (A) (A) (A) (A) (A) (A) (A) (A) (A) (A)
                 (A) (A) (A) (A) (A) (A) (A) (A) (A) (A) (A) (A)
                 (A) (A) (A) (A) (A) (A) (A) (A) (A) (A) (A) (A)
                 (A) (A) (A) (A) (A) (A) (A) (A) (A) (A) (A) (A)
                 (A) (A) (A) (A) (A) (A) (A) (A) (A) (A) (A) (A)
                 (A) (A) (A) (A) (A) (A) (A) (A) (A) (A) (A) (A)
                 (A) (A) (A) (A) (A) (A) (A) (A) (A) (A) (A) (A)
                 (A) (A) (A) (A) (A) (A) (A) (A) (A) (A) (A) (A)
                 (A) (A) (A) (A) (A) (A) (A) (A) (A) (A) (A) (A)
                 (A) (A) (A) (A) (A) (A) (A) (A)
 The electronic state is 1-A.
 Alpha  occ. eigenvalues --  -66.23460 -66.21988 -19.18449 -19.18417 -19.18366
 Alpha  occ. eigenvalues --  -19.17778 -19.17081 -19.16939 -19.16431 -19.16263
 Alpha  occ. eigenvalues --   -5.36809  -5.35317  -3.72803  -3.72795  -3.72754
 Alpha  occ. eigenvalues --   -3.71330  -3.71291  -3.71259  -1.05840  -1.04290
 Alpha  occ. eigenvalues --   -1.02366  -1.01960  -1.01667  -1.00799  -1.00402
 Alpha  occ. eigenvalues --   -1.00140  -0.61083  -0.59702  -0.55116  -0.54938
 Alpha  occ. eigenvalues --   -0.53386  -0.53096  -0.52747  -0.52091  -0.42473
 Alpha  occ. eigenvalues --   -0.41496  -0.40491  -0.39994  -0.39508  -0.38991
 Alpha  occ. eigenvalues --   -0.38140  -0.37176  -0.36964  -0.36357  -0.35415
 Alpha  occ. eigenvalues --   -0.34315  -0.34307  -0.33998  -0.33731  -0.31537
 Alpha virt. eigenvalues --   -0.03973  -0.01235   0.00478   0.00719   0.01794
 Alpha virt. eigenvalues --    0.03733   0.04813   0.05584   0.08677   0.09203
 Alpha virt. eigenvalues --    0.09444   0.10775   0.11808   0.12363   0.12959
 Alpha virt. eigenvalues --    0.13927   0.14467   0.14648   0.14937   0.15051
 Alpha virt. eigenvalues --    0.15736   0.16221   0.16504   0.17253   0.17662
 Alpha virt. eigenvalues --    0.17978   0.18966   0.19685   0.20421   0.20564
 Alpha virt. eigenvalues --    0.20859   0.21020   0.22001   0.22910   0.24022
 Alpha virt. eigenvalues --    0.24257   0.25031   0.25839   0.26044   0.26858
 Alpha virt. eigenvalues --    0.27341   0.27775   0.28606   0.28995   0.29253
 Alpha virt. eigenvalues --    0.30926   0.32342   0.33161   0.35430   0.36422
 Alpha virt. eigenvalues --    0.37313   0.38007   0.40393   0.40823   0.42199
 Alpha virt. eigenvalues --    0.43588   0.45338   0.46171   0.47451   0.48840
 Alpha virt. eigenvalues --    0.50038   0.58407   0.60226   0.61447   0.62314
 Alpha virt. eigenvalues --    0.62957   0.64368   0.70157   0.92568   0.93254
 Alpha virt. eigenvalues --    0.94078   0.95505   0.96579   0.97301   0.97817
 Alpha virt. eigenvalues --    0.99197   0.99847   1.01128   1.01476   1.05541
 Alpha virt. eigenvalues --    1.07231   1.08097   1.15541   1.16120   1.17070
 Alpha virt. eigenvalues --    1.17096   1.18271   1.18476   1.18961   1.19230
 Alpha virt. eigenvalues --    1.20477   1.20975   1.22320   1.23209   1.23703
 Alpha virt. eigenvalues --    1.25114   1.25420   1.26623   1.27461   1.28761
 Alpha virt. eigenvalues --    1.29721   1.30692   1.32122   1.33713   1.35113
 Alpha virt. eigenvalues --    1.37128   1.47538   1.49509   1.52387   1.53116
 Alpha virt. eigenvalues --    1.54015   1.55179   1.56979   1.57831   1.58913
 Alpha virt. eigenvalues --    1.59814   1.61991   1.62459   1.64732   1.66686
 Alpha virt. eigenvalues --    1.67589   1.69367   1.71326   1.73306   1.74431
 Alpha virt. eigenvalues --    1.75018   1.77696   1.78230   1.84530   1.86627
 Alpha virt. eigenvalues --    1.88596   1.90894   1.95694   2.00096   2.02296
 Alpha virt. eigenvalues --    2.02802   2.09060   2.09865   2.33461   2.35639
 Alpha virt. eigenvalues --    2.36890   2.38736   2.39597   2.40382   2.41755
 Alpha virt. eigenvalues --    2.43166   2.45394   2.46058   2.57856   2.58833
 Alpha virt. eigenvalues --    2.59837   2.60392   2.60679   2.61012   2.61329
 Alpha virt. eigenvalues --    2.62451   2.63443   2.64707   2.65088   2.66025
 Alpha virt. eigenvalues --    2.66720   2.67926   2.69385   2.70645   2.76357
 Alpha virt. eigenvalues --    2.77609   2.79113   2.81304   2.82660   2.84108
 Alpha virt. eigenvalues --    2.99047   3.00815   3.40553   3.41999   3.42430
 Alpha virt. eigenvalues --    3.43262   3.43573   3.50540   3.53109   3.55197
 Alpha virt. eigenvalues --    4.11926   4.17380   4.19077   4.21539   4.21942
 Alpha virt. eigenvalues --    4.25317   4.29012   4.33863
          Condensed to atoms (all electrons):
               1          2          3          4          5          6
     1  Si  11.520058   0.067205   0.046122   0.162336   0.062082   0.040118
     2  O    0.067205   8.560933   0.016666   0.002249   0.064326  -0.008325
     3  O    0.046122   0.016666   8.567853   0.005481  -0.033753  -0.005391
     4  O    0.162336   0.002249   0.005481   8.416209   0.049995   0.005843
     5  O    0.062082   0.064326  -0.033753   0.049995   8.518157   0.240067
     6  H    0.040118  -0.008325  -0.005391   0.005843   0.240067   0.360027
     7  H    0.023996  -0.005338   0.007088   0.248221  -0.005280   0.000006
     8  H    0.031467   0.004310   0.238272  -0.001859  -0.004165   0.000064
     9  Si  -0.034804   0.018943  -0.001511   0.006730   0.026712  -0.001717
    10  O   -0.001368   0.000632  -0.000030   0.000633   0.000935  -0.000004
    11  O    0.021060  -0.008822   0.000942  -0.010353  -0.010307   0.000126
    12  O    0.002521  -0.007335   0.000358  -0.003724  -0.005387   0.000243
    13  O    0.013754  -0.006918   0.000684  -0.007969  -0.012442   0.000183
    14  H    0.001948   0.010869   0.000030   0.000145  -0.000851   0.000014
    15  H   -0.002041   0.000442   0.000016   0.000108   0.010844  -0.000650
    16  H    0.000111  -0.000002   0.000000  -0.000001  -0.000005  -0.000000
    17  H   -0.001352   0.000094  -0.000007   0.000823   0.000122  -0.000000
    18  H    0.028668   0.238570  -0.003686  -0.007196   0.005422   0.000069
               7          8          9         10         11         12
     1  Si   0.023996   0.031467  -0.034804  -0.001368   0.021060   0.002521
     2  O   -0.005338   0.004310   0.018943   0.000632  -0.008822  -0.007335
     3  O    0.007088   0.238272  -0.001511  -0.000030   0.000942   0.000358
     4  O    0.248221  -0.001859   0.006730   0.000633  -0.010353  -0.003724
     5  O   -0.005280  -0.004165   0.026712   0.000935  -0.010307  -0.005387
     6  H    0.000006   0.000064  -0.001717  -0.000004   0.000126   0.000243
     7  H    0.307611   0.000026   0.001074   0.000039   0.012200   0.000456
     8  H    0.000026   0.354707   0.000063   0.000000  -0.000002  -0.000002
     9  Si   0.001074   0.000063  11.532239   0.022790   0.031425   0.150133
    10  O    0.000039   0.000000   0.022790   8.564925   0.010020   0.023698
    11  O    0.012200  -0.000002   0.031425   0.010020   8.596650   0.042302
    12  O    0.000456  -0.000002   0.150133   0.023698   0.042302   8.433798
    13  O   -0.000358  -0.000001   0.093309  -0.001670   0.053013   0.007689
    14  H    0.000005  -0.000000   0.033602   0.005428  -0.004007  -0.007942
    15  H    0.000041  -0.000000   0.030655   0.008447  -0.007273   0.245039
    16  H   -0.000000  -0.000000   0.031563   0.240054   0.003573  -0.003213
    17  H   -0.000838  -0.000000   0.033106  -0.001393   0.238496  -0.010086
    18  H    0.000150   0.000066  -0.000983  -0.000001   0.000057   0.000016
              13         14         15         16         17         18
     1  Si   0.013754   0.001948  -0.002041   0.000111  -0.001352   0.028668
     2  O   -0.006918   0.010869   0.000442  -0.000002   0.000094   0.238570
     3  O    0.000684   0.000030   0.000016   0.000000  -0.000007  -0.003686
     4  O   -0.007969   0.000145   0.000108  -0.000001   0.000823  -0.007196
     5  O   -0.012442  -0.000851   0.010844  -0.000005   0.000122   0.005422
     6  H    0.000183   0.000014  -0.000650  -0.000000  -0.000000   0.000069
     7  H   -0.000358   0.000005   0.000041  -0.000000  -0.000838   0.000150
     8  H   -0.000001  -0.000000  -0.000000  -0.000000  -0.000000   0.000066
     9  Si   0.093309   0.033602   0.030655   0.031563   0.033106  -0.000983
    10  O   -0.001670   0.005428   0.008447   0.240054  -0.001393  -0.000001
    11  O    0.053013  -0.004007  -0.007273   0.003573   0.238496   0.000057
    12  O    0.007689  -0.007942   0.245039  -0.003213  -0.010086   0.000016
    13  O    8.473157   0.240084  -0.008203  -0.003728   0.006636   0.000291
    14  H    0.240084   0.327721   0.000153  -0.000022  -0.000042  -0.000374
    15  H   -0.008203   0.000153   0.328101   0.000040   0.000164  -0.000004
    16  H   -0.003728  -0.000022   0.000040   0.361435   0.000087   0.000000
    17  H    0.006636  -0.000042   0.000164   0.000087   0.357478  -0.000000
    18  H    0.000291  -0.000374  -0.000004   0.000000  -0.000000   0.355096
 Mulliken charges:
               1
     1  Si   2.018119
     2  O   -0.948500
     3  O   -0.839134
     4  O   -0.867670
     5  O   -0.906474
     6  H    0.369327
     7  H    0.410901
     8  H    0.377054
     9  Si   2.026669
    10  O   -0.873134
    11  O   -0.969099
    12  O   -0.868564
    13  O   -0.847511
    14  H    0.393239
    15  H    0.394121
    16  H    0.370108
    17  H    0.376711
    18  H    0.383839
 Sum of Mulliken charges =  -0.00000
 Mulliken charges with hydrogens summed into heavy atoms:
               1
     1  Si   2.018119
     2  O   -0.564661
     3  O   -0.462080
     4  O   -0.456769
     5  O   -0.537146
     9  Si   2.026669
    10  O   -0.503027
    11  O   -0.592388
    12  O   -0.474444
    13  O   -0.454273
 Electronic spatial extent (au):  <R**2>=           2714.6882
 Charge=             -0.0000 electrons
 Dipole moment (field-independent basis, Debye):
    X=             -2.3047    Y=             -0.0110    Z=              1.0119  Tot=              2.5170
 Quadrupole moment (field-independent basis, Debye-Ang):
   XX=            -67.1429   YY=            -68.3990   ZZ=            -72.7933
   XY=             -0.0070   XZ=              5.2285   YZ=             -0.4297
 Traceless Quadrupole moment (field-independent basis, Debye-Ang):
   XX=              2.3022   YY=              1.0461   ZZ=             -3.3483
   XY=             -0.0070   XZ=              5.2285   YZ=             -0.4297
 Octapole moment (field-independent basis, Debye-Ang**2):
  XXX=             -5.1037  YYY=              6.2210  ZZZ=            -13.6730  XYY=              2.8324
  XXY=              7.1559  XXZ=             25.2467  XZZ=            -25.4066  YZZ=             -7.4828
  YYZ=             12.1682  XYZ=             -1.0990
 Hexadecapole moment (field-independent basis, Debye-Ang**3):
 XXXX=          -2337.0942 YYYY=           -342.0459 ZZZZ=           -344.0154 XXXY=           -191.4926
 XXXZ=             61.0950 YYYX=             52.4783 YYYZ=             -6.6136 ZZZX=             25.7059
 ZZZY=              3.5194 XXYY=           -428.7166 XXZZ=           -478.9501 YYZZ=           -113.3482
 XXYZ=              3.3248 YYXZ=             -3.5652 ZZXY=             27.2869
 N-N= 8.206477733319D+02 E-N=-4.450832216941D+03  KE= 1.178104647454D+03
 Calling FoFJK, ICntrl=      2127 FMM=F ISym2X=0 I1Cent= 0 IOpClX= 0 NMat=1 NMatS=1 NMatT=0.
 ***** Axes restored to original set *****
 -------------------------------------------------------------------
 Center     Atomic                   Forces (Hartrees/Bohr)
 Number     Number              X              Y              Z
 -------------------------------------------------------------------
      1       14           0.004974930   -0.015196242    0.001287455
      2        8           0.001601399    0.003024288    0.000850682
      3        8          -0.000397760    0.002671780   -0.000183867
      4        8           0.014395983    0.007507581   -0.002132827
      5        8           0.001664159    0.002653765   -0.001926554
      6        1           0.000489682    0.000785257   -0.000424669
      7        1          -0.008830316   -0.000598228    0.001513067
      8        1          -0.000574474   -0.000185509    0.000176460
      9       14          -0.003323400    0.014140728   -0.002763509
     10        8          -0.000388550   -0.002085725    0.000810947
     11        8          -0.002310883   -0.005788586    0.001046448
     12        8          -0.006937201   -0.002745244    0.002940002
     13        8          -0.007747512   -0.004006683   -0.002185709
     14        1           0.004078457    0.000857401    0.000353176
     15        1           0.003262581   -0.000164391    0.000606086
     16        1           0.000596113   -0.000201946   -0.000173090
     17        1          -0.000828666   -0.000515598   -0.000179375
     18        1           0.000275460   -0.000152646    0.000385276
 -------------------------------------------------------------------
 Cartesian Forces:  Max     0.015196242 RMS     0.004471985

 GradGradGradGradGradGradGradGradGradGradGradGradGradGradGradGradGradGrad
 Berny optimization.
 FormGI is forming the generalized inverse of G from B-inverse, IUseBI=4.
 Internal  Forces:  Max     0.011343592 RMS     0.002195930
 Search for a local minimum.
 Step number   1 out of a maximum of  101
 All quantities printed in internal units (Hartrees-Bohrs-Radians)
 Mixed Optimization -- RFO/linear search
 Second derivative matrix not updated -- first step.
 ITU=  0
     Eigenvalues ---    0.00723   0.01641   0.02255   0.02511   0.02739
     Eigenvalues ---    0.03128   0.03234   0.03639   0.03758   0.03781
     Eigenvalues ---    0.03908   0.04120   0.05268   0.05511   0.07023
     Eigenvalues ---    0.07676   0.09016   0.09641   0.10824   0.10971
     Eigenvalues ---    0.11650   0.12235   0.12723   0.13051   0.15181
     Eigenvalues ---    0.15878   0.16000   0.16000   0.16851   0.17212
     Eigenvalues ---    0.20889   0.36120   0.38068   0.39015   0.41529
     Eigenvalues ---    0.42915   0.43581   0.43851   0.44086   0.46838
     Eigenvalues ---    0.48083   0.49436   0.54217   0.54251   0.54349
     Eigenvalues ---    0.54558   0.547071000.000001000.000001000.00000
     Eigenvalues --- 1000.000001000.000001000.000001000.000001000.00000
     Eigenvalues --- 1000.000001000.000001000.000001000.000001000.00000
     Eigenvalues --- 1000.000001000.000001000.000001000.000001000.00000
     Eigenvalues --- 1000.000001000.000001000.000001000.000001000.00000
     Eigenvalues --- 1000.000001000.000001000.000001000.000001000.00000
     Eigenvalues --- 1000.000001000.000001000.000001000.000001000.00000
     Eigenvalues --- 1000.000001000.000001000.000001000.000001000.00000
     Eigenvalues --- 1000.000001000.000001000.000001000.000001000.00000
     Eigenvalues --- 1000.00000
 RFO step:  Lambda=-1.40213981D-03 EMin= 7.22583036D-03
 Linear search not attempted -- first point.
 Iteration  1 RMS(Cart)=  0.01266894 RMS(Int)=  0.00010260
 Iteration  2 RMS(Cart)=  0.00012003 RMS(Int)=  0.00005029
 Iteration  3 RMS(Cart)=  0.00000001 RMS(Int)=  0.00005029
 Iteration  1 RMS(Cart)=  0.00000056 RMS(Int)=  0.00000040
 Variable       Old X    -DE/DX   Delta X   Delta X   Delta X     New X
                                 (Linear)    (Quad)   (Total)
    R1        3.14986  -0.00280   0.00000  -0.00609  -0.00610   3.14376
    R2        3.10659   0.00104   0.00000   0.00238   0.00238   3.10897
    R3        3.07110   0.00709   0.00000   0.01599   0.01600   3.08710
    R4        3.14826  -0.00278   0.00000  -0.00576  -0.00577   3.14250
    R5        8.50377  -0.00719   0.00000   0.00000   0.00000   8.50377
    R6        4.68505  -0.00199   0.00000  -0.03137  -0.03138   4.65367
    R7        1.82415  -0.00048   0.00000  -0.00088  -0.00088   1.82327
    R8        1.82227   0.00014   0.00000   0.00026   0.00026   1.82254
    R9        1.85631  -0.01134   0.00000  -0.02074  -0.02072   1.83559
   R10        1.82535  -0.00097   0.00000  -0.00179  -0.00179   1.82356
   R11        4.73893  -0.00201   0.00000  -0.03047  -0.03049   4.70845
   R12        4.44281  -0.00230   0.00000  -0.05894  -0.05892   4.38389
   R13        3.10333   0.00004   0.00000   0.00009   0.00009   3.10342
   R14        3.17719  -0.00511   0.00000  -0.01296  -0.01295   3.16423
   R15        3.11271   0.00398   0.00000   0.01022   0.01021   3.12292
   R16        3.08903   0.00385   0.00000   0.00960   0.00961   3.09864
   R17        1.82094   0.00034   0.00000   0.00063   0.00063   1.82156
   R18        1.82504  -0.00087   0.00000  -0.00160  -0.00160   1.82344
   R19        1.83863  -0.00520   0.00000  -0.00726  -0.00728   1.83135
   R20        1.83814  -0.00612   0.00000  -0.00917  -0.00918   1.82895
    A1        1.87439   0.00073   0.00000   0.01462   0.01451   1.88890
    A2        1.99831  -0.00085   0.00000  -0.01169  -0.01171   1.98660
    A3        1.80005   0.00125   0.00000   0.00456   0.00434   1.80439
    A4        1.91196  -0.00049   0.00000  -0.00402  -0.00391   1.90805
    A5        1.98485   0.00073   0.00000   0.01285   0.01271   1.99756
    A6        1.89452  -0.00125   0.00000  -0.01535  -0.01536   1.87916
    A7        1.92735   0.00014   0.00000  -0.00007  -0.00009   1.92726
    A8        2.03709   0.00035   0.00000   0.00087   0.00088   2.03797
    A9        2.01936  -0.00046   0.00000  -0.00117  -0.00117   2.01818
   A10        2.04203   0.00103   0.00000   0.00638   0.00638   2.04841
   A11        2.07268   0.00014   0.00000   0.00288   0.00290   2.07559
   A12        2.01966  -0.00072   0.00000  -0.00357  -0.00357   2.01609
   A13        2.05509   0.00127   0.00000   0.00860   0.00860   2.06369
   A14        1.87681  -0.00020   0.00000  -0.00385  -0.00383   1.87298
   A15        1.86688   0.00275   0.00000   0.02505   0.02503   1.89191
   A16        1.88203  -0.00054   0.00000   0.00300   0.00292   1.88495
   A17        1.94527  -0.00057   0.00000   0.00200   0.00197   1.94724
   A18        1.92300   0.00005   0.00000  -0.00212  -0.00233   1.92067
   A19        1.85812  -0.00045   0.00000  -0.00695  -0.00709   1.85103
   A20        1.98530  -0.00098   0.00000  -0.01834  -0.01839   1.96691
   A21        2.03711   0.00089   0.00000   0.00550   0.00550   2.04261
   A22        1.99538   0.00207   0.00000   0.01003   0.01005   2.00543
   A23        1.99280  -0.00111   0.00000  -0.00659  -0.00660   1.98620
   A24        2.00200  -0.00057   0.00000  -0.00192  -0.00191   2.00009
   A25        2.02583   0.00050   0.00000   0.00789   0.00787   2.03370
   A26        2.09409   0.00011   0.00000   0.00085   0.00089   2.09498
   A27        2.83754  -0.00149   0.00000  -0.00219  -0.00221   2.83533
   A28        2.98478  -0.00025   0.00000   0.00946   0.00947   2.99425
   A29        2.98669  -0.00004   0.00000   0.01206   0.01208   2.99877
   A30        3.28304   0.00002   0.00000  -0.01040  -0.01044   3.27260
   A31        3.31915   0.00012   0.00000  -0.00289  -0.00288   3.31627
    D1        3.13135  -0.00122   0.00000  -0.01133  -0.01138   3.11997
    D2        0.77736  -0.00103   0.00000  -0.01037  -0.01041   0.76695
    D3        1.00428  -0.00057   0.00000  -0.00926  -0.00925   0.99503
    D4       -1.34972  -0.00038   0.00000  -0.00830  -0.00828  -1.35800
    D5       -1.05045   0.00057   0.00000   0.01228   0.01229  -1.03817
    D6        2.87874   0.00076   0.00000   0.01323   0.01326   2.89199
    D7       -2.64796   0.00095   0.00000   0.00631   0.00639  -2.64156
    D8       -0.46788   0.00007   0.00000  -0.00112  -0.00111  -0.46899
    D9        1.65533  -0.00140   0.00000  -0.01505  -0.01513   1.64020
   D10       -0.92273  -0.00021   0.00000   0.00227   0.00222  -0.92051
   D11       -3.02915  -0.00022   0.00000  -0.00569  -0.00566  -3.03481
   D12        1.07741   0.00003   0.00000  -0.00888  -0.00882   1.06858
   D13       -1.03287  -0.00070   0.00000  -0.01374  -0.01376  -1.04663
   D14        1.22106  -0.00047   0.00000  -0.01447  -0.01449   1.20657
   D15        0.99115   0.00127   0.00000   0.01250   0.01255   1.00370
   D16       -3.03811   0.00150   0.00000   0.01177   0.01182  -3.02629
   D17        3.12402   0.00021   0.00000   0.00478   0.00476   3.12878
   D18       -0.90524   0.00045   0.00000   0.00404   0.00403  -0.90121
   D19        0.03199  -0.00077   0.00000  -0.00862  -0.00863   0.02336
   D20        2.35809  -0.00048   0.00000  -0.00802  -0.00804   2.35005
   D21       -0.14549  -0.00000   0.00000  -0.00099  -0.00099  -0.14648
   D22       -2.47456  -0.00029   0.00000  -0.00418  -0.00416  -2.47872
   D23       -0.31589   0.00073   0.00000   0.01636   0.01635  -0.29954
   D24        2.00324   0.00063   0.00000   0.01517   0.01517   2.01841
   D25        2.66816   0.00030   0.00000   0.00532   0.00533   2.67349
   D26        0.60013  -0.00094   0.00000  -0.00707  -0.00713   0.59301
   D27       -1.59060   0.00107   0.00000   0.01273   0.01278  -1.57782
   D28       -3.11196  -0.00012   0.00000  -0.00045  -0.00048  -3.11244
   D29       -0.76187  -0.00020   0.00000  -0.00178  -0.00180  -0.76367
   D30       -1.07079   0.00083   0.00000   0.01621   0.01621  -1.05458
   D31        1.27930   0.00075   0.00000   0.01487   0.01488   1.29419
   D32        1.08959  -0.00062   0.00000  -0.01195  -0.01194   1.07765
   D33       -2.84350  -0.00071   0.00000  -0.01329  -0.01326  -2.85676
   D34        3.11142   0.00126   0.00000   0.00815   0.00811   3.11952
   D35        1.07969  -0.00175   0.00000  -0.02234  -0.02232   1.05737
   D36       -1.00498  -0.00055   0.00000   0.00038   0.00031  -1.00468
   D37       -3.13335  -0.00169   0.00000  -0.01121  -0.01119   3.13864
   D38       -1.10357   0.00104   0.00000   0.01571   0.01563  -1.08794
   D39        1.01761   0.00019   0.00000  -0.00311  -0.00305   1.01456
   D40        0.12497   0.00091   0.00000   0.00145   0.00142   0.12639
         Item               Value     Threshold  Converged?
 Maximum Force            0.009867     0.000450     NO 
 RMS     Force            0.001986     0.000300     NO 
 Maximum Displacement     0.056570     0.001800     NO 
 RMS     Displacement     0.012676     0.001200     NO 
 Predicted change in Energy=-7.114476D-04
 GradGradGradGradGradGradGradGradGradGradGradGradGradGradGradGradGradGrad

                          Input orientation:                          
 ---------------------------------------------------------------------
 Center     Atomic      Atomic             Coordinates (Angstroms)
 Number     Number       Type             X           Y           Z
 ---------------------------------------------------------------------
      1         14           0       -1.971116    0.020387    0.021064
      2          8           0       -1.489501   -1.045652   -1.161811
      3          8           0       -3.614878    0.088722    0.013887
      4          8           0       -1.366646    1.526920   -0.162516
      5          8           0       -1.314906   -0.621199    1.407831
      6          1           0       -1.607010   -1.513233    1.631770
      7          1           0       -0.407528    1.638629   -0.268040
      8          1           0       -4.025635    0.911647    0.304102
      9         14           0        2.528176   -0.030697   -0.040471
     10          8           0        4.166562    0.053801   -0.115030
     11          8           0        1.904998    1.487409   -0.373272
     12          8           0        2.109744   -0.491680    1.490354
     13          8           0        1.923255   -1.031255   -1.190107
     14          1           0        0.968055   -1.173000   -1.255044
     15          1           0        1.161413   -0.562362    1.677026
     16          1           0        4.662537   -0.581052    0.414244
     17          1           0        2.363144    2.214608    0.065315
     18          1           0       -1.936692   -0.979950   -2.014222
 ---------------------------------------------------------------------
                    Distance matrix (angstroms):
                    1          2          3          4          5
     1  Si   0.000000
     2  O    1.663606   0.000000
     3  O    1.645198   2.680727   0.000000
     4  O    1.633624   2.762573   2.674711   0.000000
     5  O    1.662939   2.610307   2.781535   2.661406   0.000000
     6  H    2.253649   2.834878   3.035677   3.538328   0.964985
     7  H    2.268721   3.029003   3.573344   0.971351   2.956129
     8  H    2.257322   3.523052   0.964444   2.768847   3.303919
     9  Si   4.500002   4.292932   6.144455   4.196511   4.149163
    10  O    6.139277   5.856244   7.782586   5.726144   5.728981
    11  O    4.163161   4.308227   5.707473   3.278664   4.241030
    12  O    4.367429   4.505045   5.940380   4.346494   3.428092
    13  O    4.211770   3.412904   5.777098   4.292278   4.171704
    14  H    3.419261   2.462619   4.919898   3.732829   3.550675
    15  H    3.590897   3.914066   5.099304   3.760332   2.491603
    16  H    6.672456   6.367682   8.314113   6.413053   6.059592
    17  H    4.858228   5.194037   6.344982   3.799495   4.834481
    18  H    2.268094   0.964833   2.841055   3.168306   3.496537
                    6          7          8          9         10
     6  H    0.000000
     7  H    3.870693   0.000000
     8  H    3.673212   3.734508   0.000000
     9  Si   4.700433   3.384788   6.630172   0.000000
    10  O    6.232258   4.843282   8.247646   1.642257   0.000000
    11  O    5.035697   2.319853   5.996894   1.674440   2.690091
    12  O    3.857178   3.737221   6.404638   1.652579   2.665578
    13  O    4.545114   3.662108   6.434036   1.639728   2.713957
    14  H    3.883350   3.282021   5.631485   2.283423   3.610419
    15  H    2.927519   3.330048   5.564448   2.258430   3.552751
    16  H    6.454343   5.576562   8.816156   2.250590   0.963930
    17  H    5.666807   2.849474   6.524663   2.253846   2.820271
    18  H    3.699506   3.499207   3.649171   4.973110   6.474974
                   11         12         13         14         15
    11  O    0.000000
    12  O    2.726135   0.000000
    13  O    2.647871   2.740582   0.000000
    14  H    2.955192   3.050387   0.967841   0.000000
    15  H    2.993025   0.969110   3.003451   3.001216   0.000000
    16  H    3.535920   2.771778   3.206289   4.097087   3.721940
    17  H    0.964923   3.069030   3.507879   3.894293   3.428314
    18  H    4.851717   5.375324   3.947276   3.008517   4.837143
                   16         17         18
    16  H    0.000000
    17  H    3.636575   0.000000
    18  H    7.043181   5.746153   0.000000
 Stoichiometry    H8O8Si2
 Framework group  C1[X(H8O8Si2)]
 Deg. of freedom    48
 Full point group                 C1      NOp   1
 Largest Abelian subgroup         C1      NOp   1
 Largest concise Abelian subgroup C1      NOp   1
                         Standard orientation:                         
 ---------------------------------------------------------------------
 Center     Atomic      Atomic             Coordinates (Angstroms)
 Number     Number       Type             X           Y           Z
 ---------------------------------------------------------------------
      1         14           0       -2.246466    0.021511    0.020184
      2          8           0       -1.760453   -1.046103   -1.159467
      3          8           0       -3.890310    0.087306    0.009031
      4          8           0       -1.643877    1.528608   -0.164940
      5          8           0       -1.592521   -0.616348    1.409737
      6          1           0       -1.883782   -1.508388    1.634744
      7          1           0       -0.684686    1.641584   -0.268441
      8          1           0       -4.303005    0.910167    0.296670
      9         14           0        2.253030   -0.022781   -0.030736
     10          8           0        3.891455    0.064088   -0.101631
     11          8           0        1.628308    1.493710   -0.367972
     12          8           0        1.831723   -0.481406    1.500009
     13          8           0        1.652334   -1.026518   -1.179816
     14          1           0        0.697507   -1.169858   -1.246707
     15          1           0        0.883068   -0.553179    1.684603
     16          1           0        4.387162   -0.568965    0.430045
     17          1           0        2.084313    2.222471    0.070257
     18          1           0       -2.205748   -0.982757   -2.013049
 ---------------------------------------------------------------------
 Rotational constants (GHZ):           1.9655218           0.4145315           0.4127209
 Standard basis: 6-31+G(d,p) (6D, 7F)
 There are   238 symmetry adapted cartesian basis functions of A   symmetry.
 There are   238 symmetry adapted basis functions of A   symmetry.
   238 basis functions,   424 primitive gaussians,   238 cartesian basis functions
    50 alpha electrons       50 beta electrons
       nuclear repulsion energy       821.5408396887 Hartrees.
 NAtoms=   18 NActive=   18 NUniq=   18 SFac= 1.00D+00 NAtFMM=   60 NAOKFM=F Big=F
 Integral buffers will be    131072 words long.
 Raffenetti 2 integral format.
 Two-electron integral symmetry is turned on.
 Nuclear repulsion after empirical dispersion term =      821.5265227405 Hartrees.
 One-electron integrals computed using PRISM.
 NBasis=   238 RedAO= T EigKep=  2.98D-04  NBF=   238
 NBsUse=   238 1.00D-06 EigRej= -1.00D+00 NBFU=   238
 Initial guess from the checkpoint file:  "/localscratch/sarashs.37136499.0/Gau-17257.chk"
 B after Tr=     0.000000   -0.000000   -0.000000
         Rot=    1.000000    0.000033   -0.000075   -0.000047 Ang=   0.01 deg.
 ExpMin= 3.31D-02 ExpMax= 1.61D+04 ExpMxC= 2.43D+03 IAcc=3 IRadAn=         5 AccDes= 0.00D+00
 Harris functional with IExCor=  402 and IRadAn=       5 diagonalized for initial guess.
 HarFok:  IExCor=  402 AccDes= 0.00D+00 IRadAn=         5 IDoV= 1 UseB2=F ITyADJ=14
 ICtDFT=  3500011 ScaDFX=  1.000000  1.000000  1.000000  1.000000
 FoFCou: FMM=F IPFlag=           0 FMFlag=      100000 FMFlg1=           0
         NFxFlg=           0 DoJE=T BraDBF=F KetDBF=T FulRan=T
         wScrn=  0.000000 ICntrl=       500 IOpCl=  0 I1Cent=   200000004 NGrid=           0
         NMat0=    1 NMatS0=      1 NMatT0=    0 NMatD0=    1 NMtDS0=    0 NMtDT0=    0
 Petite list used in FoFCou.
 Requested convergence on RMS density matrix=1.00D-08 within 128 cycles.
 Requested convergence on MAX density matrix=1.00D-06.
 Requested convergence on             energy=1.00D-06.
 No special actions if energy rises.
 SCF Done:  E(RB3LYP) =  -1186.06454604     A.U. after    9 cycles
            NFock=  9  Conv=0.77D-08     -V/T= 2.0067
 Calling FoFJK, ICntrl=      2127 FMM=F ISym2X=0 I1Cent= 0 IOpClX= 0 NMat=1 NMatS=1 NMatT=0.
 ***** Axes restored to original set *****
 -------------------------------------------------------------------
 Center     Atomic                   Forces (Hartrees/Bohr)
 Number     Number              X              Y              Z
 -------------------------------------------------------------------
      1       14           0.007555332   -0.005502316    0.000387243
      2        8           0.000617592    0.001468005    0.000556925
      3        8           0.000970530    0.001231867   -0.000292205
      4        8           0.001534609    0.002312029   -0.000661608
      5        8           0.000845220    0.001478520   -0.001064561
      6        1           0.000476048   -0.000363763    0.000356453
      7        1           0.000938089    0.000300139    0.000308740
      8        1           0.000049889   -0.000228633    0.000138328
      9       14          -0.007533021    0.005076235   -0.000875817
     10        8          -0.001392980   -0.000786678    0.000530095
     11        8          -0.000888314   -0.003070817    0.000470830
     12        8          -0.001042831   -0.001026427    0.000587752
     13        8          -0.000857686   -0.001718333   -0.000937625
     14        1          -0.000411191    0.000396732    0.000182619
     15        1          -0.000180148   -0.000122280    0.000565380
     16        1          -0.000063810    0.000000056   -0.000237586
     17        1          -0.000750469    0.000801695    0.000111001
     18        1           0.000133140   -0.000246031   -0.000125966
 -------------------------------------------------------------------
 Cartesian Forces:  Max     0.007555332 RMS     0.001983326

 GradGradGradGradGradGradGradGradGradGradGradGradGradGradGradGradGradGrad
 Berny optimization.
 Using GEDIIS/GDIIS optimizer.
 FormGI is forming the generalized inverse of G from B-inverse, IUseBI=4.
 Internal  Forces:  Max     0.006389683 RMS     0.001044042
 Search for a local minimum.
 Step number   2 out of a maximum of  101
 All quantities printed in internal units (Hartrees-Bohrs-Radians)
 Mixed Optimization -- En-DIIS/RFO-DIIS
 Update second derivatives using D2CorX and points    1    2
 DE= -9.31D-04 DEPred=-7.11D-04 R= 1.31D+00
 TightC=F SS=  1.41D+00  RLast= 1.17D-01 DXNew= 5.0454D-01 3.5124D-01
 Trust test= 1.31D+00 RLast= 1.17D-01 DXMaxT set to 3.51D-01
 ITU=  1  0
 Use linear search instead of GDIIS.
     Eigenvalues ---    0.00722   0.01633   0.02253   0.02379   0.02735
     Eigenvalues ---    0.03065   0.03175   0.03323   0.03670   0.03762
     Eigenvalues ---    0.03784   0.04098   0.05175   0.05298   0.06827
     Eigenvalues ---    0.07675   0.08954   0.09141   0.10656   0.10893
     Eigenvalues ---    0.11843   0.12197   0.12497   0.13288   0.15152
     Eigenvalues ---    0.15849   0.16000   0.16048   0.16680   0.17161
     Eigenvalues ---    0.20755   0.35082   0.38109   0.39020   0.40745
     Eigenvalues ---    0.43029   0.43533   0.43689   0.44138   0.47924
     Eigenvalues ---    0.49122   0.49994   0.54233   0.54341   0.54503
     Eigenvalues ---    0.54626   0.548851000.000001000.000001000.00000
     Eigenvalues --- 1000.000001000.000001000.000001000.000001000.00000
     Eigenvalues --- 1000.000001000.000001000.000001000.000001000.00000
     Eigenvalues --- 1000.000001000.000001000.000001000.000001000.00000
     Eigenvalues --- 1000.000001000.000001000.000001000.000001000.00000
     Eigenvalues --- 1000.000001000.000001000.000001000.000001000.00000
     Eigenvalues --- 1000.000001000.000001000.000001000.000001000.00000
     Eigenvalues --- 1000.000001000.000001000.000001000.000001000.00000
     Eigenvalues --- 1000.000001000.000001000.000001000.000001000.00000
     Eigenvalues --- 1000.00000
 RFO step:  Lambda=-1.83017744D-04 EMin= 7.22132962D-03
 Quartic linear search produced a step of  0.48091.
 Iteration  1 RMS(Cart)=  0.01240063 RMS(Int)=  0.00009483
 Iteration  2 RMS(Cart)=  0.00009626 RMS(Int)=  0.00005567
 Iteration  3 RMS(Cart)=  0.00000001 RMS(Int)=  0.00005567
 Iteration  1 RMS(Cart)=  0.00000268 RMS(Int)=  0.00000194
 Iteration  2 RMS(Cart)=  0.00000102 RMS(Int)=  0.00000215
 Iteration  3 RMS(Cart)=  0.00000039 RMS(Int)=  0.00000233
 Variable       Old X    -DE/DX   Delta X   Delta X   Delta X     New X
                                 (Linear)    (Quad)   (Total)
    R1        3.14376  -0.00149  -0.00294  -0.00153  -0.00447   3.13929
    R2        3.10897  -0.00098   0.00114  -0.00416  -0.00302   3.10596
    R3        3.08710   0.00206   0.00770   0.00267   0.01038   3.09748
    R4        3.14250  -0.00104  -0.00277   0.00084  -0.00191   3.14058
    R5        8.50377  -0.00639   0.00000   0.00000  -0.00000   8.50377
    R6        4.65367  -0.00195  -0.01509  -0.00796  -0.02304   4.63063
    R7        1.82327   0.00003  -0.00042   0.00040  -0.00002   1.82325
    R8        1.82254  -0.00017   0.00013  -0.00057  -0.00044   1.82209
    R9        1.83559  -0.00184  -0.00996   0.00682  -0.00311   1.83248
   R10        1.82356   0.00027  -0.00086   0.00138   0.00052   1.82408
   R11        4.70845  -0.00199  -0.01466  -0.01053  -0.02519   4.68326
   R12        4.38389  -0.00274  -0.02834  -0.03841  -0.06670   4.31718
   R13        3.10342  -0.00151   0.00004  -0.00512  -0.00507   3.09834
   R14        3.16423  -0.00231  -0.00623  -0.00175  -0.00797   3.15627
   R15        3.12292   0.00095   0.00491   0.00088   0.00578   3.12870
   R16        3.09864   0.00113   0.00462   0.00230   0.00693   3.10557
   R17        1.82156  -0.00016   0.00030  -0.00066  -0.00036   1.82120
   R18        1.82344   0.00030  -0.00077   0.00138   0.00061   1.82405
   R19        1.83135  -0.00174  -0.00350   0.00228  -0.00121   1.83014
   R20        1.82895  -0.00158  -0.00442   0.00341  -0.00100   1.82796
    A1        1.88890  -0.00012   0.00698   0.00434   0.01120   1.90009
    A2        1.98660   0.00028  -0.00563  -0.00404  -0.00969   1.97691
    A3        1.80439   0.00066   0.00209  -0.00016   0.00168   1.80607
    A4        1.90805  -0.00090  -0.00188  -0.00176  -0.00352   1.90454
    A5        1.99756   0.00009   0.00611   0.00531   0.01129   2.00885
    A6        1.87916   0.00009  -0.00738  -0.00361  -0.01102   1.86814
    A7        1.92726  -0.00012  -0.00004  -0.00126  -0.00131   1.92594
    A8        2.03797   0.00041   0.00043   0.00377   0.00422   2.04219
    A9        2.01818  -0.00016  -0.00056  -0.00115  -0.00172   2.01646
   A10        2.04841   0.00004   0.00307  -0.00190   0.00117   2.04958
   A11        2.07559  -0.00032   0.00140  -0.00185  -0.00042   2.07516
   A12        2.01609   0.00031  -0.00171   0.00514   0.00343   2.01952
   A13        2.06369   0.00041   0.00413   0.00481   0.00895   2.07264
   A14        1.87298  -0.00050  -0.00184  -0.00631  -0.00818   1.86480
   A15        1.89191   0.00043   0.01204   0.00499   0.01701   1.90892
   A16        1.88495  -0.00083   0.00140  -0.00000   0.00136   1.88631
   A17        1.94724  -0.00075   0.00095   0.00091   0.00184   1.94907
   A18        1.92067   0.00054  -0.00112  -0.00134  -0.00265   1.91802
   A19        1.85103   0.00048  -0.00341  -0.00104  -0.00461   1.84642
   A20        1.96691   0.00020  -0.00884  -0.00321  -0.01212   1.95479
   A21        2.04261   0.00004   0.00265  -0.00156   0.00108   2.04370
   A22        2.00543   0.00049   0.00483   0.00542   0.01026   2.01569
   A23        1.98620  -0.00094  -0.00317  -0.00847  -0.01173   1.97447
   A24        2.00009   0.00069  -0.00092   0.00886   0.00798   2.00807
   A25        2.03370   0.00005   0.00378  -0.00059   0.00314   2.03684
   A26        2.09498  -0.00051   0.00043  -0.00533  -0.00487   2.09011
   A27        2.83533  -0.00114  -0.00106  -0.00089  -0.00198   2.83336
   A28        2.99425  -0.00062   0.00455   0.00643   0.01101   3.00525
   A29        2.99877  -0.00025   0.00581   0.00719   0.01303   3.01180
   A30        3.27260   0.00035  -0.00502  -0.00288  -0.00797   3.26463
   A31        3.31627   0.00017  -0.00139  -0.00260  -0.00398   3.31229
    D1        3.11997  -0.00047  -0.00547  -0.00419  -0.00972   3.11025
    D2        0.76695  -0.00052  -0.00501  -0.00496  -0.01001   0.75693
    D3        0.99503   0.00058  -0.00445  -0.00241  -0.00686   0.98817
    D4       -1.35800   0.00053  -0.00398  -0.00317  -0.00715  -1.36515
    D5       -1.03817  -0.00007   0.00591   0.00397   0.00990  -1.02827
    D6        2.89199  -0.00013   0.00637   0.00321   0.00960   2.90160
    D7       -2.64156   0.00026   0.00307  -0.00015   0.00300  -2.63856
    D8       -0.46899  -0.00005  -0.00053  -0.00346  -0.00398  -0.47297
    D9        1.64020  -0.00054  -0.00728  -0.00581  -0.01319   1.62700
   D10       -0.92051  -0.00068   0.00107  -0.00216  -0.00111  -0.92163
   D11       -3.03481  -0.00006  -0.00272  -0.00372  -0.00641  -3.04122
   D12        1.06858   0.00034  -0.00424  -0.00681  -0.01099   1.05759
   D13       -1.04663   0.00030  -0.00662  -0.00528  -0.01193  -1.05855
   D14        1.20657   0.00029  -0.00697  -0.00444  -0.01142   1.19515
   D15        1.00370   0.00062   0.00604   0.00254   0.00862   1.01232
   D16       -3.02629   0.00061   0.00569   0.00338   0.00913  -3.01716
   D17        3.12878  -0.00041   0.00229   0.00113   0.00338   3.13216
   D18       -0.90121  -0.00041   0.00194   0.00197   0.00389  -0.89732
   D19        0.02336  -0.00028  -0.00415  -0.00004  -0.00422   0.01914
   D20        2.35005   0.00004  -0.00387   0.00375  -0.00015   2.34990
   D21       -0.14648   0.00012  -0.00048   0.00607   0.00561  -0.14087
   D22       -2.47872  -0.00044  -0.00200  -0.00490  -0.00678  -2.48550
   D23       -0.29954   0.00017   0.00786   0.00595   0.01381  -0.28573
   D24        2.01841   0.00049   0.00730   0.01146   0.01872   2.03714
   D25        2.67349   0.00010   0.00256   0.00210   0.00468   2.67818
   D26        0.59301  -0.00032  -0.00343   0.00092  -0.00257   0.59044
   D27       -1.57782   0.00051   0.00614   0.00438   0.01057  -1.56726
   D28       -3.11244   0.00002  -0.00023  -0.00311  -0.00337  -3.11581
   D29       -0.76367  -0.00015  -0.00087  -0.00057  -0.00142  -0.76509
   D30       -1.05458  -0.00043   0.00779  -0.00093   0.00687  -1.04771
   D31        1.29419  -0.00059   0.00716   0.00161   0.00882   1.30301
   D32        1.07765   0.00041  -0.00574  -0.00621  -0.01195   1.06570
   D33       -2.85676   0.00025  -0.00638  -0.00367  -0.01000  -2.86676
   D34        3.11952   0.00034   0.00390  -0.00327   0.00059   3.12012
   D35        1.05737  -0.00000  -0.01073  -0.00853  -0.01924   1.03813
   D36       -1.00468  -0.00109   0.00015  -0.00427  -0.00416  -1.00883
   D37        3.13864  -0.00060  -0.00538   0.00034  -0.00502   3.13362
   D38       -1.08794  -0.00019   0.00752   0.00619   0.01365  -1.07429
   D39        1.01456   0.00090  -0.00147   0.00200   0.00058   1.01514
   D40        0.12639   0.00044   0.00068   0.00108   0.00172   0.12811
         Item               Value     Threshold  Converged?
 Maximum Force            0.002488     0.000450     NO 
 RMS     Force            0.000607     0.000300     NO 
 Maximum Displacement     0.063240     0.001800     NO 
 RMS     Displacement     0.012418     0.001200     NO 
 Predicted change in Energy=-2.036227D-04
 GradGradGradGradGradGradGradGradGradGradGradGradGradGradGradGradGradGrad

                          Input orientation:                          
 ---------------------------------------------------------------------
 Center     Atomic      Atomic             Coordinates (Angstroms)
 Number     Number       Type             X           Y           Z
 ---------------------------------------------------------------------
      1         14           0       -1.971117    0.013019    0.019420
      2          8           0       -1.484600   -1.047877   -1.162747
      3          8           0       -3.612343    0.101047    0.011878
      4          8           0       -1.351761    1.519083   -0.167323
      5          8           0       -1.305399   -0.618889    1.404883
      6          1           0       -1.594303   -1.509432    1.639829
      7          1           0       -0.392800    1.622286   -0.267677
      8          1           0       -4.014206    0.927522    0.303679
      9         14           0        2.528321   -0.023622   -0.041510
     10          8           0        4.164317    0.055728   -0.115106
     11          8           0        1.885338    1.483084   -0.367173
     12          8           0        2.105242   -0.498306    1.487155
     13          8           0        1.917148   -1.028337   -1.189450
     14          1           0        0.961499   -1.166674   -1.246841
     15          1           0        1.157650   -0.568380    1.674470
     16          1           0        4.658849   -0.583866    0.409440
     17          1           0        2.329679    2.220246    0.069694
     18          1           0       -1.927543   -0.984595   -2.017543
 ---------------------------------------------------------------------
                    Distance matrix (angstroms):
                    1          2          3          4          5
     1  Si   0.000000
     2  O    1.661239   0.000000
     3  O    1.643602   2.688319   0.000000
     4  O    1.639117   2.756410   2.674540   0.000000
     5  O    1.661925   2.609380   2.789401   2.654224   0.000000
     6  H    2.255122   2.842446   3.052270   3.535043   0.965262
     7  H    2.272279   3.020422   3.571803   0.969705   2.941625
     8  H    2.256398   3.528670   0.964211   2.767743   3.307819
     9  Si   4.500000   4.290665   6.142161   4.177417   4.140508
    10  O    6.137058   5.850278   7.777829   5.707124   5.716929
    11  O    4.145213   4.288960   5.681390   3.243462   4.211802
    12  O    4.362614   4.495661   5.935186   4.331054   3.413763
    13  O    4.202903   3.401909   5.770092   4.268473   4.157285
    14  H    3.405191   2.450425   4.910348   3.705378   3.531364
    15  H    3.586976   3.906558   5.095603   3.747913   2.478273
    16  H    6.668196   6.358383   8.309017   6.393941   6.046849
    17  H    4.834380   5.171872   6.308880   3.755105   4.801792
    18  H    2.268556   0.964821   2.852318   3.165951   3.497685
                    6          7          8          9         10
     6  H    0.000000
     7  H    3.858736   0.000000
     8  H    3.685101   3.731451   0.000000
     9  Si   4.693672   3.360523   6.620309   0.000000
    10  O    6.220227   4.821276   8.235512   1.639572   0.000000
    11  O    5.009102   2.284554   5.963498   1.670224   2.700857
    12  O    3.838270   3.717063   6.393844   1.655638   2.667206
    13  O    4.535037   3.634739   6.421509   1.643397   2.716465
    14  H    3.870719   3.251336   5.616708   2.283489   3.610144
    15  H    2.908611   3.312831   5.555617   2.262761   3.554173
    16  H    6.439909   5.553805   8.804394   2.248639   0.963738
    17  H    5.636794   2.807716   6.478485   2.255386   2.843445
    18  H    3.709835   3.494753   3.660386   4.968189   6.466243
                   11         12         13         14         15
    11  O    0.000000
    12  O    2.722645   0.000000
    13  O    2.642799   2.735056   0.000000
    14  H    2.940835   3.038025   0.967314   0.000000
    15  H    2.984350   0.968467   2.998406   2.988392   0.000000
    16  H    3.545106   2.773030   3.204829   4.093083   3.722759
    17  H    0.965246   3.074100   3.508406   3.882835   3.424236
    18  H    4.832310   5.364955   3.933103   2.995613   4.829349
                   16         17         18
    16  H    0.000000
    17  H    3.661079   0.000000
    18  H    7.030746   5.722893   0.000000
 Stoichiometry    H8O8Si2
 Framework group  C1[X(H8O8Si2)]
 Deg. of freedom    48
 Full point group                 C1      NOp   1
 Largest Abelian subgroup         C1      NOp   1
 Largest concise Abelian subgroup C1      NOp   1
                         Standard orientation:                         
 ---------------------------------------------------------------------
 Center     Atomic      Atomic             Coordinates (Angstroms)
 Number     Number       Type             X           Y           Z
 ---------------------------------------------------------------------
      1         14           0       -2.246415    0.013999    0.020840
      2          8           0       -1.756123   -1.048511   -1.158313
      3          8           0       -3.887769    0.099278    0.010330
      4          8           0       -1.629245    1.520706   -0.167948
      5          8           0       -1.582006   -0.613951    1.408729
      6          1           0       -1.869829   -1.504489    1.645017
      7          1           0       -0.670288    1.625300   -0.266885
      8          1           0       -4.291501    0.925680    0.299747
      9         14           0        2.253176   -0.015274   -0.032371
     10          8           0        3.889161    0.066650   -0.103351
     11          8           0        1.608244    1.489687   -0.362226
     12          8           0        1.828285   -0.487519    1.496547
     13          8           0        1.645628   -1.023361   -1.179279
     14          1           0        0.690309   -1.163407   -1.238007
     15          1           0        0.880493   -0.558787    1.682396
     16          1           0        4.383861   -0.571041    0.423349
     17          1           0        2.050617    2.228484    0.073879
     18          1           0       -2.197716   -0.987724   -2.013988
 ---------------------------------------------------------------------
 Rotational constants (GHZ):           1.9720006           0.4160437           0.4142949
 Standard basis: 6-31+G(d,p) (6D, 7F)
 There are   238 symmetry adapted cartesian basis functions of A   symmetry.
 There are   238 symmetry adapted basis functions of A   symmetry.
   238 basis functions,   424 primitive gaussians,   238 cartesian basis functions
    50 alpha electrons       50 beta electrons
       nuclear repulsion energy       822.4019998418 Hartrees.
 NAtoms=   18 NActive=   18 NUniq=   18 SFac= 1.00D+00 NAtFMM=   60 NAOKFM=F Big=F
 Integral buffers will be    131072 words long.
 Raffenetti 2 integral format.
 Two-electron integral symmetry is turned on.
 Nuclear repulsion after empirical dispersion term =      822.3876161677 Hartrees.
 One-electron integrals computed using PRISM.
 NBasis=   238 RedAO= T EigKep=  2.97D-04  NBF=   238
 NBsUse=   238 1.00D-06 EigRej= -1.00D+00 NBFU=   238
 Initial guess from the checkpoint file:  "/localscratch/sarashs.37136499.0/Gau-17257.chk"
 B after Tr=    -0.000000    0.000000    0.000000
         Rot=    1.000000   -0.000217   -0.000232   -0.000215 Ang=  -0.04 deg.
 ExpMin= 3.31D-02 ExpMax= 1.61D+04 ExpMxC= 2.43D+03 IAcc=3 IRadAn=         5 AccDes= 0.00D+00
 Harris functional with IExCor=  402 and IRadAn=       5 diagonalized for initial guess.
 HarFok:  IExCor=  402 AccDes= 0.00D+00 IRadAn=         5 IDoV= 1 UseB2=F ITyADJ=14
 ICtDFT=  3500011 ScaDFX=  1.000000  1.000000  1.000000  1.000000
 FoFCou: FMM=F IPFlag=           0 FMFlag=      100000 FMFlg1=           0
         NFxFlg=           0 DoJE=T BraDBF=F KetDBF=T FulRan=T
         wScrn=  0.000000 ICntrl=       500 IOpCl=  0 I1Cent=   200000004 NGrid=           0
         NMat0=    1 NMatS0=      1 NMatT0=    0 NMatD0=    1 NMtDS0=    0 NMtDT0=    0
 Petite list used in FoFCou.
 Requested convergence on RMS density matrix=1.00D-08 within 128 cycles.
 Requested convergence on MAX density matrix=1.00D-06.
 Requested convergence on             energy=1.00D-06.
 No special actions if energy rises.
 SCF Done:  E(RB3LYP) =  -1186.06480046     A.U. after    9 cycles
            NFock=  9  Conv=0.49D-08     -V/T= 2.0067
 Calling FoFJK, ICntrl=      2127 FMM=F ISym2X=0 I1Cent= 0 IOpClX= 0 NMat=1 NMatS=1 NMatT=0.
 ***** Axes restored to original set *****
 -------------------------------------------------------------------
 Center     Atomic                   Forces (Hartrees/Bohr)
 Number     Number              X              Y              Z
 -------------------------------------------------------------------
      1       14           0.011108891    0.000346869   -0.000056387
      2        8          -0.000111897    0.000059055   -0.000080824
      3        8           0.000619883    0.000056683   -0.000261479
      4        8          -0.002022262   -0.000040115   -0.000183214
      5        8          -0.000107325    0.000093034   -0.000356226
      6        1           0.000597307   -0.000155634    0.000375539
      7        1           0.002525100    0.000206463    0.000104062
      8        1           0.000115008    0.000007252    0.000189205
      9       14          -0.011557411   -0.000442169    0.000352859
     10        8          -0.000581914    0.000195559    0.000063653
     11        8          -0.000087466   -0.000365401    0.000132914
     12        8           0.000857866   -0.000164669   -0.000217111
     13        8           0.001111703   -0.000416183   -0.000282051
     14        1          -0.000931244    0.000362209    0.000138378
     15        1          -0.000701904    0.000040029    0.000238847
     16        1          -0.000062253   -0.000087025   -0.000085192
     17        1          -0.000923065    0.000498528   -0.000011169
     18        1           0.000150981   -0.000194483   -0.000061804
 -------------------------------------------------------------------
 Cartesian Forces:  Max     0.011557411 RMS     0.002255721

 GradGradGradGradGradGradGradGradGradGradGradGradGradGradGradGradGradGrad
 Berny optimization.
 Using GEDIIS/GDIIS optimizer.
 FormGI is forming the generalized inverse of G from B-inverse, IUseBI=4.
 Internal  Forces:  Max     0.007038842 RMS     0.000991735
 Search for a local minimum.
 Step number   3 out of a maximum of  101
 All quantities printed in internal units (Hartrees-Bohrs-Radians)
 Mixed Optimization -- En-DIIS/RFO-DIIS
 Swapping is turned off.
 Update second derivatives using D2CorX and points    1    2    3
 DE= -2.54D-04 DEPred=-2.04D-04 R= 1.25D+00
 TightC=F SS=  1.41D+00  RLast= 1.04D-01 DXNew= 5.9071D-01 3.1254D-01
 Trust test= 1.25D+00 RLast= 1.04D-01 DXMaxT set to 3.51D-01
 ITU=  1  1  0
     Eigenvalues ---    0.00715   0.01629   0.01768   0.02251   0.02727
     Eigenvalues ---    0.02935   0.03155   0.03294   0.03680   0.03769
     Eigenvalues ---    0.03795   0.04071   0.05050   0.05261   0.06726
     Eigenvalues ---    0.07696   0.08976   0.09296   0.10560   0.10896
     Eigenvalues ---    0.11996   0.12125   0.12453   0.13638   0.15147
     Eigenvalues ---    0.15826   0.16001   0.16109   0.16482   0.17146
     Eigenvalues ---    0.20880   0.36837   0.38529   0.39009   0.40701
     Eigenvalues ---    0.42953   0.43394   0.43730   0.44062   0.48027
     Eigenvalues ---    0.49381   0.53894   0.54252   0.54345   0.54553
     Eigenvalues ---    0.54679   0.565711000.000001000.000001000.00000
     Eigenvalues --- 1000.000001000.000001000.000001000.000001000.00000
     Eigenvalues --- 1000.000001000.000001000.000001000.000001000.00000
     Eigenvalues --- 1000.000001000.000001000.000001000.000001000.00000
     Eigenvalues --- 1000.000001000.000001000.000001000.000001000.00000
     Eigenvalues --- 1000.000001000.000001000.000001000.000001000.00000
     Eigenvalues --- 1000.000001000.000001000.000001000.000001000.00000
     Eigenvalues --- 1000.000001000.000001000.000001000.000001000.00000
     Eigenvalues --- 1000.000001000.000001000.000001000.000001000.00000
     Eigenvalues --- 1000.00000
 En-DIIS/RFO-DIIS/Sim-DIIS IScMMF=       -3 using points:     3    2
 RFO step:  Lambda=-1.07554752D-04.
 DidBck=F Rises=F RFO-DIIS coefs:    1.60560   -0.60560
 Iteration  1 RMS(Cart)=  0.00928490 RMS(Int)=  0.00005582
 Iteration  2 RMS(Cart)=  0.00005472 RMS(Int)=  0.00003701
 Iteration  3 RMS(Cart)=  0.00000000 RMS(Int)=  0.00003701
 Iteration  1 RMS(Cart)=  0.00000583 RMS(Int)=  0.00000421
 Iteration  2 RMS(Cart)=  0.00000222 RMS(Int)=  0.00000468
 Iteration  3 RMS(Cart)=  0.00000084 RMS(Int)=  0.00000507
 Variable       Old X    -DE/DX   Delta X   Delta X   Delta X     New X
                                 (Linear)    (Quad)   (Total)
    R1        3.13929  -0.00035  -0.00271   0.00178  -0.00092   3.13836
    R2        3.10596  -0.00073  -0.00183  -0.00054  -0.00237   3.10359
    R3        3.09748  -0.00072   0.00629  -0.00310   0.00320   3.10068
    R4        3.14058  -0.00033  -0.00116   0.00154   0.00040   3.14099
    R5        8.50377  -0.00704  -0.00000   0.00000  -0.00000   8.50377
    R6        4.63063  -0.00164  -0.01395   0.00962  -0.00431   4.62632
    R7        1.82325  -0.00003  -0.00001  -0.00016  -0.00017   1.82307
    R8        1.82209   0.00002  -0.00027   0.00026  -0.00001   1.82209
    R9        1.83248   0.00001  -0.00188   0.00351   0.00166   1.83414
   R10        1.82408   0.00006   0.00032  -0.00031   0.00001   1.82409
   R11        4.68326  -0.00169  -0.01525   0.00646  -0.00876   4.67450
   R12        4.31718  -0.00249  -0.04040  -0.00889  -0.04925   4.26793
   R13        3.09834  -0.00064  -0.00307   0.00037  -0.00270   3.09564
   R14        3.15627  -0.00035  -0.00483   0.00364  -0.00117   3.15510
   R15        3.12870  -0.00051   0.00350  -0.00190   0.00160   3.13030
   R16        3.10557  -0.00047   0.00420  -0.00152   0.00269   3.10826
   R17        1.82120  -0.00002  -0.00022   0.00018  -0.00003   1.82117
   R18        1.82405  -0.00005   0.00037  -0.00057  -0.00020   1.82385
   R19        1.83014  -0.00095  -0.00074   0.00125   0.00054   1.83068
   R20        1.82796  -0.00076  -0.00060   0.00157   0.00100   1.82895
    A1        1.90009  -0.00056   0.00678  -0.00156   0.00518   1.90528
    A2        1.97691   0.00089  -0.00587   0.00191  -0.00397   1.97294
    A3        1.80607   0.00030   0.00101  -0.00198  -0.00109   1.80498
    A4        1.90454  -0.00089  -0.00213   0.00105  -0.00101   1.90353
    A5        2.00885  -0.00038   0.00684  -0.00146   0.00535   2.01420
    A6        1.86814   0.00077  -0.00668   0.00201  -0.00472   1.86342
    A7        1.92594  -0.00035  -0.00080  -0.00130  -0.00210   1.92384
[...]

                          Input orientation:                          
 ---------------------------------------------------------------------
 Center     Atomic      Atomic             Coordinates (Angstroms)
 Number     Number       Type             X           Y           Z
 ---------------------------------------------------------------------
      1         14           0       -2.019739    0.011697   -0.059572
      2          8           0       -2.625149   -0.943848   -1.259852
      3          8           0       -3.315771    0.594114    0.777578
      4          8           0       -1.104723    1.293982   -0.491981
      5          8           0       -1.028452   -1.014779    0.812588
      6          1           0       -1.277224   -1.947242    0.781321
      7          1           0       -0.154862    1.182363   -0.690902
      8          1           0       -3.177843    1.423467    1.249541
      9         14           0        2.475318   -0.077188    0.131676
     10          8           0        3.944522    0.541872    0.553519
     11          8           0        1.728863    1.124183   -0.769747
     12          8           0        1.660138   -0.463524    1.491797
     13          8           0        2.529741   -1.401309   -0.846769
     14          1           0        2.784353   -1.258302   -1.765357
     15          1           0        0.724301   -0.724967    1.382829
     16          1           0        4.332092    0.225529    1.377426
     17          1           0        2.043377    2.018034   -0.582017
     18          1           0       -3.464973   -0.672042   -1.647001
 ---------------------------------------------------------------------
                    Distance matrix (angstroms):
                    1          2          3          4          5
     1  Si   0.000000
     2  O    1.649321   0.000000
     3  O    1.649160   2.644505   0.000000
     4  O    1.633551   2.812331   2.643923   0.000000
     5  O    1.672413   2.617151   2.796710   2.652941   0.000000
     6  H    2.257404   2.643877   3.257941   3.486630   0.965584
     7  H    2.290590   3.308594   3.534659   0.976865   2.801976
     8  H    2.246792   3.493809   0.964157   2.710626   3.279611
     9  Si   4.500002   5.357444   5.865539   3.884038   3.690409
    10  O    6.019085   6.975404   7.263938   5.210914   5.217351
    11  O    3.974166   4.845036   5.303161   2.852227   3.831674
    12  O    4.021701   5.115268   5.136962   3.829969   2.827317
    13  O    4.828461   5.191608   6.386722   4.538700   3.945074
    14  H    5.253751   5.442162   6.863634   4.822920   4.608968
    15  H    3.186370   4.272059   4.292841   3.307023   1.865827
    16  H    6.515861   7.531658   7.680201   5.847669   5.531079
    17  H    4.561496   5.570219   5.709335   3.231546   4.536409
    18  H    2.253027   0.963882   2.739342   3.281783   3.479035
                    6          7          8          9         10
     6  H    0.000000
     7  H    3.636147   0.000000
     8  H    3.897853   3.600259   0.000000
     9  Si   4.242725   3.030008   5.954815   0.000000
    10  O    5.789147   4.331716   7.210392   1.649166   0.000000
    11  O    4.569029   1.886272   5.314401   1.677215   2.645613
    12  O    3.366644   3.281363   5.198604   1.632086   2.666383
    13  O    4.176326   3.729175   6.704505   1.647304   2.781792
    14  H    4.843203   3.968662   7.199255   2.255940   3.156549
    15  H    2.421130   2.951473   4.456486   2.247457   3.558435
    16  H    6.044891   5.032521   7.605954   2.256356   0.963901
    17  H    5.348691   2.354242   5.565002   2.255190   2.661363
    18  H    3.508437   3.912771   3.586580   6.229334   7.824097
                   11         12         13         14         15
    11  O    0.000000
    12  O    2.764077   0.000000
    13  O    2.650556   2.665434   0.000000
    14  H    2.789540   3.536182   0.963889   0.000000
    15  H    3.010330   0.977761   2.947568   3.799912   0.000000
    16  H    3.492096   2.761741   3.292736   3.804514   3.730901
    17  H    0.965987   3.256641   3.463892   3.561420   3.622794
    18  H    5.565243   6.013510   6.091699   6.277881   5.170367
                   16         17         18
    16  H    0.000000
    17  H    3.505811   0.000000
    18  H    8.411125   6.221946   0.000000
 Stoichiometry    H8O8Si2
 Framework group  C1[X(H8O8Si2)]
 Deg. of freedom    48
 Full point group                 C1      NOp   1
 Largest Abelian subgroup         C1      NOp   1
 Largest concise Abelian subgroup C1      NOp   1
                         Standard orientation:                         
 ---------------------------------------------------------------------
 Center     Atomic      Atomic             Coordinates (Angstroms)
 Number     Number       Type             X           Y           Z
 ---------------------------------------------------------------------
      1         14           0       -2.246775    0.029548   -0.009605
      2          8           0       -2.895558   -1.164525   -0.944233
      3          8           0       -3.510847    0.788773    0.728924
      4          8           0       -1.354805    1.180202   -0.750466
      5          8           0       -1.217515   -0.783780    1.027742
      6          1           0       -1.463595   -1.698901    1.213082
      7          1           0       -0.413157    1.022782   -0.957306
      8          1           0       -3.357603    1.701199    1.000207
      9         14           0        2.252652   -0.036795    0.018249
     10          8           0        3.734963    0.652980    0.234377
     11          8           0        1.466166    0.939453   -1.095946
     12          8           0        1.493706   -0.109235    1.461321
     13          8           0        2.273464   -1.544559   -0.644946
     14          1           0        2.490807   -1.609195   -1.581784
     15          1           0        0.555334   -0.383726    1.449966
     16          1           0        4.156224    0.524524    1.091782
     17          1           0        1.784306    1.851150   -1.122891
     18          1           0       -3.751183   -0.980845   -1.348258
 ---------------------------------------------------------------------
 Rotational constants (GHZ):           1.9485297           0.4141194           0.4089171

 **********************************************************************

            Population analysis using the SCF Density.

 **********************************************************************

 Orbital symmetries:
       Occupied  (A) (A) (A) (A) (A) (A) (A) (A) (A) (A) (A) (A)
                 (A) (A) (A) (A) (A) (A) (A) (A) (A) (A) (A) (A)
                 (A) (A) (A) (A) (A) (A) (A) (A) (A) (A) (A) (A)
                 (A) (A) (A) (A) (A) (A) (A) (A) (A) (A) (A) (A)
                 (A) (A)
       Virtual   (A) (A) (A) (A) (A) (A) (A) (A) (A) (A) (A) (A)
                 (A) (A) (A) (A) (A) (A) (A) (A) (A) (A) (A) (A)
                 (A) (A) (A) (A) (A) (A) (A) (A) (A) (A) (A) (A)
                 (A) (A) (A) (A) (A) (A) (A) (A) (A) (A) (A) (A)
                 (A) (A) (A) (A) (A) (A) (A) (A) (A) (A) (A) (A)
                 (A) (A) (A) (A) (A) (A) (A) (A) (A) (A) (A) (A)
                 (A) (A) (A) (A) (A) (A) (A) (A) (A) (A) (A) (A)
                 (A) (A) (A) (A) (A) (A) (A) (A) (A) (A) (A) (A)
                 (A) (A) (A) (A) (A) (A) (A) (A) (A) (A) (A) (A)
                 (A) (A) (A) (A) (A) (A) (A) (A) (A) (A) (A) (A)
                 (A) (A) (A) (A) (A) (A) (A) (A) (A) (A) (A) (A)
                 (A) (A) (A) (A) (A) (A) (A) (A) (A) (A) (A) (A)
                 (A) (A) (A) (A) (A) (A) (A) (A) (A) (A) (A) (A)
                 (A) (A) (A) (A) (A) (A) (A) (A) (A) (A) (A) (A)
                 (A) (A) (A) (A) (A) (A) (A) (A) (A) (A) (A) (A)
                 (A) (A) (A) (A) (A) (A) (A) (A)
 The electronic state is 1-A.
 Alpha  occ. eigenvalues --  -66.22458 -66.22280 -19.18392 -19.18321 -19.17335
 Alpha  occ. eigenvalues --  -19.17178 -19.17111 -19.16824 -19.15829 -19.15476
 Alpha  occ. eigenvalues --   -5.35783  -5.35632  -3.71796  -3.71759  -3.71725
 Alpha  occ. eigenvalues --   -3.71660  -3.71612  -3.71546  -1.05177  -1.04749
 Alpha  occ. eigenvalues --   -1.01897  -1.01627  -1.01113  -1.01004  -0.99890
 Alpha  occ. eigenvalues --   -0.99652  -0.60162  -0.59718  -0.54440  -0.54324
 Alpha  occ. eigenvalues --   -0.53573  -0.53504  -0.52953  -0.52093  -0.41908
 Alpha  occ. eigenvalues --   -0.41128  -0.40177  -0.39689  -0.38707  -0.38427
 Alpha  occ. eigenvalues --   -0.38056  -0.37236  -0.36402  -0.36021  -0.35549
 Alpha  occ. eigenvalues --   -0.35374  -0.33161  -0.32993  -0.32508  -0.32450
 Alpha virt. eigenvalues --   -0.03116  -0.01362   0.01116   0.01369   0.02145
 Alpha virt. eigenvalues --    0.02598   0.04826   0.06618   0.10044   0.10650
 Alpha virt. eigenvalues --    0.11100   0.11719   0.11918   0.13002   0.13317
 Alpha virt. eigenvalues --    0.13576   0.14171   0.15127   0.15602   0.15641
 Alpha virt. eigenvalues --    0.16084   0.16319   0.16894   0.17605   0.17912
 Alpha virt. eigenvalues --    0.18707   0.19054   0.19574   0.20132   0.21617
 Alpha virt. eigenvalues --    0.21796   0.22402   0.23283   0.24040   0.24384
 Alpha virt. eigenvalues --    0.24685   0.25317   0.26377   0.26739   0.26923
 Alpha virt. eigenvalues --    0.27630   0.29285   0.29431   0.29627   0.31410
 Alpha virt. eigenvalues --    0.31913   0.33303   0.35074   0.35430   0.36419
 Alpha virt. eigenvalues --    0.37528   0.38664   0.40069   0.41894   0.42640
 Alpha virt. eigenvalues --    0.44172   0.45526   0.46659   0.47808   0.47931
 Alpha virt. eigenvalues --    0.49509   0.57381   0.60634   0.61712   0.63713
 Alpha virt. eigenvalues --    0.64030   0.65919   0.69779   0.92857   0.93768
 Alpha virt. eigenvalues --    0.94494   0.95429   0.96222   0.97301   0.99160
 Alpha virt. eigenvalues --    1.00316   1.00394   1.01797   1.02535   1.04020
 Alpha virt. eigenvalues --    1.11813   1.14670   1.16109   1.16833   1.17132
 Alpha virt. eigenvalues --    1.17755   1.18559   1.18919   1.19648   1.20688
 Alpha virt. eigenvalues --    1.21124   1.22224   1.22648   1.23769   1.24167
 Alpha virt. eigenvalues --    1.25635   1.26108   1.27317   1.28204   1.28785
 Alpha virt. eigenvalues --    1.29802   1.32327   1.33438   1.34241   1.34958
 Alpha virt. eigenvalues --    1.35852   1.47783   1.49633   1.51335   1.53610
 Alpha virt. eigenvalues --    1.53978   1.56643   1.58441   1.58973   1.60520
 Alpha virt. eigenvalues --    1.61648   1.62310   1.63921   1.64332   1.65834
 Alpha virt. eigenvalues --    1.67057   1.69738   1.71433   1.73209   1.74464
 Alpha virt. eigenvalues --    1.75813   1.78434   1.81226   1.86045   1.88611
 Alpha virt. eigenvalues --    1.91097   1.91565   1.94060   1.96718   2.03398
 Alpha virt. eigenvalues --    2.04242   2.11668   2.12368   2.34641   2.35579
 Alpha virt. eigenvalues --    2.37993   2.38716   2.39112   2.39297   2.44243
 Alpha virt. eigenvalues --    2.46033   2.47005   2.49276   2.57488   2.58229
 Alpha virt. eigenvalues --    2.59762   2.60509   2.60936   2.61129   2.62921
 Alpha virt. eigenvalues --    2.64176   2.64262   2.64501   2.64874   2.66900
 Alpha virt. eigenvalues --    2.68928   2.69739   2.70575   2.71880   2.77895
 Alpha virt. eigenvalues --    2.79030   2.80272   2.81912   2.84358   2.85846
 Alpha virt. eigenvalues --    3.00659   3.00864   3.40761   3.41752   3.42544
 Alpha virt. eigenvalues --    3.43234   3.44987   3.46677   3.58722   3.60817
 Alpha virt. eigenvalues --    4.12238   4.16867   4.19349   4.22180   4.24791
 Alpha virt. eigenvalues --    4.28377   4.31694   4.35125
          Condensed to atoms (all electrons):
               1          2          3          4          5          6
     1  Si  11.709990   0.068048   0.022067   0.125990  -0.102599   0.031350
     2  O    0.068048   8.505845   0.026449  -0.024537   0.084722  -0.000427
     3  O    0.022067   0.026449   8.497968   0.051965   0.042600  -0.005331
     4  O    0.125990  -0.024537   0.051965   8.492816   0.036229   0.005977
     5  O   -0.102599   0.084722   0.042600   0.036229   8.705769   0.235598
     6  H    0.031350  -0.000427  -0.005331   0.005977   0.235598   0.339089
     7  H    0.012003  -0.004672   0.005390   0.237839  -0.000444   0.000011
     8  H    0.024984   0.006326   0.243414  -0.001532  -0.005887   0.000040
     9  Si  -0.004030   0.000601  -0.001230  -0.006285   0.009061  -0.001333
    10  O   -0.000411   0.000054  -0.000046   0.000779  -0.000024   0.000006
    11  O   -0.003316  -0.001927   0.000508  -0.007089  -0.000130   0.000137
    12  O   -0.029074  -0.001088   0.000067   0.013871  -0.002143   0.001564
    13  O   -0.000481  -0.000278   0.000115  -0.005700   0.000242  -0.000192
    14  H   -0.000785   0.000006  -0.000000   0.000076  -0.000044   0.000001
    15  H    0.007487   0.000102   0.000115  -0.002159   0.007178  -0.000137
    16  H    0.000097  -0.000000   0.000000   0.000005   0.000016  -0.000000
    17  H   -0.000381   0.000013  -0.000005   0.000990   0.000034  -0.000000
    18  H    0.027882   0.239755  -0.002234  -0.006124   0.003915   0.000093
               7          8          9         10         11         12
     1  Si   0.012003   0.024984  -0.004030  -0.000411  -0.003316  -0.029074
     2  O   -0.004672   0.006326   0.000601   0.000054  -0.001927  -0.001088
     3  O    0.005390   0.243414  -0.001230  -0.000046   0.000508   0.000067
     4  O    0.237839  -0.001532  -0.006285   0.000779  -0.007089   0.013871
     5  O   -0.000444  -0.005887   0.009061  -0.000024  -0.000130  -0.002143
     6  H    0.000011   0.000040  -0.001333   0.000006   0.000137   0.001564
     7  H    0.292494   0.000040   0.012569  -0.000087   0.006480   0.000042
     8  H    0.000040   0.358833  -0.000083   0.000000   0.000035  -0.000020
     9  Si   0.012569  -0.000083  11.606001   0.032945  -0.072154   0.179038
    10  O   -0.000087   0.000000   0.032945   8.560743   0.076708   0.021220
    11  O    0.006480   0.000035  -0.072154   0.076708   8.681121   0.009776
    12  O    0.000042  -0.000020   0.179038   0.021220   0.009776   8.445930
    13  O   -0.002544   0.000000   0.067496  -0.048755   0.082570   0.033983
    14  H    0.000021  -0.000000   0.041546  -0.005431  -0.008615   0.005587
    15  H   -0.000085   0.000009   0.018164   0.005732  -0.005575   0.241054
    16  H   -0.000002  -0.000000   0.024965   0.243746   0.003178  -0.000935
    17  H   -0.001808  -0.000000   0.024753   0.001892   0.242718  -0.006086
    18  H    0.000046   0.000062   0.000054   0.000000  -0.000021   0.000002
              13         14         15         16         17         18
     1  Si  -0.000481  -0.000785   0.007487   0.000097  -0.000381   0.027882
     2  O   -0.000278   0.000006   0.000102  -0.000000   0.000013   0.239755
     3  O    0.000115  -0.000000   0.000115   0.000000  -0.000005  -0.002234
     4  O   -0.005700   0.000076  -0.002159   0.000005   0.000990  -0.006124
     5  O    0.000242  -0.000044   0.007178   0.000016   0.000034   0.003915
     6  H   -0.000192   0.000001  -0.000137  -0.000000  -0.000000   0.000093
     7  H   -0.002544   0.000021  -0.000085  -0.000002  -0.001808   0.000046
     8  H    0.000000  -0.000000   0.000009  -0.000000  -0.000000   0.000062
     9  Si   0.067496   0.041546   0.018164   0.024965   0.024753   0.000054
    10  O   -0.048755  -0.005431   0.005732   0.243746   0.001892   0.000000
    11  O    0.082570  -0.008615  -0.005575   0.003178   0.242718  -0.000021
    12  O    0.033983   0.005587   0.241054  -0.000935  -0.006086   0.000002
    13  O    8.477371   0.233869  -0.003389  -0.002769   0.002261  -0.000010
    14  H    0.233869   0.369430   0.000020   0.000049   0.000166   0.000000
    15  H   -0.003389   0.000020   0.282889   0.000019   0.000089  -0.000003
    16  H   -0.002769   0.000049   0.000019   0.354023   0.000082  -0.000000
    17  H    0.002261   0.000166   0.000089   0.000082   0.344267   0.000000
    18  H   -0.000010   0.000000  -0.000003  -0.000000   0.000000   0.358813
 Mulliken charges:
               1
     1  Si   2.111179
     2  O   -0.898992
     3  O   -0.881811
     4  O   -0.913112
     5  O   -1.014094
     6  H    0.393557
     7  H    0.442709
     8  H    0.373778
     9  Si   2.067921
    10  O   -0.889069
    11  O   -1.004402
    12  O   -0.912787
    13  O   -0.833788
    14  H    0.364106
    15  H    0.448492
    16  H    0.377526
    17  H    0.391016
    18  H    0.377770
 Sum of Mulliken charges =  -0.00000
 Mulliken charges with hydrogens summed into heavy atoms:
               1
     1  Si   2.111179
     2  O   -0.521221
     3  O   -0.508033
     4  O   -0.470403
     5  O   -0.620537
     9  Si   2.067921
    10  O   -0.511543
    11  O   -0.613386
    12  O   -0.464294
    13  O   -0.469682
 Electronic spatial extent (au):  <R**2>=           2720.5376
 Charge=             -0.0000 electrons
 Dipole moment (field-independent basis, Debye):
    X=              0.0469    Y=              0.6698    Z=             -0.4530  Tot=              0.8100
 Quadrupole moment (field-independent basis, Debye-Ang):
   XX=            -65.7666   YY=            -68.2709   ZZ=            -69.6339
   XY=              1.4828   XZ=              0.4977   YZ=              1.1602
 Traceless Quadrupole moment (field-independent basis, Debye-Ang):
   XX=              2.1239   YY=             -0.3804   ZZ=             -1.7434
   XY=              1.4828   XZ=              0.4977   YZ=              1.1602
 Octapole moment (field-independent basis, Debye-Ang**2):
  XXX=              2.7622  YYY=             14.7673  ZZZ=            -10.1121  XYY=             -8.3096
  XXY=             -0.2668  XXZ=             -4.8571  XZZ=              7.0329  YZZ=             -6.2924
  YYZ=              6.2797  XYZ=              0.8475
 Hexadecapole moment (field-independent basis, Debye-Ang**3):
 XXXX=          -2428.9343 YYYY=           -354.0552 ZZZZ=           -349.5093 XXXY=             -5.0365
 XXXZ=            195.7140 YYYX=              6.9407 YYYZ=             -8.8950 ZZZX=            -11.0728
 ZZZY=             14.1757 XXYY=           -460.1809 XXZZ=           -397.6424 YYZZ=            -95.7125
 XXYZ=             48.7183 YYXZ=            -51.8241 ZZXY=             -5.3801
 N-N= 8.244141991969D+02 E-N=-4.458752868674D+03  KE= 1.178182345692D+03
 1\1\GINC-GRA608\FOpt\RB3LYP\6-31+G(d,p)\H8O8Si2\SARASHS\11-Aug-2020\0\
 \#n B3LYP/6-31+G(d,p) EmpiricalDispersion=GD3 Opt=modredundant\\Title\
 \0,1\Si,-2.0197392659,0.011696855,-0.0595716884\O,-2.6251487174,-0.943
 8483947,-1.2598515666\O,-3.3157708651,0.5941138521,0.7775781544\O,-1.1
 047232303,1.2939822998,-0.4919809395\O,-1.0284517183,-1.0147785026,0.8
 125881829\H,-1.277223919,-1.9472419927,0.7813214237\H,-0.1548620182,1.
 1823625348,-0.6909019429\H,-3.1778432317,1.4234667622,1.2495408525\Si,
 2.4753180157,-0.077187646,0.1316755884\O,3.944522458,0.5418721422,0.55
 35193598\O,1.7288630691,1.1241833275,-0.7697469539\O,1.6601381022,-0.4
 635244633,1.491797447\O,2.5297407184,-1.401308691,-0.8467689559\H,2.78
 43532316,-1.2583018337,-1.7653566107\H,0.7243014633,-0.7249669052,1.38
 28293865\H,4.3320922615,0.2255288894,1.3774257184\H,2.043376686,2.0180
 339385,-0.5820167988\H,-3.4649730397,-0.6720421723,-1.6470006569\\Vers
 ion=ES64L-G16RevB.01\State=1-A\HF=-1186.0700216\RMSD=2.739e-09\RMSF=6.
 152e-04\Dipole=0.0242136,0.2963113,-0.1147274\Quadrupole=1.5347849,-0.
 7118182,-0.8229667,0.9440323,0.7042167,1.0325967\PG=C01 [X(H8O8Si2)]\\
 @


 TO DRY ONE'S EYES AND LAUGH AT A FALL
 AND BAFFLED, GET UP AND BEGIN AGAIN.
           R. BROWNING
 Job cpu time:       0 days  4 hours  3 minutes 38.6 seconds.
 Elapsed time:       0 days  0 hours 15 minutes 17.9 seconds.
 File lengths (MBytes):  RWF=     40 Int=      0 D2E=      0 Chk=      5 Scr=      1
 Normal termination of Gaussian 16 at Tue Aug 11 13:31:25 2020.
