 Entering Gaussian System, Link 0=g16
 Initial command:
 /opt/software/gaussian/g16.b01/l1.exe "/localscratch/sarashs.37159200.0/Gau-11793.inp" -scrdir="/localscratch/sarashs.37159200.0/"
 Entering Link 1 = /opt/software/gaussian/g16.b01/l1.exe PID=     11794.
  
 Copyright (c) 1988-2017, Gaussian, Inc.  All Rights Reserved.
  
 This is part of the Gaussian(R) 16 program.  It is based on
 the Gaussian(R) 09 system (copyright 2009, Gaussian, Inc.),
 the Gaussian(R) 03 system (copyright 2003, Gaussian, Inc.),
 the Gaussian(R) 98 system (copyright 1998, Gaussian, Inc.),
 the Gaussian(R) 94 system (copyright 1995, Gaussian, Inc.),
 the Gaussian 92(TM) system (copyright 1992, Gaussian, Inc.),
 the Gaussian 90(TM) system (copyright 1990, Gaussian, Inc.),
 the Gaussian 88(TM) system (copyright 1988, Gaussian, Inc.),
 the Gaussian 86(TM) system (copyright 1986, Carnegie Mellon
 University), and the Gaussian 82(TM) system (copyright 1983,
 Carnegie Mellon University). Gaussian is a federally registered
 trademark of Gaussian, Inc.
  
 This software contains proprietary and confidential information,
 including trade secrets, belonging to Gaussian, Inc.
  
 This software is provided under written license and may be
 used, copied, transmitted, or stored only in accord with that
 written license.
  
 The following legend is applicable only to US Government
 contracts under FAR:
  
                    RESTRICTED RIGHTS LEGEND
  
 Use, reproduction and disclosure by the US Government is
 subject to restrictions as set forth in subparagraphs (a)
 and (c) of the Commercial Computer Software - Restricted
 Rights clause in FAR 52.227-19.
  
 Gaussian, Inc.
 340 Quinnipiac St., Bldg. 40, Wallingford CT 06492
  
  
 ---------------------------------------------------------------
 Warning -- This program may not be used in any manner that
 competes with the business of Gaussian, Inc. or will provide
 assistance to any competitor of Gaussian, Inc.  The licensee
 of this program is prohibited from giving any competitor of
 Gaussian, Inc. access to this program.  By using this program,
 the user acknowledges that Gaussian, Inc. is engaged in the
 business of creating and licensing software in the field of
 computational chemistry and represents and warrants to the
 licensee that it is not a competitor of Gaussian, Inc. and that
 it will not use this program in any manner prohibited above.
 ---------------------------------------------------------------
  

 Cite this work as:
 Gaussian 16, Revision B.01,
 M. J. Frisch, G. W. Trucks, H. B. Schlegel, G. E. Scuseria, 
 M. A. Robb, J. R. Cheeseman, G. Scalmani, V. Barone, 
 G. A. Petersson, H. Nakatsuji, X. Li, M. Caricato, A. V. Marenich, 
 J. Bloino, B. G. Janesko, R. Gomperts, B. Mennucci, H. P. Hratchian, 
 J. V. Ortiz, A. F. Izmaylov, J. L. Sonnenberg, D. Williams-Young, 
 F. Ding, F. Lipparini, F. Egidi, J. Goings, B. Peng, A. Petrone, 
 T. Henderson, D. Ranasinghe, V. G. Zakrzewski, J. Gao, N. Rega, 
 G. Zheng, W. Liang, M. Hada, M. Ehara, K. Toyota, R. Fukuda, 
 J. Hasegawa, M. Ishida, T. Nakajima, Y. Honda, O. Kitao, H. Nakai, 
 T. Vreven, K. Throssell, J. A. Montgomery, Jr., J. E. Peralta, 
 F. Ogliaro, M. J. Bearpark, J. J. Heyd, E. N. Brothers, K. N. Kudin, 
 V. N. Staroverov, T. A. Keith, R. Kobayashi, J. Normand, 
 K. Raghavachari, A. P. Rendell, J. C. Burant, S. S. Iyengar, 
 J. Tomasi, M. Cossi, J. M. Millam, M. Klene, C. Adamo, R. Cammi, 
 J. W. Ochterski, R. L. Martin, K. Morokuma, O. Farkas, 
 J. B. Foresman, and D. J. Fox, Gaussian, Inc., Wallingford CT, 2016.
 
 ******************************************
 Gaussian 16:  ES64L-G16RevB.01 20-Dec-2017
                12-Aug-2020 
 ******************************************
 %NProcShared=16
 Will use up to   16 processors via shared memory.
 -------------------------------------------------------------
 #n B3LYP/6-31+G(d,p) EmpiricalDispersion=GD3 Opt=modredundant
 -------------------------------------------------------------
 1/18=120,19=15,26=3,38=1/1,3;
 2/9=110,12=2,17=6,18=5,40=1/2;
 3/5=1,6=6,7=111,11=2,25=1,30=1,71=1,74=-5,124=31/1,2,3;
 4//1;
 5/5=2,38=5/2;
 6/7=2,8=2,9=2,10=2,28=1/1;
 7//1,2,3,16;
 1/18=20,19=15,26=3/3(2);
 2/9=110/2;
 99//99;
 2/9=110/2;
 3/5=1,6=6,7=111,11=2,25=1,30=1,71=1,74=-5,124=31/1,2,3;
 4/5=5,16=3,69=1/1;
 5/5=2,38=5/2;
 7//1,2,3,16;
 1/18=20,19=15,26=3/3(-5);
 2/9=110/2;
 6/7=2,8=2,9=2,10=2,19=2,28=1/1;
 99/9=1/99;
 -----
 Title
 -----
 Symbolic Z-matrix:
 Charge =  0 Multiplicity = 1
 Si                   -2.19994   0.01881  -0.0167 
 O                    -2.33222  -1.3696   -0.89538 
 O                    -3.7362    0.52694   0.31387 
 O                    -1.39713   1.25903  -0.6962 
 O                    -1.36558  -0.43795   1.36211 
 H                    -1.777    -1.15027   1.86815 
 H                    -0.42211   1.21199  -0.80536 
 H                    -3.84082   1.46911   0.49029 
 Si                    2.19977  -0.02536   0.00869 
 O                     3.08682   0.89134   1.05632 
 O                     1.30751   1.10609  -0.83954 
 O                     1.17226  -1.11979   0.63169 
 O                     3.27943  -0.85236  -0.92696 
 H                     2.95651  -1.67842  -1.30553 
 H                     0.30632  -0.8572    1.00949 
 H                     3.89666   0.49462   1.39678 
 H                     1.75152   1.95056  -0.98751 
 H                    -2.98786  -1.3782   -1.60142 
 
 Add virtual bond connecting atoms O11        and H7         Dist= 3.28D+00.
 Add virtual bond connecting atoms H15        and O5         Dist= 3.32D+00.
 The following ModRedundant input section has been read:
 B       1       9 F                                                           
 

 GradGradGradGradGradGradGradGradGradGradGradGradGradGradGradGradGradGrad
 Berny optimization.
 Initialization pass.
                           ----------------------------
                           !    Initial Parameters    !
                           ! (Angstroms and Degrees)  !
 --------------------------                            --------------------------
 ! Name  Definition              Value          Derivative Info.                !
 --------------------------------------------------------------------------------
 ! R1    R(1,2)                  1.6484         estimate D2E/DX2                !
 ! R2    R(1,3)                  1.6515         estimate D2E/DX2                !
 ! R3    R(1,4)                  1.6262         estimate D2E/DX2                !
 ! R4    R(1,5)                  1.6751         estimate D2E/DX2                !
 ! R5    R(1,9)                  4.4            Frozen                          !
 ! R6    R(2,18)                 0.9636         estimate D2E/DX2                !
 ! R7    R(3,8)                  0.9642         estimate D2E/DX2                !
 ! R8    R(4,7)                  0.9822         estimate D2E/DX2                !
 ! R9    R(5,6)                  0.9658         estimate D2E/DX2                !
 ! R10   R(5,15)                 1.7594         estimate D2E/DX2                !
 ! R11   R(7,11)                 1.7332         estimate D2E/DX2                !
 ! R12   R(9,10)                 1.6507         estimate D2E/DX2                !
 ! R13   R(9,11)                 1.6721         estimate D2E/DX2                !
 ! R14   R(9,12)                 1.6253         estimate D2E/DX2                !
 ! R15   R(9,13)                 1.6508         estimate D2E/DX2                !
 ! R16   R(10,16)                0.9639         estimate D2E/DX2                !
 ! R17   R(11,17)                0.9655         estimate D2E/DX2                !
 ! R18   R(12,15)                0.9806         estimate D2E/DX2                !
 ! R19   R(13,14)                0.9644         estimate D2E/DX2                !
 ! A1    A(2,1,3)              106.9294         estimate D2E/DX2                !
 ! A2    A(2,1,4)              117.339          estimate D2E/DX2                !
 ! A3    A(2,1,5)              104.4225         estimate D2E/DX2                !
 ! A4    A(3,1,4)              107.9517         estimate D2E/DX2                !
 ! A5    A(3,1,5)              112.4868         estimate D2E/DX2                !
 ! A6    A(4,1,5)              107.8189         estimate D2E/DX2                !
 ! A7    A(1,2,18)             116.9174         estimate D2E/DX2                !
 ! A8    A(1,3,8)              115.9874         estimate D2E/DX2                !
 ! A9    A(1,4,7)              119.9985         estimate D2E/DX2                !
 ! A10   A(1,5,6)              114.8486         estimate D2E/DX2                !
 ! A11   A(1,5,15)             111.9215         estimate D2E/DX2                !
 ! A12   A(6,5,15)             109.5162         estimate D2E/DX2                !
 ! A13   A(10,9,11)            103.47           estimate D2E/DX2                !
 ! A14   A(10,9,12)            118.0603         estimate D2E/DX2                !
 ! A15   A(10,9,13)            106.6475         estimate D2E/DX2                !
 ! A16   A(11,9,12)            108.2247         estimate D2E/DX2                !
 ! A17   A(11,9,13)            113.6083         estimate D2E/DX2                !
 ! A18   A(12,9,13)            107.0611         estimate D2E/DX2                !
 ! A19   A(9,10,16)            116.5568         estimate D2E/DX2                !
 ! A20   A(7,11,9)             124.3241         estimate D2E/DX2                !
 ! A21   A(7,11,17)            114.1112         estimate D2E/DX2                !
 ! A22   A(9,11,17)            115.1003         estimate D2E/DX2                !
 ! A23   A(9,12,15)            121.7111         estimate D2E/DX2                !
 ! A24   A(9,13,14)            115.6352         estimate D2E/DX2                !
 ! A25   L(4,7,11,5,-1)        175.4486         estimate D2E/DX2                !
 ! A26   L(5,15,12,7,-1)       173.3053         estimate D2E/DX2                !
 ! A27   L(4,7,11,5,-2)        182.8992         estimate D2E/DX2                !
 ! A28   L(5,15,12,7,-2)       189.5115         estimate D2E/DX2                !
 ! D1    D(3,1,2,18)            43.83           estimate D2E/DX2                !
 ! D2    D(4,1,2,18)           -77.5058         estimate D2E/DX2                !
 ! D3    D(5,1,2,18)           163.2419         estimate D2E/DX2                !
 ! D4    D(2,1,3,8)           -155.7774         estimate D2E/DX2                !
 ! D5    D(4,1,3,8)            -28.6751         estimate D2E/DX2                !
 ! D6    D(5,1,3,8)             90.1574         estimate D2E/DX2                !
 ! D7    D(2,1,4,7)            -71.073          estimate D2E/DX2                !
 ! D8    D(3,1,4,7)            168.1242         estimate D2E/DX2                !
 ! D9    D(5,1,4,7)             46.359          estimate D2E/DX2                !
 ! D10   D(2,1,5,6)            -56.8341         estimate D2E/DX2                !
 ! D11   D(2,1,5,15)            68.8428         estimate D2E/DX2                !
 ! D12   D(3,1,5,6)             58.7519         estimate D2E/DX2                !
 ! D13   D(3,1,5,15)          -175.5712         estimate D2E/DX2                !
 ! D14   D(4,1,5,6)            177.6621         estimate D2E/DX2                !
 ! D15   D(4,1,5,15)           -56.6609         estimate D2E/DX2                !
 ! D16   D(1,4,11,9)           -13.248          estimate D2E/DX2                !
 ! D17   D(1,4,11,17)         -161.8156         estimate D2E/DX2                !
 ! D18   D(1,5,12,9)            64.6552         estimate D2E/DX2                !
 ! D19   D(6,5,12,9)          -168.7793         estimate D2E/DX2                !
 ! D20   D(11,9,10,16)        -157.1915         estimate D2E/DX2                !
 ! D21   D(12,9,10,16)          83.3293         estimate D2E/DX2                !
 ! D22   D(13,9,10,16)         -37.0957         estimate D2E/DX2                !
 ! D23   D(10,9,11,7)         -116.5095         estimate D2E/DX2                !
 ! D24   D(10,9,11,17)          33.4949         estimate D2E/DX2                !
 ! D25   D(12,9,11,7)            9.514          estimate D2E/DX2                !
 ! D26   D(12,9,11,17)         159.5184         estimate D2E/DX2                !
 ! D27   D(13,9,11,7)          128.2651         estimate D2E/DX2                !
 ! D28   D(13,9,11,17)         -81.7305         estimate D2E/DX2                !
 ! D29   D(10,9,12,15)          77.229          estimate D2E/DX2                !
 ! D30   D(11,9,12,15)         -39.7343         estimate D2E/DX2                !
 ! D31   D(13,9,12,15)        -162.5603         estimate D2E/DX2                !
 ! D32   D(10,9,13,14)         154.69           estimate D2E/DX2                !
 ! D33   D(11,9,13,14)         -91.9803         estimate D2E/DX2                !
 ! D34   D(12,9,13,14)          27.4362         estimate D2E/DX2                !
 --------------------------------------------------------------------------------
 Trust Radius=3.00D-01 FncErr=1.00D-07 GrdErr=1.00D-06 EigMax=2.50D+02 EigMin=1.00D-04
 Number of steps in this run=     91 maximum allowed number of steps=    108.
 GradGradGradGradGradGradGradGradGradGradGradGradGradGradGradGradGradGrad

                          Input orientation:                          
 ---------------------------------------------------------------------
 Center     Atomic      Atomic             Coordinates (Angstroms)
 Number     Number       Type             X           Y           Z
 ---------------------------------------------------------------------
      1         14           0       -2.199939    0.018807   -0.016700
      2          8           0       -2.332216   -1.369602   -0.895380
      3          8           0       -3.736204    0.526939    0.313869
      4          8           0       -1.397127    1.259026   -0.696202
      5          8           0       -1.365584   -0.437947    1.362113
      6          1           0       -1.777001   -1.150270    1.868153
      7          1           0       -0.422106    1.211990   -0.805363
      8          1           0       -3.840818    1.469109    0.490292
      9         14           0        2.199774   -0.025358    0.008686
     10          8           0        3.086818    0.891340    1.056322
     11          8           0        1.307515    1.106087   -0.839537
     12          8           0        1.172256   -1.119794    0.631693
     13          8           0        3.279428   -0.852358   -0.926963
     14          1           0        2.956512   -1.678423   -1.305533
     15          1           0        0.306324   -0.857201    1.009488
     16          1           0        3.896655    0.494621    1.396776
     17          1           0        1.751524    1.950557   -0.987511
     18          1           0       -2.987864   -1.378201   -1.601420
 ---------------------------------------------------------------------
                    Distance matrix (angstroms):
                    1          2          3          4          5
     1  Si   0.000000
     2  O    1.648410   0.000000
     3  O    1.651540   2.651478   0.000000
     4  O    1.626153   2.797096   2.650939   0.000000
     5  O    1.675081   2.626525   2.765802   2.667841   0.000000
     6  H    2.257939   2.827275   3.011197   3.539058   0.965787
     7  H    2.281746   3.212669   3.564438   0.982240   2.882776
     8  H    2.247866   3.500607   0.964237   2.724615   3.244028
     9  Si   4.400008   4.812823   5.969422   3.883839   3.835853
    10  O    5.464658   6.187643   6.872965   4.828281   4.656651
    11  O    3.763173   4.402249   5.206233   2.712752   3.791670
    12  O    3.617807   3.830885   5.187073   3.744839   2.727464
    13  O    5.622363   5.635520   7.256805   5.136279   5.194973
    14  H    5.579486   5.313590   7.230389   5.287160   5.228349
    15  H    2.846367   3.294385   4.329176   3.207731   1.759373
    16  H    6.276366   6.894066   7.709362   5.743605   5.344347
    17  H    4.504242   5.263922   5.816824   3.236832   4.576248
    18  H    2.254727   0.963556   2.803195   3.210114   3.506907
                    6          7          8          9         10
     6  H    0.000000
     7  H    3.816242   0.000000
     8  H    3.608183   3.665027   0.000000
     9  Si   4.531863   3.011305   6.241324   0.000000
    10  O    5.337038   3.985127   6.974693   1.650674   0.000000
    11  O    4.683692   1.733197   5.329687   1.672057   2.608892
    12  O    3.198106   3.169280   5.643875   1.625337   2.809006
    13  O    5.785231   4.240009   7.622055   1.650764   2.647829
    14  H    5.723406   4.474340   7.702963   2.243312   3.492710
    15  H    2.272320   2.847077   4.783312   2.297547   3.284926
    16  H    5.926064   4.900585   7.851104   2.253126   0.963914
    17  H    5.497311   2.302895   5.804307   2.257781   2.661241
    18  H    3.681858   3.731744   3.634551   5.597697   7.008293
                   11         12         13         14         15
    11  O    0.000000
    12  O    2.671584   0.000000
    13  O    2.780574   2.634598   0.000000
    14  H    3.269532   2.692300   0.964351   0.000000
    15  H    2.876765   0.980572   3.548128   3.613478   0.000000
    16  H    3.475433   3.257919   2.755918   3.592835   3.855890
    17  H    0.965489   3.519152   3.192881   3.837008   3.736323
    18  H    5.020203   4.728654   6.325374   5.959303   4.235559
                   16         17         18
    16  H    0.000000
    17  H    3.522238   0.000000
    18  H    7.739073   5.824029   0.000000
 Stoichiometry    H8O8Si2
 Framework group  C1[X(H8O8Si2)]
 Deg. of freedom    48
 Full point group                 C1      NOp   1
 Largest Abelian subgroup         C1      NOp   1
 Largest concise Abelian subgroup C1      NOp   1
                         Standard orientation:                         
 ---------------------------------------------------------------------
 Center     Atomic      Atomic             Coordinates (Angstroms)
 Number     Number       Type             X           Y           Z
 ---------------------------------------------------------------------
      1         14           0        2.199939   -0.018807   -0.016700
      2          8           0        2.332216    1.369602   -0.895380
      3          8           0        3.736204   -0.526939    0.313869
      4          8           0        1.397127   -1.259026   -0.696202
      5          8           0        1.365584    0.437947    1.362113
      6          1           0        1.777001    1.150270    1.868153
      7          1           0        0.422106   -1.211990   -0.805363
      8          1           0        3.840818   -1.469109    0.490292
      9         14           0       -2.199774    0.025358    0.008686
     10          8           0       -3.086818   -0.891340    1.056322
     11          8           0       -1.307515   -1.106087   -0.839537
     12          8           0       -1.172256    1.119794    0.631693
     13          8           0       -3.279428    0.852358   -0.926963
     14          1           0       -2.956512    1.678423   -1.305533
     15          1           0       -0.306324    0.857201    1.009488
     16          1           0       -3.896655   -0.494621    1.396776
     17          1           0       -1.751524   -1.950557   -0.987511
     18          1           0        2.987864    1.378201   -1.601420
 ---------------------------------------------------------------------
 Rotational constants (GHZ):           1.9804114           0.4267829           0.4170497
 Standard basis: 6-31+G(d,p) (6D, 7F)
 There are   238 symmetry adapted cartesian basis functions of A   symmetry.
 There are   238 symmetry adapted basis functions of A   symmetry.
   238 basis functions,   424 primitive gaussians,   238 cartesian basis functions
    50 alpha electrons       50 beta electrons
       nuclear repulsion energy       830.6357217381 Hartrees.
 NAtoms=   18 NActive=   18 NUniq=   18 SFac= 1.00D+00 NAtFMM=   60 NAOKFM=F Big=F
 Integral buffers will be    131072 words long.
 Raffenetti 2 integral format.
 Two-electron integral symmetry is turned on.
 Nuclear repulsion after empirical dispersion term =      830.6217757212 Hartrees.
 One-electron integrals computed using PRISM.
 NBasis=   238 RedAO= T EigKep=  2.69D-04  NBF=   238
 NBsUse=   238 1.00D-06 EigRej= -1.00D+00 NBFU=   238
 ExpMin= 3.31D-02 ExpMax= 1.61D+04 ExpMxC= 2.43D+03 IAcc=3 IRadAn=         5 AccDes= 0.00D+00
 Harris functional with IExCor=  402 and IRadAn=       5 diagonalized for initial guess.
 HarFok:  IExCor=  402 AccDes= 0.00D+00 IRadAn=         5 IDoV= 1 UseB2=F ITyADJ=14
 ICtDFT=  3500011 ScaDFX=  1.000000  1.000000  1.000000  1.000000
 FoFCou: FMM=F IPFlag=           0 FMFlag=      100000 FMFlg1=           0
         NFxFlg=           0 DoJE=T BraDBF=F KetDBF=T FulRan=T
         wScrn=  0.000000 ICntrl=       500 IOpCl=  0 I1Cent=   200000004 NGrid=           0
         NMat0=    1 NMatS0=      1 NMatT0=    0 NMatD0=    1 NMtDS0=    0 NMtDT0=    0
 Petite list used in FoFCou.
 Requested convergence on RMS density matrix=1.00D-08 within 128 cycles.
 Requested convergence on MAX density matrix=1.00D-06.
 Requested convergence on             energy=1.00D-06.
 No special actions if energy rises.
 SCF Done:  E(RB3LYP) =  -1186.07008914     A.U. after   12 cycles
            NFock= 12  Conv=0.18D-08     -V/T= 2.0066

 **********************************************************************

            Population analysis using the SCF Density.

 **********************************************************************

 Orbital symmetries:
       Occupied  (A) (A) (A) (A) (A) (A) (A) (A) (A) (A) (A) (A)
                 (A) (A) (A) (A) (A) (A) (A) (A) (A) (A) (A) (A)
                 (A) (A) (A) (A) (A) (A) (A) (A) (A) (A) (A) (A)
                 (A) (A) (A) (A) (A) (A) (A) (A) (A) (A) (A) (A)
                 (A) (A)
       Virtual   (A) (A) (A) (A) (A) (A) (A) (A) (A) (A) (A) (A)
                 (A) (A) (A) (A) (A) (A) (A) (A) (A) (A) (A) (A)
                 (A) (A) (A) (A) (A) (A) (A) (A) (A) (A) (A) (A)
                 (A) (A) (A) (A) (A) (A) (A) (A) (A) (A) (A) (A)
                 (A) (A) (A) (A) (A) (A) (A) (A) (A) (A) (A) (A)
                 (A) (A) (A) (A) (A) (A) (A) (A) (A) (A) (A) (A)
                 (A) (A) (A) (A) (A) (A) (A) (A) (A) (A) (A) (A)
                 (A) (A) (A) (A) (A) (A) (A) (A) (A) (A) (A) (A)
                 (A) (A) (A) (A) (A) (A) (A) (A) (A) (A) (A) (A)
                 (A) (A) (A) (A) (A) (A) (A) (A) (A) (A) (A) (A)
                 (A) (A) (A) (A) (A) (A) (A) (A) (A) (A) (A) (A)
                 (A) (A) (A) (A) (A) (A) (A) (A) (A) (A) (A) (A)
                 (A) (A) (A) (A) (A) (A) (A) (A) (A) (A) (A) (A)
                 (A) (A) (A) (A) (A) (A) (A) (A) (A) (A) (A) (A)
                 (A) (A) (A) (A) (A) (A) (A) (A) (A) (A) (A) (A)
                 (A) (A) (A) (A) (A) (A) (A) (A)
 The electronic state is 1-A.
 Alpha  occ. eigenvalues --  -66.22301 -66.22180 -19.18615 -19.18512 -19.17023
 Alpha  occ. eigenvalues --  -19.16959 -19.16855 -19.16835 -19.15553 -19.15354
 Alpha  occ. eigenvalues --   -5.35648  -5.35535  -3.71662  -3.71618  -3.71591
 Alpha  occ. eigenvalues --   -3.71556  -3.71496  -3.71478  -1.05333  -1.04714
 Alpha  occ. eigenvalues --   -1.02114  -1.01779  -1.00823  -1.00777  -0.99728
 Alpha  occ. eigenvalues --   -0.99461  -0.60201  -0.59837  -0.54777  -0.54553
 Alpha  occ. eigenvalues --   -0.53378  -0.53255  -0.52857  -0.52369  -0.42157
 Alpha  occ. eigenvalues --   -0.41796  -0.39814  -0.39021  -0.38648  -0.38221
 Alpha  occ. eigenvalues --   -0.37462  -0.37325  -0.36755  -0.36197  -0.35263
 Alpha  occ. eigenvalues --   -0.34969  -0.33571  -0.32955  -0.32453  -0.32197
 Alpha virt. eigenvalues --   -0.02970  -0.01292   0.01111   0.01630   0.02257
 Alpha virt. eigenvalues --    0.02467   0.04757   0.07182   0.10316   0.10811
 Alpha virt. eigenvalues --    0.11204   0.11543   0.12314   0.12947   0.13891
 Alpha virt. eigenvalues --    0.14350   0.14769   0.15260   0.15346   0.15550
 Alpha virt. eigenvalues --    0.16191   0.16540   0.16756   0.17745   0.18199
 Alpha virt. eigenvalues --    0.18292   0.19400   0.20075   0.20630   0.21332
 Alpha virt. eigenvalues --    0.21807   0.23476   0.23703   0.23799   0.24557
 Alpha virt. eigenvalues --    0.25097   0.25832   0.26274   0.26665   0.27336
 Alpha virt. eigenvalues --    0.27841   0.28087   0.29882   0.30693   0.30996
 Alpha virt. eigenvalues --    0.32200   0.34186   0.34428   0.35827   0.36962
 Alpha virt. eigenvalues --    0.38617   0.39193   0.40259   0.41788   0.43050
 Alpha virt. eigenvalues --    0.44603   0.46415   0.46921   0.48472   0.49002
 Alpha virt. eigenvalues --    0.50342   0.56689   0.61214   0.62082   0.63110
 Alpha virt. eigenvalues --    0.65687   0.66623   0.70924   0.92893   0.94248
 Alpha virt. eigenvalues --    0.94788   0.94850   0.96683   0.97675   0.99070
 Alpha virt. eigenvalues --    1.00743   1.01277   1.01998   1.02707   1.04407
 Alpha virt. eigenvalues --    1.14040   1.14635   1.15828   1.16392   1.17768
 Alpha virt. eigenvalues --    1.18101   1.18470   1.18990   1.19384   1.20552
 Alpha virt. eigenvalues --    1.21097   1.22257   1.22816   1.24051   1.24637
 Alpha virt. eigenvalues --    1.25221   1.26582   1.27454   1.27882   1.31006
 Alpha virt. eigenvalues --    1.31582   1.33123   1.33542   1.33746   1.35979
 Alpha virt. eigenvalues --    1.36878   1.48877   1.50325   1.52182   1.53579
 Alpha virt. eigenvalues --    1.55356   1.57125   1.59216   1.60030   1.61362
 Alpha virt. eigenvalues --    1.61835   1.62439   1.64556   1.65381   1.66803
 Alpha virt. eigenvalues --    1.68430   1.69680   1.71895   1.73633   1.74256
 Alpha virt. eigenvalues --    1.75215   1.79423   1.80510   1.86370   1.88704
 Alpha virt. eigenvalues --    1.89655   1.92697   1.93915   1.94726   2.02755
 Alpha virt. eigenvalues --    2.03806   2.11249   2.12763   2.35048   2.36376
 Alpha virt. eigenvalues --    2.37328   2.38380   2.39547   2.40141   2.44362
 Alpha virt. eigenvalues --    2.46074   2.51561   2.55652   2.57430   2.57943
 Alpha virt. eigenvalues --    2.60022   2.60505   2.61544   2.62324   2.63440
 Alpha virt. eigenvalues --    2.63705   2.64661   2.64743   2.66293   2.67656
 Alpha virt. eigenvalues --    2.68985   2.69220   2.72544   2.73694   2.76881
 Alpha virt. eigenvalues --    2.78638   2.80929   2.81797   2.86089   2.86746
 Alpha virt. eigenvalues --    3.00497   3.02026   3.40860   3.41348   3.42642
 Alpha virt. eigenvalues --    3.43829   3.44493   3.46658   3.59737   3.62506
 Alpha virt. eigenvalues --    4.13962   4.15582   4.21549   4.22522   4.28099
 Alpha virt. eigenvalues --    4.29313   4.31650   4.38982
          Condensed to atoms (all electrons):
               1          2          3          4          5          6
     1  Si  11.539628   0.095048   0.039457   0.170084   0.047268   0.031277
     2  O    0.095048   8.534988  -0.006087  -0.028018   0.048239  -0.006822
     3  O    0.039457  -0.006087   8.544942   0.045159   0.003531  -0.004647
     4  O    0.170084  -0.028018   0.045159   8.479169   0.031595   0.007301
     5  O    0.047268   0.048239   0.003531   0.031595   8.567911   0.249009
     6  H    0.031277  -0.006822  -0.004647   0.007301   0.249009   0.344380
     7  H    0.017287  -0.004020   0.005813   0.229516  -0.001727  -0.000037
     8  H    0.029239   0.006773   0.241089  -0.003096  -0.006194   0.000061
     9  Si   0.029345  -0.004474   0.000112  -0.044714  -0.020239  -0.001594
    10  O   -0.002988   0.000166   0.000001   0.000877   0.000393   0.000052
    11  O   -0.007358  -0.002242   0.000181   0.004141   0.011639   0.000218
    12  O   -0.004225  -0.000818  -0.000199   0.006753  -0.011916   0.002493
    13  O   -0.002886   0.000389  -0.000056   0.000845  -0.000132  -0.000013
    14  H   -0.000107  -0.000010   0.000000   0.000041   0.000056  -0.000000
    15  H    0.002441   0.000462   0.000386  -0.002205   0.016976  -0.003834
    16  H    0.000030  -0.000001   0.000000  -0.000007  -0.000026   0.000000
    17  H   -0.000566  -0.000023   0.000013   0.001173   0.000022  -0.000000
    18  H    0.027510   0.238978  -0.002099  -0.007409   0.005688   0.000028
               7          8          9         10         11         12
     1  Si   0.017287   0.029239   0.029345  -0.002988  -0.007358  -0.004225
     2  O   -0.004020   0.006773  -0.004474   0.000166  -0.002242  -0.000818
     3  O    0.005813   0.241089   0.000112   0.000001   0.000181  -0.000199
     4  O    0.229516  -0.003096  -0.044714   0.000877   0.004141   0.006753
     5  O   -0.001727  -0.006194  -0.020239   0.000393   0.011639  -0.011916
     6  H   -0.000037   0.000061  -0.001594   0.000052   0.000218   0.002493
     7  H    0.273685   0.000044   0.010250  -0.000783   0.003633  -0.000223
     8  H    0.000044   0.358998   0.000054  -0.000000   0.000041  -0.000003
     9  Si   0.010250   0.000054  11.732754   0.079026  -0.132245   0.135445
    10  O   -0.000783  -0.000000   0.079026   8.485152   0.086051  -0.022622
    11  O    0.003633   0.000041  -0.132245   0.086051   8.733617   0.035174
    12  O   -0.000223  -0.000003   0.135445  -0.022622   0.035174   8.481382
    13  O    0.000232  -0.000000  -0.007455   0.027792   0.055592   0.065538
    14  H    0.000002   0.000000   0.026227   0.005983  -0.005906  -0.001492
    15  H   -0.000053  -0.000003   0.018710  -0.005027  -0.001846   0.236721
    16  H   -0.000003  -0.000000   0.027104   0.242863   0.004136  -0.006494
    17  H   -0.000089  -0.000000   0.032891  -0.000831   0.230992   0.006012
    18  H    0.000076   0.000049  -0.000250  -0.000000  -0.000008  -0.000091
              13         14         15         16         17         18
     1  Si  -0.002886  -0.000107   0.002441   0.000030  -0.000566   0.027510
     2  O    0.000389  -0.000010   0.000462  -0.000001  -0.000023   0.238978
     3  O   -0.000056   0.000000   0.000386   0.000000   0.000013  -0.002099
     4  O    0.000845   0.000041  -0.002205  -0.000007   0.001173  -0.007409
     5  O   -0.000132   0.000056   0.016976  -0.000026   0.000022   0.005688
     6  H   -0.000013  -0.000000  -0.003834   0.000000  -0.000000   0.000028
     7  H    0.000232   0.000002  -0.000053  -0.000003  -0.000089   0.000076
     8  H   -0.000000   0.000000  -0.000003  -0.000000  -0.000000   0.000049
     9  Si  -0.007455   0.026227   0.018710   0.027104   0.032891  -0.000250
    10  O    0.027792   0.005983  -0.005027   0.242863  -0.000831  -0.000000
    11  O    0.055592  -0.005906  -0.001846   0.004136   0.230992  -0.000008
    12  O    0.065538  -0.001492   0.236721  -0.006494   0.006012  -0.000091
    13  O    8.510920   0.243714   0.005444  -0.002140  -0.005454   0.000000
    14  H    0.243714   0.357873   0.000052   0.000063   0.000055   0.000000
    15  H    0.005444   0.000052   0.282445   0.000052   0.000019  -0.000021
    16  H   -0.002140   0.000063   0.000052   0.359268   0.000069   0.000000
    17  H   -0.005454   0.000055   0.000019   0.000069   0.341236   0.000000
    18  H    0.000000   0.000000  -0.000021   0.000000   0.000000   0.360789
 Mulliken charges:
               1
     1  Si   1.989518
     2  O   -0.872528
     3  O   -0.867596
     4  O   -0.891205
     5  O   -0.942095
     6  H    0.382128
     7  H    0.466397
     8  H    0.372948
     9  Si   2.119052
    10  O   -0.896105
    11  O   -1.015809
    12  O   -0.921435
    13  O   -0.892330
    14  H    0.373449
    15  H    0.449282
    16  H    0.375087
    17  H    0.394482
    18  H    0.376761
 Sum of Mulliken charges =  -0.00000
 Mulliken charges with hydrogens summed into heavy atoms:
               1
     1  Si   1.989518
     2  O   -0.495767
     3  O   -0.494648
     4  O   -0.424808
     5  O   -0.559967
     9  Si   2.119052
    10  O   -0.521018
    11  O   -0.621327
    12  O   -0.472153
    13  O   -0.518881
 Electronic spatial extent (au):  <R**2>=           2662.3150
 Charge=             -0.0000 electrons
 Dipole moment (field-independent basis, Debye):
    X=              0.1667    Y=             -0.0783    Z=              0.0658  Tot=              0.1955
 Quadrupole moment (field-independent basis, Debye-Ang):
   XX=            -66.9323   YY=            -68.3680   ZZ=            -67.4731
   XY=             -0.2714   XZ=             -0.9590   YZ=              0.3062
 Traceless Quadrupole moment (field-independent basis, Debye-Ang):
   XX=              0.6588   YY=             -0.7769   ZZ=              0.1180
   XY=             -0.2714   XZ=             -0.9590   YZ=              0.3062
 Octapole moment (field-independent basis, Debye-Ang**2):
  XXX=            -11.2624  YYY=             -9.0618  ZZZ=             -0.0299  XYY=              2.0861
  XXY=             -5.7386  XXZ=             11.2568  XZZ=              9.1213  YZZ=             14.4977
  YYZ=             -6.7303  XYZ=             -6.6007
 Hexadecapole moment (field-independent basis, Debye-Ang**3):
 XXXX=          -2462.4162 YYYY=           -364.9572 ZZZZ=           -308.0844 XXXY=            -37.8223
 XXXZ=           -148.2115 YYYX=            -19.7270 YYYZ=              1.1861 ZZZX=            -13.4258
 ZZZY=              0.9633 XXYY=           -406.3677 XXZZ=           -399.0456 YYZZ=            -96.7058
 XXYZ=            -26.6985 YYXZ=             53.1540 ZZXY=             19.2122
 N-N= 8.306217757212D+02 E-N=-4.471271656461D+03  KE= 1.178236753314D+03
 Calling FoFJK, ICntrl=      2127 FMM=F ISym2X=0 I1Cent= 0 IOpClX= 0 NMat=1 NMatS=1 NMatT=0.
 ***** Axes restored to original set *****
 -------------------------------------------------------------------
 Center     Atomic                   Forces (Hartrees/Bohr)
 Number     Number              X              Y              Z
 -------------------------------------------------------------------
      1       14          -0.003539741    0.000960920    0.000160405
      2        8           0.000247850   -0.000369313    0.000098795
      3        8           0.000143721   -0.000045885   -0.000085992
      4        8           0.000499474   -0.000562553   -0.000094622
      5        8          -0.000231901    0.000084093   -0.000224592
      6        1           0.000009365   -0.000327515    0.000245294
      7        1          -0.000942148    0.000254380    0.000052523
      8        1           0.000023151    0.000018205    0.000022154
      9       14           0.003795633   -0.000454734    0.000332064
     10        8          -0.000078855   -0.000027589   -0.000060775
     11        8          -0.000086369   -0.000076368   -0.000226457
     12        8          -0.000231492    0.000078917    0.000335869
     13        8          -0.000229713    0.000251552    0.000075479
     14        1           0.000077748   -0.000077585   -0.000031488
     15        1           0.000663583    0.000060049   -0.000493458
     16        1          -0.000030407   -0.000009943    0.000001787
     17        1           0.000106793    0.000103845    0.000050574
     18        1          -0.000196692    0.000139524   -0.000157561
 -------------------------------------------------------------------
 Cartesian Forces:  Max     0.003795633 RMS     0.000762908

 GradGradGradGradGradGradGradGradGradGradGradGradGradGradGradGradGradGrad
 Berny optimization.
 FormGI is forming the generalized inverse of G from B-inverse, IUseBI=4.
 Internal  Forces:  Max     0.002466475 RMS     0.000360223
 Search for a local minimum.
 Step number   1 out of a maximum of   91
 All quantities printed in internal units (Hartrees-Bohrs-Radians)
 Mixed Optimization -- En-DIIS/RFO-DIIS
 Second derivative matrix not updated -- first step.
 ITU=  0
     Eigenvalues ---    0.00637   0.02162   0.02677   0.03013   0.03455
     Eigenvalues ---    0.03657   0.03668   0.03669   0.03699   0.03837
     Eigenvalues ---    0.04582   0.04888   0.05784   0.07903   0.08339
     Eigenvalues ---    0.09014   0.10473   0.11568   0.11689   0.11922
     Eigenvalues ---    0.12236   0.13863   0.14517   0.15101   0.16000
     Eigenvalues ---    0.16000   0.16000   0.16000   0.17708   0.19078
     Eigenvalues ---    0.19584   0.35912   0.37717   0.42417   0.42534
     Eigenvalues ---    0.42547   0.42891   0.43072   0.44924   0.48207
     Eigenvalues ---    0.49117   0.54247   0.54309   0.54548   0.54572
     Eigenvalues ---    0.54640   0.547151000.000001000.000001000.00000
     Eigenvalues --- 1000.000001000.000001000.000001000.000001000.00000
     Eigenvalues --- 1000.000001000.000001000.000001000.000001000.00000
     Eigenvalues --- 1000.000001000.000001000.000001000.000001000.00000
     Eigenvalues --- 1000.000001000.000001000.000001000.000001000.00000
     Eigenvalues --- 1000.000001000.000001000.000001000.000001000.00000
     Eigenvalues --- 1000.000001000.000001000.000001000.000001000.00000
     Eigenvalues --- 1000.00000
 RFO step:  Lambda=-1.49508581D-05 EMin= 6.36854896D-03
 Linear search not attempted -- first point.
 Iteration  1 RMS(Cart)=  0.01002846 RMS(Int)=  0.00002755
 Iteration  2 RMS(Cart)=  0.00004242 RMS(Int)=  0.00001108
 Iteration  3 RMS(Cart)=  0.00000000 RMS(Int)=  0.00001108
 Iteration  1 RMS(Cart)=  0.00000721 RMS(Int)=  0.00000272
 Iteration  2 RMS(Cart)=  0.00000195 RMS(Int)=  0.00000298
 Iteration  3 RMS(Cart)=  0.00000053 RMS(Int)=  0.00000312
 Variable       Old X    -DE/DX   Delta X   Delta X   Delta X     New X
                                 (Linear)    (Quad)   (Total)
    R1        3.11504   0.00022   0.00000   0.00051   0.00051   3.11556
    R2        3.12096  -0.00018   0.00000  -0.00042  -0.00042   3.12054
    R3        3.07298  -0.00022   0.00000  -0.00105  -0.00103   3.07195
    R4        3.16545   0.00030   0.00000  -0.00021  -0.00019   3.16525
    R5        8.31481   0.00247   0.00000   0.00000  -0.00000   8.31481
    R6        1.82086   0.00025   0.00000   0.00045   0.00045   1.82131
    R7        1.82214   0.00002   0.00000   0.00004   0.00004   1.82218
    R8        1.85616  -0.00020   0.00000  -0.00166  -0.00163   1.85453
    R9        1.82507   0.00037   0.00000   0.00068   0.00068   1.82575
   R10        3.32473   0.00073   0.00000  -0.00037  -0.00034   3.32439
   R11        3.27527   0.00076   0.00000   0.00157   0.00160   3.27687
   R12        3.11932  -0.00012   0.00000  -0.00028  -0.00028   3.11904
   R13        3.15973   0.00063   0.00000   0.00061   0.00063   3.16036
   R14        3.07144   0.00012   0.00000  -0.00090  -0.00087   3.07057
   R15        3.11949  -0.00021   0.00000  -0.00050  -0.00050   3.11899
   R16        1.82153  -0.00002   0.00000  -0.00004  -0.00004   1.82150
   R17        1.82451   0.00013   0.00000   0.00024   0.00024   1.82475
   R18        1.85301  -0.00008   0.00000  -0.00152  -0.00149   1.85153
   R19        1.82236   0.00005   0.00000   0.00010   0.00010   1.82246
    A1        1.86627  -0.00005   0.00000  -0.00012  -0.00013   1.86614
    A2        2.04795  -0.00007   0.00000  -0.00080  -0.00080   2.04715
    A3        1.82252  -0.00001   0.00000  -0.00077  -0.00076   1.82176
    A4        1.88411   0.00024   0.00000  -0.00048  -0.00046   1.88365
    A5        1.96326   0.00026   0.00000  -0.00011  -0.00009   1.96317
    A6        1.88179  -0.00034   0.00000   0.00225   0.00221   1.88401
    A7        2.04059  -0.00027   0.00000  -0.00167  -0.00167   2.03893
    A8        2.02436  -0.00004   0.00000  -0.00025  -0.00025   2.02411
    A9        2.09437   0.00019   0.00000   0.00106   0.00106   2.09543
   A10        2.00449  -0.00002   0.00000   0.00145   0.00144   2.00593
   A11        1.95340   0.00047   0.00000  -0.00043  -0.00040   1.95300
   A12        1.91142  -0.00012   0.00000  -0.00038  -0.00039   1.91103
   A13        1.80589   0.00007   0.00000  -0.00064  -0.00063   1.80526
   A14        2.06054   0.00012   0.00000  -0.00045  -0.00044   2.06010
   A15        1.86135  -0.00006   0.00000  -0.00001  -0.00001   1.86134
   A16        1.88888  -0.00047   0.00000   0.00131   0.00127   1.89015
   A17        1.98284   0.00012   0.00000  -0.00080  -0.00079   1.98205
   A18        1.86857   0.00022   0.00000   0.00046   0.00047   1.86904
   A19        2.03430  -0.00002   0.00000  -0.00015  -0.00015   2.03415
   A20        2.16986   0.00035   0.00000   0.00137   0.00137   2.17124
   A21        1.99162  -0.00015   0.00000  -0.00071  -0.00072   1.99090
   A22        2.00888  -0.00021   0.00000  -0.00141  -0.00141   2.00747
   A23        2.12426  -0.00006   0.00000  -0.00349  -0.00349   2.12077
   A24        2.01822   0.00017   0.00000   0.00107   0.00107   2.01929
   A25        3.06216  -0.00003   0.00000  -0.00595  -0.00595   3.05620
   A26        3.02475   0.00026   0.00000   0.00372   0.00372   3.02847
   A27        3.19219   0.00034   0.00000   0.01210   0.01211   3.20430
   A28        3.30760  -0.00018   0.00000  -0.01176  -0.01178   3.29582
    D1        0.76498  -0.00000   0.00000  -0.00003  -0.00003   0.76495
    D2       -1.35273  -0.00023   0.00000   0.00123   0.00121  -1.35152
    D3        2.84911   0.00026   0.00000  -0.00059  -0.00057   2.84854
    D4       -2.71883   0.00001   0.00000  -0.00024  -0.00024  -2.71907
    D5       -0.50047   0.00004   0.00000  -0.00160  -0.00158  -0.50206
    D6        1.57354  -0.00008   0.00000   0.00081   0.00079   1.57434
    D7       -1.24046  -0.00001   0.00000  -0.00060  -0.00060  -1.24106
    D8        2.93432  -0.00009   0.00000   0.00048   0.00048   2.93480
    D9        0.80912  -0.00033   0.00000  -0.00042  -0.00043   0.80869
   D10       -0.99194  -0.00005   0.00000   0.00139   0.00138  -0.99056
   D11        1.20153   0.00018   0.00000   0.00169   0.00170   1.20323
   D12        1.02541   0.00001   0.00000   0.00075   0.00075   1.02616
   D13       -3.06429   0.00024   0.00000   0.00105   0.00106  -3.06323
   D14        3.10079   0.00024   0.00000   0.00156   0.00156   3.10235
   D15       -0.98892   0.00047   0.00000   0.00186   0.00188  -0.98704
   D16       -0.23122  -0.00009   0.00000   0.00423   0.00424  -0.22698
   D17       -2.82422   0.00012   0.00000   0.01135   0.01135  -2.81287
   D18        1.12845  -0.00002   0.00000   0.00444   0.00442   1.13287
   D19       -2.94575   0.00026   0.00000   0.00829   0.00829  -2.93747
   D20       -2.74351  -0.00021   0.00000   0.00041   0.00039  -2.74312
   D21        1.45437   0.00025   0.00000  -0.00051  -0.00050   1.45387
   D22       -0.64744  -0.00007   0.00000  -0.00081  -0.00081  -0.64826
   D23       -2.03347   0.00014   0.00000   0.00176   0.00176  -2.03171
   D24        0.58460   0.00007   0.00000  -0.00015  -0.00015   0.58445
   D25        0.16605   0.00008   0.00000   0.00155   0.00156   0.16761
   D26        2.78412   0.00000   0.00000  -0.00036  -0.00035   2.78377
   D27        2.23865   0.00011   0.00000   0.00252   0.00252   2.24117
   D28       -1.42647   0.00004   0.00000   0.00061   0.00061  -1.42585
   D29        1.34790   0.00003   0.00000   0.00031   0.00030   1.34820
   D30       -0.69349   0.00021   0.00000   0.00043   0.00043  -0.69306
   D31       -2.83721   0.00021   0.00000   0.00036   0.00037  -2.83685
   D32        2.69985   0.00002   0.00000  -0.00025  -0.00025   2.69960
   D33       -1.60536   0.00014   0.00000  -0.00143  -0.00142  -1.60678
   D34        0.47885  -0.00022   0.00000   0.00002   0.00001   0.47886
         Item               Value     Threshold  Converged?
 Maximum Force            0.000649     0.000450     NO 
 RMS     Force            0.000165     0.000300     YES
 Maximum Displacement     0.031086     0.001800     NO 
 RMS     Displacement     0.010044     0.001200     NO 
 Predicted change in Energy=-7.735588D-06
 GradGradGradGradGradGradGradGradGradGradGradGradGradGradGradGradGradGrad

                          Input orientation:                          
 ---------------------------------------------------------------------
 Center     Atomic      Atomic             Coordinates (Angstroms)
 Number     Number       Type             X           Y           Z
 ---------------------------------------------------------------------
      1         14           0       -2.200079    0.019356   -0.016432
      2          8           0       -2.343175   -1.369883   -0.892610
      3          8           0       -3.732181    0.534611    0.321253
      4          8           0       -1.396851    1.254483   -0.703368
      5          8           0       -1.361379   -0.440586    1.358556
      6          1           0       -1.772449   -1.151431    1.867628
      7          1           0       -0.423559    1.204386   -0.818653
      8          1           0       -3.831490    1.477489    0.497062
      9         14           0        2.199617   -0.026509    0.008786
     10          8           0        3.076148    0.893439    1.062176
     11          8           0        1.307306    1.102400   -0.843404
     12          8           0        1.175028   -1.126587    0.625439
     13          8           0        3.288428   -0.846155   -0.922249
     14          1           0        2.972962   -1.673726   -1.303931
     15          1           0        0.307091   -0.865858    0.997845
     16          1           0        3.885963    0.500269    1.406718
     17          1           0        1.749670    1.948632   -0.987017
     18          1           0       -3.003102   -1.375008   -1.595016
 ---------------------------------------------------------------------
                    Distance matrix (angstroms):
                    1          2          3          4          5
     1  Si   0.000000
     2  O    1.648682   0.000000
     3  O    1.651320   2.651396   0.000000
     4  O    1.625606   2.796183   2.649874   0.000000
     5  O    1.674979   2.625883   2.765449   2.669466   0.000000
     6  H    2.259047   2.827077   3.012402   3.541119   0.966144
     7  H    2.281201   3.212049   3.563000   0.981376   2.885425
     8  H    2.247516   3.500542   0.964256   2.723642   3.243860
     9  Si   4.400007   4.822254   5.966467   3.883644   3.830670
    10  O    5.455821   6.189740   6.857921   4.822367   4.643179
    11  O    3.762793   4.409152   5.203387   2.712048   3.788313
    12  O    3.621675   3.839455   5.189683   3.748305   2.727896
    13  O    5.629682   5.655981   7.262352   5.139302   5.194926
    14  H    5.593258   5.340676   7.244096   5.294370   5.234117
    15  H    2.845745   3.294203   4.328373   3.208332   1.759193
    16  H    6.268695   6.898300   7.695163   5.738417   5.331241
    17  H    4.501628   5.269994   5.810484   3.234640   4.570416
    18  H    2.254113   0.963796   2.801837   3.207694   3.505992
                    6          7          8          9         10
     6  H    0.000000
     7  H    3.819095   0.000000
     8  H    3.609615   3.663289   0.000000
     9  Si   4.527478   3.013438   6.234956   0.000000
    10  O    5.323452   3.985242   6.955280   1.650527   0.000000
    11  O    4.681276   1.734043   5.323980   1.672389   2.608391
    12  O    3.198636   3.174006   5.644724   1.624874   2.808114
    13  O    5.786975   4.241968   7.622794   1.650501   2.647488
    14  H    5.731536   4.478323   7.711958   2.243794   3.492770
    15  H    2.272127   2.849460   4.782249   2.294428   3.281302
    16  H    5.912544   4.901024   7.832082   2.252880   0.963894
    17  H    5.492241   2.303296   5.794291   2.257268   2.659355
    18  H    3.681629   3.729619   3.633147   5.608825   7.011690
                   11         12         13         14         15
    11  O    0.000000
    12  O    2.672711   0.000000
    13  O    2.779915   2.634471   0.000000
    14  H    3.270072   2.693399   0.964403   0.000000
    15  H    2.874834   0.979786   3.546198   3.613543   0.000000
    16  H    3.474922   3.256720   2.755720   3.592693   3.852506
    17  H    0.965618   3.519546   3.191051   3.836450   3.733908
    18  H    5.028130   4.738027   6.349460   5.990601   4.235509
                   16         17         18
    16  H    0.000000
    17  H    3.520152   0.000000
    18  H    7.745081   5.831388   0.000000
 Stoichiometry    H8O8Si2
 Framework group  C1[X(H8O8Si2)]
 Deg. of freedom    48
 Full point group                 C1      NOp   1
 Largest Abelian subgroup         C1      NOp   1
 Largest concise Abelian subgroup C1      NOp   1
                         Standard orientation:                         
 ---------------------------------------------------------------------
 Center     Atomic      Atomic             Coordinates (Angstroms)
 Number     Number       Type             X           Y           Z
 ---------------------------------------------------------------------
      1         14           0        2.199937   -0.018995   -0.016371
      2          8           0        2.342648    1.367350   -0.897184
      3          8           0        3.732182   -0.532678    0.323058
      4          8           0        1.397076   -1.256642   -0.699188
      5          8           0        1.361082    0.445298    1.357059
      6          1           0        1.771939    1.157959    1.863759
      7          1           0        0.423771   -1.207209   -0.814655
      8          1           0        3.831758   -1.474934    0.502019
      9         14           0       -2.199773    0.025690    0.008624
     10          8           0       -3.076057   -0.890985    1.065068
     11          8           0       -1.307122   -1.105805   -0.839775
     12          8           0       -1.175510    1.128117    0.621613
     13          8           0       -3.288803    0.841907   -0.925162
     14          1           0       -2.973569    1.668288   -1.309603
     15          1           0       -0.307504    0.868883    0.994903
     16          1           0       -3.885991   -0.496898    1.408282
     17          1           0       -1.749241   -1.952639   -0.980566
     18          1           0        3.002586    1.370317   -1.599593
 ---------------------------------------------------------------------
 Rotational constants (GHZ):           1.9800580           0.4267153           0.4169998
 Standard basis: 6-31+G(d,p) (6D, 7F)
 There are   238 symmetry adapted cartesian basis functions of A   symmetry.
 There are   238 symmetry adapted basis functions of A   symmetry.
   238 basis functions,   424 primitive gaussians,   238 cartesian basis functions
    50 alpha electrons       50 beta electrons
       nuclear repulsion energy       830.6490321029 Hartrees.
 NAtoms=   18 NActive=   18 NUniq=   18 SFac= 1.00D+00 NAtFMM=   60 NAOKFM=F Big=F
 Integral buffers will be    131072 words long.
 Raffenetti 2 integral format.
 Two-electron integral symmetry is turned on.
 Nuclear repulsion after empirical dispersion term =      830.6350854926 Hartrees.
 One-electron integrals computed using PRISM.
 NBasis=   238 RedAO= T EigKep=  2.70D-04  NBF=   238
 NBsUse=   238 1.00D-06 EigRej= -1.00D+00 NBFU=   238
 Initial guess from the checkpoint file:  "/localscratch/sarashs.37159200.0/Gau-11794.chk"
 B after Tr=    -0.000000    0.000000    0.000000
         Rot=    0.999999    0.001649   -0.000005   -0.000110 Ang=   0.19 deg.
 ExpMin= 3.31D-02 ExpMax= 1.61D+04 ExpMxC= 2.43D+03 IAcc=3 IRadAn=         5 AccDes= 0.00D+00
 Harris functional with IExCor=  402 and IRadAn=       5 diagonalized for initial guess.
 HarFok:  IExCor=  402 AccDes= 0.00D+00 IRadAn=         5 IDoV= 1 UseB2=F ITyADJ=14
 ICtDFT=  3500011 ScaDFX=  1.000000  1.000000  1.000000  1.000000
 FoFCou: FMM=F IPFlag=           0 FMFlag=      100000 FMFlg1=           0
         NFxFlg=           0 DoJE=T BraDBF=F KetDBF=T FulRan=T
         wScrn=  0.000000 ICntrl=       500 IOpCl=  0 I1Cent=   200000004 NGrid=           0
         NMat0=    1 NMatS0=      1 NMatT0=    0 NMatD0=    1 NMtDS0=    0 NMtDT0=    0
 Petite list used in FoFCou.
 Requested convergence on RMS density matrix=1.00D-08 within 128 cycles.
 Requested convergence on MAX density matrix=1.00D-06.
 Requested convergence on             energy=1.00D-06.
 No special actions if energy rises.
 SCF Done:  E(RB3LYP) =  -1186.07009798     A.U. after    8 cycles
            NFock=  8  Conv=0.56D-08     -V/T= 2.0066
 Calling FoFJK, ICntrl=      2127 FMM=F ISym2X=0 I1Cent= 0 IOpClX= 0 NMat=1 NMatS=1 NMatT=0.
 ***** Axes restored to original set *****
 -------------------------------------------------------------------
 Center     Atomic                   Forces (Hartrees/Bohr)
 Number     Number              X              Y              Z
 -------------------------------------------------------------------
      1       14          -0.003817278    0.000430475    0.000191332
      2        8           0.000065829   -0.000272930   -0.000029633
      3        8           0.000026376    0.000044117   -0.000017483
      4        8           0.000016897   -0.000352256   -0.000133472
      5        8          -0.000198279   -0.000057081   -0.000101003
      6        1           0.000103201   -0.000024199   -0.000027546
      7        1          -0.000195606    0.000316548    0.000159015
      8        1          -0.000005585   -0.000000593    0.000011702
      9       14           0.003962190   -0.000042728    0.000080953
     10        8          -0.000007953    0.000022420    0.000012322
     11        8           0.000031263   -0.000184977   -0.000214057
     12        8           0.000035751   -0.000232053    0.000030619
     13        8          -0.000110857    0.000067314   -0.000037635
     14        1           0.000085245    0.000000665    0.000012355
     15        1           0.000031312    0.000183297   -0.000001901
     16        1          -0.000011633   -0.000005258    0.000021985
     17        1           0.000021595    0.000016375    0.000070390
     18        1          -0.000032469    0.000090865   -0.000027945
 -------------------------------------------------------------------
 Cartesian Forces:  Max     0.003962190 RMS     0.000759737

 GradGradGradGradGradGradGradGradGradGradGradGradGradGradGradGradGradGrad
 Berny optimization.
 Using GEDIIS/GDIIS optimizer.
 FormGI is forming the generalized inverse of G from B-inverse, IUseBI=4.
 Internal  Forces:  Max     0.002819889 RMS     0.000372690
 Search for a local minimum.
 Step number   2 out of a maximum of   91
 All quantities printed in internal units (Hartrees-Bohrs-Radians)
 Mixed Optimization -- En-DIIS/RFO-DIIS
 Swapping is turned off.
 Update second derivatives using D2CorX and points    1    2
 DE= -8.83D-06 DEPred=-7.74D-06 R= 1.14D+00
 TightC=F SS=  1.41D+00  RLast= 2.55D-02 DXNew= 5.0454D-01 7.6408D-02
 Trust test= 1.14D+00 RLast= 2.55D-02 DXMaxT set to 3.00D-01
 ITU=  1  0
     Eigenvalues ---    0.00828   0.02312   0.02525   0.02702   0.03469
     Eigenvalues ---    0.03574   0.03660   0.03669   0.03692   0.03719
     Eigenvalues ---    0.04247   0.04691   0.05581   0.07442   0.08245
     Eigenvalues ---    0.09062   0.10453   0.11466   0.11702   0.11888
     Eigenvalues ---    0.12239   0.13198   0.14396   0.14962   0.15681
     Eigenvalues ---    0.16000   0.16000   0.16023   0.17746   0.19026
     Eigenvalues ---    0.19585   0.35887   0.37540   0.41741   0.42435
     Eigenvalues ---    0.42559   0.42583   0.43926   0.44975   0.48348
     Eigenvalues ---    0.49474   0.54295   0.54494   0.54571   0.54627
     Eigenvalues ---    0.54642   0.550401000.000001000.000001000.00000
     Eigenvalues --- 1000.000001000.000001000.000001000.000001000.00000
     Eigenvalues --- 1000.000001000.000001000.000001000.000001000.00000
     Eigenvalues --- 1000.000001000.000001000.000001000.000001000.00000
     Eigenvalues --- 1000.000001000.000001000.000001000.000001000.00000
     Eigenvalues --- 1000.000001000.000001000.000001000.000001000.00000
     Eigenvalues --- 1000.000001000.000001000.000001000.000001000.00000
     Eigenvalues --- 1000.00000
 En-DIIS/RFO-DIIS/Sim-DIIS IScMMF=       -3 using points:     2    1
 RFO step:  Lambda=-6.61405575D-06.
 DidBck=F Rises=F RFO-DIIS coefs:    1.04101   -0.04101
 Iteration  1 RMS(Cart)=  0.00175511 RMS(Int)=  0.00000334
 Iteration  2 RMS(Cart)=  0.00000488 RMS(Int)=  0.00000180
 Iteration  3 RMS(Cart)=  0.00000000 RMS(Int)=  0.00000180
 Iteration  1 RMS(Cart)=  0.00000099 RMS(Int)=  0.00000037
 Variable       Old X    -DE/DX   Delta X   Delta X   Delta X     New X
                                 (Linear)    (Quad)   (Total)
    R1        3.11556   0.00018   0.00002   0.00071   0.00073   3.11629
    R2        3.12054  -0.00001  -0.00002  -0.00017  -0.00019   3.12035
    R3        3.07195   0.00005  -0.00004  -0.00075  -0.00079   3.07116
    R4        3.16525   0.00017  -0.00001  -0.00037  -0.00038   3.16487
    R5        8.31481   0.00282  -0.00000   0.00000  -0.00000   8.31481
    R6        1.82131   0.00004   0.00002   0.00026   0.00028   1.82159
    R7        1.82218   0.00000   0.00000   0.00002   0.00002   1.82220
    R8        1.85453   0.00039  -0.00007  -0.00076  -0.00082   1.85371
    R9        1.82575  -0.00004   0.00003   0.00016   0.00018   1.82593
   R10        3.32439   0.00056  -0.00001   0.00081   0.00080   3.32519
   R11        3.27687   0.00063   0.00007   0.00342   0.00349   3.28035
   R12        3.11904   0.00002  -0.00001  -0.00004  -0.00005   3.11899
   R13        3.16036   0.00036   0.00003   0.00048   0.00051   3.16087
   R14        3.07057   0.00041  -0.00004  -0.00021  -0.00024   3.07032
   R15        3.11899  -0.00004  -0.00002  -0.00029  -0.00031   3.11869
   R16        1.82150   0.00000  -0.00000  -0.00001  -0.00001   1.82148
   R17        1.82475   0.00001   0.00001   0.00012   0.00013   1.82489
   R18        1.85153   0.00054  -0.00006  -0.00038  -0.00044   1.85109
   R19        1.82246  -0.00003   0.00000  -0.00004  -0.00004   1.82242
    A1        1.86614  -0.00004  -0.00001   0.00020   0.00020   1.86634
    A2        2.04715  -0.00002  -0.00003  -0.00067  -0.00070   2.04645
    A3        1.82176   0.00002  -0.00003  -0.00090  -0.00093   1.82083
    A4        1.88365   0.00022  -0.00002  -0.00024  -0.00026   1.88339
    A5        1.96317   0.00024  -0.00000   0.00047   0.00047   1.96364
    A6        1.88401  -0.00041   0.00009   0.00116   0.00125   1.88525
    A7        2.03893  -0.00016  -0.00007  -0.00185  -0.00192   2.03701
    A8        2.02411   0.00001  -0.00001   0.00001  -0.00000   2.02411
    A9        2.09543   0.00022   0.00004   0.00194   0.00199   2.09742
   A10        2.00593  -0.00010   0.00006   0.00109   0.00115   2.00708
   A11        1.95300   0.00043  -0.00002  -0.00018  -0.00020   1.95280
   A12        1.91103  -0.00008  -0.00002  -0.00067  -0.00069   1.91034
   A13        1.80526   0.00010  -0.00003  -0.00047  -0.00050   1.80477
   A14        2.06010   0.00010  -0.00002  -0.00036  -0.00038   2.05972
   A15        1.86134  -0.00007  -0.00000   0.00007   0.00007   1.86140
   A16        1.89015  -0.00045   0.00005   0.00047   0.00051   1.89066
   A17        1.98205   0.00013  -0.00003  -0.00062  -0.00066   1.98139
   A18        1.86904   0.00021   0.00002   0.00081   0.00083   1.86987
   A19        2.03415   0.00001  -0.00001   0.00001   0.00001   2.03416
   A20        2.17124   0.00028   0.00006   0.00140   0.00145   2.17269
   A21        1.99090  -0.00013  -0.00003  -0.00126  -0.00129   1.98961
   A22        2.00747  -0.00018  -0.00006  -0.00208  -0.00214   2.00533
   A23        2.12077   0.00004  -0.00014  -0.00312  -0.00326   2.11751
   A24        2.01929   0.00013   0.00004   0.00139   0.00143   2.02072
   A25        3.05620   0.00006  -0.00024  -0.00234  -0.00259   3.05362
   A26        3.02847   0.00013   0.00015   0.00418   0.00433   3.03280
   A27        3.20430   0.00009   0.00050  -0.00637  -0.00587   3.19843
   A28        3.29582  -0.00003  -0.00048   0.00251   0.00202   3.29784
    D1        0.76495   0.00001  -0.00000   0.00029   0.00029   0.76524
    D2       -1.35152  -0.00024   0.00005   0.00090   0.00095  -1.35058
    D3        2.84854   0.00027  -0.00002   0.00048   0.00046   2.84900
    D4       -2.71907   0.00001  -0.00001  -0.00029  -0.00030  -2.71937
    D5       -0.50206   0.00009  -0.00007  -0.00114  -0.00120  -0.50326
    D6        1.57434  -0.00012   0.00003   0.00042   0.00046   1.57479
    D7       -1.24106  -0.00000  -0.00002  -0.00241  -0.00244  -1.24350
    D8        2.93480  -0.00011   0.00002  -0.00203  -0.00201   2.93279
    D9        0.80869  -0.00030  -0.00002  -0.00313  -0.00315   0.80554
   D10       -0.99056  -0.00005   0.00006   0.00129   0.00135  -0.98921
   D11        1.20323   0.00012   0.00007   0.00111   0.00118   1.20442
   D12        1.02616   0.00003   0.00003   0.00123   0.00126   1.02743
   D13       -3.06323   0.00020   0.00004   0.00106   0.00110  -3.06213
   D14        3.10235   0.00019   0.00006   0.00198   0.00204   3.10439
   D15       -0.98704   0.00036   0.00008   0.00180   0.00188  -0.98517
   D16       -0.22698  -0.00010   0.00017  -0.00141  -0.00124  -0.22822
   D17       -2.81287   0.00004   0.00047   0.00158   0.00205  -2.81082
   D18        1.13287   0.00004   0.00018  -0.00167  -0.00149   1.13138
   D19       -2.93747   0.00017   0.00034  -0.00146  -0.00112  -2.93858
   D20       -2.74312  -0.00022   0.00002  -0.00026  -0.00024  -2.74336
   D21        1.45387   0.00023  -0.00002  -0.00028  -0.00030   1.45357
   D22       -0.64826  -0.00005  -0.00003  -0.00116  -0.00120  -0.64945
   D23       -2.03171   0.00014   0.00007   0.00404   0.00411  -2.02760
   D24        0.58445   0.00003  -0.00001  -0.00058  -0.00059   0.58386
   D25        0.16761   0.00006   0.00006   0.00358   0.00365   0.17125
   D26        2.78377  -0.00004  -0.00001  -0.00104  -0.00105   2.78271
   D27        2.24117   0.00010   0.00010   0.00454   0.00464   2.24581
   D28       -1.42585  -0.00000   0.00003  -0.00009  -0.00006  -1.42592
   D29        1.34820   0.00000   0.00001   0.00013   0.00014   1.34834
   D30       -0.69306   0.00016   0.00002   0.00062   0.00064  -0.69243
   D31       -2.83685   0.00014   0.00001   0.00062   0.00063  -2.83621
   D32        2.69960  -0.00000  -0.00001  -0.00055  -0.00056   2.69904
   D33       -1.60678   0.00014  -0.00006  -0.00140  -0.00146  -1.60824
   D34        0.47886  -0.00020   0.00000  -0.00065  -0.00065   0.47821
         Item               Value     Threshold  Converged?
 Maximum Force            0.000181     0.000450     YES
 RMS     Force            0.000065     0.000300     YES
 Maximum Displacement     0.006397     0.001800     NO 
 RMS     Displacement     0.001754     0.001200     NO 
 Predicted change in Energy=-3.312042D-06
 GradGradGradGradGradGradGradGradGradGradGradGradGradGradGradGradGradGrad

                          Input orientation:                          
 ---------------------------------------------------------------------
 Center     Atomic      Atomic             Coordinates (Angstroms)
 Number     Number       Type             X           Y           Z
 ---------------------------------------------------------------------
      1         14           0       -2.200332    0.019951   -0.015867
      2          8           0       -2.342790   -1.369603   -0.892379
      3          8           0       -3.732472    0.534798    0.321779
      4          8           0       -1.398329    1.254814   -0.703723
      5          8           0       -1.361448   -0.441125    1.358384
      6          1           0       -1.770991   -1.153275    1.867048
      7          1           0       -0.425263    1.207771   -0.818523
      8          1           0       -3.831961    1.477607    0.497916
      9         14           0        2.199349   -0.027708    0.008567
     10          8           0        3.074468    0.893792    1.061731
     11          8           0        1.307111    1.100602   -0.845023
     12          8           0        1.175354   -1.127708    0.626008
     13          8           0        3.289213   -0.846315   -0.921862
     14          1           0        2.976227   -1.674851   -1.303442
     15          1           0        0.307852   -0.864181    0.996850
     16          1           0        3.884181    0.501416    1.407396
     17          1           0        1.750783    1.946445   -0.987349
     18          1           0       -3.003006   -1.373109   -1.594727
 ---------------------------------------------------------------------
                    Distance matrix (angstroms):
                    1          2          3          4          5
     1  Si   0.000000
     2  O    1.649069   0.000000
     3  O    1.651220   2.651818   0.000000
     4  O    1.625190   2.795562   2.649208   0.000000
     5  O    1.674778   2.625078   2.765633   2.670179   0.000000
     6  H    2.259682   2.826339   3.014109   3.542123   0.966241
     7  H    2.281675   3.213288   3.562416   0.980942   2.886906
     8  H    2.247431   3.501021   0.964266   2.723258   3.244283
     9  Si   4.400007   4.821143   5.966659   3.885294   3.830431
    10  O    5.454202   6.187745   6.856445   4.822144   4.641913
    11  O    3.762640   4.407486   5.203744   2.713513   3.788553
    12  O    3.622758   3.839447   5.190687   3.750792   2.728211
    13  O    5.630838   5.656338   7.263482   5.141534   5.195416
    14  H    5.597049   5.343602   7.247795   5.298994   5.236680
    15  H    2.845746   3.294017   4.328635   3.208293   1.759616
    16  H    6.267278   6.896727   7.693703   5.738409   5.329860
    17  H    4.501829   5.269017   5.811424   3.236619   4.570442
    18  H    2.253376   0.963945   2.800933   3.205442   3.504878
                    6          7          8          9         10
     6  H    0.000000
     7  H    3.820709   0.000000
     8  H    3.611601   3.662159   0.000000
     9  Si   4.525976   3.016468   6.235554   0.000000
    10  O    5.321418   3.985230   6.953955   1.650500   0.000000
    11  O    4.680812   1.735888   5.325005   1.672659   2.608070
    12  O    3.197152   3.178539   5.645996   1.624746   2.807659
    13  O    5.786009   4.245855   7.624139   1.650338   2.647400
    14  H    5.732375   4.484951   7.715847   2.244545   3.493081
    15  H    2.272094   2.850618   4.782359   2.292194   3.278542
    16  H    5.910182   4.901526   7.830641   2.252854   0.963887
    17  H    5.491697   2.304196   5.795934   2.256178   2.656868
    18  H    3.681043   3.729369   3.632203   5.607598   7.009372
                   11         12         13         14         15
    11  O    0.000000
    12  O    2.673323   0.000000
    13  O    2.779410   2.635049   0.000000
    14  H    3.270968   2.695419   0.964383   0.000000
    15  H    2.872522   0.979555   3.545460   3.615073   0.000000
    16  H    3.474723   3.256125   2.756049   3.592931   3.850133
    17  H    0.965688   3.519156   3.189132   3.836067   3.730779
    18  H    5.025774   4.738204   6.349982   5.993923   4.235217
                   16         17         18
    16  H    0.000000
    17  H    3.517712   0.000000
    18  H    7.743379   5.829825   0.000000
 Stoichiometry    H8O8Si2
 Framework group  C1[X(H8O8Si2)]
 Deg. of freedom    48
 Full point group                 C1      NOp   1
 Largest Abelian subgroup         C1      NOp   1
 Largest concise Abelian subgroup C1      NOp   1
                         Standard orientation:                         
 ---------------------------------------------------------------------
 Center     Atomic      Atomic             Coordinates (Angstroms)
 Number     Number       Type             X           Y           Z
 ---------------------------------------------------------------------
      1         14           0        2.199971   -0.019204   -0.016048
      2          8           0        2.341506    1.365822   -0.899845
      3          8           0        3.732454   -0.531372    0.324106
      4          8           0        1.398616   -1.258127   -0.697328
      5          8           0        1.360977    0.448571    1.355869
      6          1           0        1.770159    1.163618    1.860746
      7          1           0        0.425510   -1.212260   -0.812256
      8          1           0        3.832520   -1.473185    0.505168
      9         14           0       -2.199735    0.025988    0.008666
     10          8           0       -3.074186   -0.890498    1.066749
     11          8           0       -1.306931   -1.106252   -0.839108
     12          8           0       -1.176316    1.129811    0.620213
     13          8           0       -3.290191    0.839066   -0.925907
     14          1           0       -2.977738    1.665776   -1.311860
     15          1           0       -0.308616    0.868742    0.992326
     16          1           0       -3.884089   -0.496794    1.410451
     17          1           0       -1.750120   -1.953091   -0.976947
     18          1           0        3.001637    1.366038   -1.602282
 ---------------------------------------------------------------------
 Rotational constants (GHZ):           1.9798219           0.4267051           0.4169961
 Standard basis: 6-31+G(d,p) (6D, 7F)
 There are   238 symmetry adapted cartesian basis functions of A   symmetry.
 There are   238 symmetry adapted basis functions of A   symmetry.
   238 basis functions,   424 primitive gaussians,   238 cartesian basis functions
    50 alpha electrons       50 beta electrons
       nuclear repulsion energy       830.6413838433 Hartrees.
 NAtoms=   18 NActive=   18 NUniq=   18 SFac= 1.00D+00 NAtFMM=   60 NAOKFM=F Big=F
 Integral buffers will be    131072 words long.
 Raffenetti 2 integral format.
 Two-electron integral symmetry is turned on.
 Nuclear repulsion after empirical dispersion term =      830.6274357735 Hartrees.
 One-electron integrals computed using PRISM.
 NBasis=   238 RedAO= T EigKep=  2.70D-04  NBF=   238
 NBsUse=   238 1.00D-06 EigRej= -1.00D+00 NBFU=   238
 Initial guess from the checkpoint file:  "/localscratch/sarashs.37159200.0/Gau-11794.chk"
 B after Tr=     0.000000    0.000000   -0.000000
         Rot=    1.000000    0.000858   -0.000040   -0.000117 Ang=   0.10 deg.
 Requested convergence on RMS density matrix=1.00D-08 within 128 cycles.
 Requested convergence on MAX density matrix=1.00D-06.
 Requested convergence on             energy=1.00D-06.
 No special actions if energy rises.
 SCF Done:  E(RB3LYP) =  -1186.07010212     A.U. after    7 cycles
            NFock=  7  Conv=0.75D-08     -V/T= 2.0066
 Calling FoFJK, ICntrl=      2127 FMM=F ISym2X=0 I1Cent= 0 IOpClX= 0 NMat=1 NMatS=1 NMatT=0.
 ***** Axes restored to original set *****
 -------------------------------------------------------------------
 Center     Atomic                   Forces (Hartrees/Bohr)
 Number     Number              X              Y              Z
 -------------------------------------------------------------------
      1       14          -0.003894162   -0.000060167    0.000121823
      2        8          -0.000111975   -0.000065238   -0.000064598
      3        8          -0.000013025    0.000058812    0.000014019
      4        8          -0.000104329   -0.000006670   -0.000100823
      5        8          -0.000123242    0.000016093    0.000032645
      6        1           0.000120452    0.000068245   -0.000141813
      7        1           0.000105298    0.000128354    0.000109291
      8        1          -0.000011763   -0.000011889   -0.000000833
      9       14           0.003985439    0.000125238   -0.000095177
     10        8           0.000028976    0.000034295    0.000040132
     11        8           0.000070178   -0.000164117   -0.000104424
     12        8           0.000121080   -0.000231516   -0.000037299
     13        8          -0.000022193   -0.000007639   -0.000044054
     14        1           0.000044272    0.000024575    0.000028036
     15        1          -0.000224486    0.000061741    0.000146866
     16        1          -0.000001976    0.000000690    0.000030352
     17        1          -0.000025949    0.000006123    0.000039221
     18        1           0.000057403    0.000023069    0.000026638
 -------------------------------------------------------------------
 Cartesian Forces:  Max     0.003985439 RMS     0.000763014

 GradGradGradGradGradGradGradGradGradGradGradGradGradGradGradGradGradGrad
 Berny optimization.
 Using GEDIIS/GDIIS optimizer.
 FormGI is forming the generalized inverse of G from B-inverse, IUseBI=4.
 Internal  Forces:  Max     0.002956185 RMS     0.000388164
 Search for a local minimum.
 Step number   3 out of a maximum of   91
 All quantities printed in internal units (Hartrees-Bohrs-Radians)
 Mixed Optimization -- En-DIIS/RFO-DIIS
 Swapping is turned off.
 Update second derivatives using D2CorX and points    1    2    3
 DE= -4.14D-06 DEPred=-3.31D-06 R= 1.25D+00
 TightC=F SS=  1.41D+00  RLast= 1.48D-02 DXNew= 5.0454D-01 4.4431D-02
 Trust test= 1.25D+00 RLast= 1.48D-02 DXMaxT set to 3.00D-01
 ITU=  1  1  0
     Eigenvalues ---    0.00822   0.01519   0.02383   0.02707   0.03481
     Eigenvalues ---    0.03510   0.03659   0.03669   0.03685   0.03722
     Eigenvalues ---    0.04486   0.04869   0.05491   0.07820   0.08284
     Eigenvalues ---    0.09065   0.10604   0.11415   0.11729   0.11892
     Eigenvalues ---    0.12261   0.12881   0.14717   0.14975   0.15675
     Eigenvalues ---    0.16000   0.16002   0.16068   0.17759   0.19132
     Eigenvalues ---    0.19587   0.35960   0.37556   0.42029   0.42436
     Eigenvalues ---    0.42574   0.42642   0.44378   0.46738   0.48446
     Eigenvalues ---    0.50228   0.54287   0.54524   0.54571   0.54612
     Eigenvalues ---    0.54641   0.585121000.000001000.000001000.00000
     Eigenvalues --- 1000.000001000.000001000.000001000.000001000.00000
     Eigenvalues --- 1000.000001000.000001000.000001000.000001000.00000
     Eigenvalues --- 1000.000001000.000001000.000001000.000001000.00000
     Eigenvalues --- 1000.000001000.000001000.000001000.000001000.00000
     Eigenvalues --- 1000.000001000.000001000.000001000.000001000.00000
     Eigenvalues --- 1000.000001000.000001000.000001000.000001000.00000
     Eigenvalues --- 1000.00000
 En-DIIS/RFO-DIIS/Sim-DIIS IScMMF=       -3 using points:     3    2    1
 RFO step:  Lambda=-2.25871702D-06.
 DidBck=F Rises=F RFO-DIIS coefs:    1.54591   -0.38130   -0.16462
 Iteration  1 RMS(Cart)=  0.00268991 RMS(Int)=  0.00000365
 Iteration  2 RMS(Cart)=  0.00000325 RMS(Int)=  0.00000288
 Iteration  3 RMS(Cart)=  0.00000000 RMS(Int)=  0.00000288
 Iteration  1 RMS(Cart)=  0.00000206 RMS(Int)=  0.00000078
 Iteration  2 RMS(Cart)=  0.00000056 RMS(Int)=  0.00000085
 Variable       Old X    -DE/DX   Delta X   Delta X   Delta X     New X
                                 (Linear)    (Quad)   (Total)
    R1        3.11629   0.00006   0.00048  -0.00005   0.00043   3.11672
    R2        3.12035   0.00004  -0.00017   0.00016  -0.00002   3.12034
    R3        3.07116   0.00027  -0.00060   0.00034  -0.00026   3.07090
    R4        3.16487   0.00016  -0.00024  -0.00014  -0.00037   3.16450
    R5        8.31481   0.00296  -0.00000   0.00000   0.00000   8.31481
    R6        1.82159  -0.00006   0.00023  -0.00020   0.00003   1.82162
    R7        1.82220  -0.00001   0.00002  -0.00003  -0.00001   1.82219
    R8        1.85371   0.00060  -0.00072   0.00043  -0.00028   1.85343
    R9        1.82593  -0.00018   0.00021  -0.00041  -0.00020   1.82573
   R10        3.32519   0.00048   0.00038  -0.00043  -0.00005   3.32514
   R11        3.28035   0.00052   0.00217  -0.00090   0.00127   3.28163
   R12        3.11899   0.00008  -0.00007   0.00022   0.00015   3.11914
   R13        3.16087   0.00023   0.00038  -0.00034   0.00005   3.16092
   R14        3.07032   0.00053  -0.00028   0.00051   0.00023   3.07056
   R15        3.11869   0.00002  -0.00025   0.00012  -0.00013   3.11856
   R16        1.82148   0.00001  -0.00001   0.00002   0.00001   1.82149
   R17        1.82489  -0.00001   0.00011  -0.00006   0.00005   1.82494
   R18        1.85109   0.00071  -0.00048   0.00067   0.00019   1.85128
   R19        1.82242  -0.00005  -0.00000  -0.00008  -0.00009   1.82233
    A1        1.86634  -0.00010   0.00009  -0.00018  -0.00009   1.86625
    A2        2.04645   0.00001  -0.00052   0.00028  -0.00023   2.04622
    A3        1.82083   0.00012  -0.00063   0.00058  -0.00005   1.82077
    A4        1.88339   0.00023  -0.00022  -0.00023  -0.00044   1.88295
    A5        1.96364   0.00020   0.00024  -0.00015   0.00010   1.96374
    A6        1.88525  -0.00046   0.00105  -0.00030   0.00073   1.88599
    A7        2.03701  -0.00003  -0.00132   0.00036  -0.00096   2.03605
    A8        2.02411   0.00002  -0.00004   0.00016   0.00012   2.02423
    A9        2.09742   0.00017   0.00126  -0.00035   0.00091   2.09832
   A10        2.00708  -0.00017   0.00087  -0.00071   0.00016   2.00724
   A11        1.95280   0.00042  -0.00017   0.00045   0.00028   1.95308
   A12        1.91034  -0.00006  -0.00044  -0.00048  -0.00092   1.90942
   A13        1.80477   0.00010  -0.00038   0.00004  -0.00033   1.80443
   A14        2.05972   0.00009  -0.00028  -0.00012  -0.00040   2.05932
   A15        1.86140  -0.00007   0.00003  -0.00004  -0.00001   1.86139
   A16        1.89066  -0.00043   0.00049   0.00017   0.00065   1.89131
   A17        1.98139   0.00017  -0.00049   0.00008  -0.00041   1.98098
   A18        1.86987   0.00017   0.00053  -0.00011   0.00042   1.87029
   A19        2.03416   0.00003  -0.00002   0.00020   0.00018   2.03434
   A20        2.17269   0.00023   0.00102  -0.00031   0.00071   2.17339
   A21        1.98961  -0.00013  -0.00082  -0.00032  -0.00115   1.98847
   A22        2.00533  -0.00011  -0.00140   0.00004  -0.00136   2.00396
   A23        2.11751   0.00015  -0.00235   0.00068  -0.00168   2.11584
   A24        2.02072   0.00004   0.00096  -0.00010   0.00086   2.02158
   A25        3.05362   0.00014  -0.00239   0.00089  -0.00150   3.05211
   A26        3.03280   0.00001   0.00298  -0.00139   0.00159   3.03439
   A27        3.19843   0.00017  -0.00121  -0.00023  -0.00144   3.19699
   A28        3.29784  -0.00012  -0.00083  -0.00093  -0.00177   3.29607
    D1        0.76524   0.00001   0.00015   0.00024   0.00040   0.76563
    D2       -1.35058  -0.00022   0.00071   0.00049   0.00120  -1.34938
    D3        2.84900   0.00026   0.00016   0.00028   0.00044   2.84944
    D4       -2.71937   0.00003  -0.00021   0.00024   0.00003  -2.71934
    D5       -0.50326   0.00013  -0.00092   0.00033  -0.00058  -0.50384
    D6        1.57479  -0.00016   0.00038  -0.00028   0.00010   1.57489
    D7       -1.24350  -0.00004  -0.00143  -0.00079  -0.00222  -1.24572
    D8        2.93279  -0.00011  -0.00102  -0.00058  -0.00160   2.93119
    D9        0.80554  -0.00022  -0.00179  -0.00009  -0.00188   0.80365
   D10       -0.98921  -0.00001   0.00096   0.00064   0.00160  -0.98761
   D11        1.20442   0.00013   0.00093  -0.00022   0.00070   1.20512
   D12        1.02743   0.00004   0.00081   0.00070   0.00151   1.02894
   D13       -3.06213   0.00018   0.00078  -0.00017   0.00061  -3.06152
   D14        3.10439   0.00015   0.00137   0.00013   0.00150   3.10589
   D15       -0.98517   0.00029   0.00133  -0.00073   0.00060  -0.98456
   D16       -0.22822  -0.00013   0.00002  -0.00095  -0.00093  -0.22915
   D17       -2.81082  -0.00001   0.00299   0.00001   0.00300  -2.80782
   D18        1.13138   0.00007  -0.00008   0.00011   0.00002   1.13140
   D19       -2.93858   0.00014   0.00075  -0.00062   0.00013  -2.93845
   D20       -2.74336  -0.00022  -0.00007  -0.00020  -0.00028  -2.74363
   D21        1.45357   0.00020  -0.00025  -0.00038  -0.00063   1.45294
   D22       -0.64945  -0.00002  -0.00079  -0.00012  -0.00091  -0.65036
   D23       -2.02760   0.00011   0.00254   0.00111   0.00364  -2.02396
   D24        0.58386   0.00003  -0.00035  -0.00021  -0.00056   0.58330
   D25        0.17125   0.00004   0.00225   0.00108   0.00333   0.17458
   D26        2.78271  -0.00004  -0.00063  -0.00024  -0.00087   2.78184
   D27        2.24581   0.00006   0.00295   0.00110   0.00405   2.24986
   D28       -1.42592  -0.00002   0.00007  -0.00022  -0.00015  -1.42607
[...]
 Number     Number       Type             X           Y           Z
 ---------------------------------------------------------------------
      1         14           0       -2.204126    0.035974    0.015688
      2          8           0       -2.508184   -1.275335   -0.937003
      3          8           0       -3.666683    0.642655    0.483144
      4          8           0       -1.349457    1.253946   -0.637294
      5          8           0       -1.328373   -0.586696    1.299841
      6          1           0       -1.742232   -1.335206    1.749149
      7          1           0       -0.399039    1.138546   -0.851680
      8          1           0       -3.679025    1.575438    0.727124
      9         14           0        2.195090   -0.038839   -0.021379
     10          8           0        2.838955    1.022940    1.065472
     11          8           0        1.314028    0.939471   -1.054108
     12          8           0        1.211473   -1.201865    0.544492
     13          8           0        3.462639   -0.788351   -0.766566
     14          1           0        3.279345   -1.659364   -1.137434
     15          1           0        0.325484   -0.981365    0.902308
     16          1           0        3.608357    0.721085    1.561476
     17          1           0        1.741149    1.775779   -1.280676
     18          1           0       -3.201452   -1.179492   -1.599771
 ---------------------------------------------------------------------
                    Distance matrix (angstroms):
                    1          2          3          4          5
     1  Si   0.000000
     2  O    1.649121   0.000000
     3  O    1.650954   2.652852   0.000000
     4  O    1.624900   2.798166   2.645486   0.000000
     5  O    1.674428   2.621001   2.765138   2.672245   0.000000
     6  H    2.257957   2.793865   3.036151   3.543034   0.966139
     7  H    2.286117   3.206648   3.564430   0.981108   2.910182
     8  H    2.247537   3.502441   0.964243   2.718802   3.244749
     9  Si   4.400008   4.948542   5.922783   3.822885   3.802704
    10  O    5.244884   6.154987   6.542709   4.527203   4.473531
    11  O    3.786578   4.419093   5.220989   2.714181   3.853900
    12  O    3.671266   4.004506   5.215594   3.739784   2.720258
    13  O    5.779590   5.993073   7.378129   5.229145   5.221542
    14  H    5.854256   5.803718   7.494856   5.492115   5.321841
    15  H    2.867054   3.391040   4.330188   3.189422   1.746150
    16  H    6.053412   6.902185   7.354941   5.449628   5.113712
    17  H    4.502518   5.242540   5.799972   3.199702   4.654279
    18  H    2.254268   0.963882   2.806277   3.205911   3.502511
                    6          7          8          9         10
     6  H    0.000000
     7  H    3.832483   0.000000
     8  H    3.642465   3.666307   0.000000
     9  Si   4.507531   2.967345   6.137701   0.000000
    10  O    5.197648   3.764763   6.550099   1.650206   0.000000
    11  O    4.730024   1.736435   5.339272   1.673287   2.612468
    12  O    3.192703   3.165527   5.627054   1.624913   2.805330
    13  O    5.806768   4.316565   7.669549   1.650380   2.650683
    14  H    5.801178   4.630385   7.896800   2.246618   3.498785
    15  H    2.262253   2.845247   4.754369   2.288445   3.218913
    16  H    5.735186   4.696469   7.384579   2.253938   0.963907
    17  H    5.567046   2.273875   5.783570   2.254934   2.697472
    18  H    3.656342   3.713012   3.637603   5.737166   6.959939
                   11         12         13         14         15
    11  O    0.000000
    12  O    2.674202   0.000000
    13  O    2.772107   2.637729   0.000000
    14  H    3.259349   2.704492   0.964263   0.000000
    15  H    2.914514   0.980627   3.558671   3.653153   0.000000
    16  H    3.486103   3.236827   2.778383   3.613711   3.756341
    17  H    0.966010   3.532443   3.130911   3.766534   3.790959
    18  H    5.017700   4.906350   6.727357   6.514965   4.328849
                   16         17         18
    16  H    0.000000
    17  H    3.560432   0.000000
    18  H    7.744623   5.767560   0.000000
 Stoichiometry    H8O8Si2
 Framework group  C1[X(H8O8Si2)]
 Deg. of freedom    48
 Full point group                 C1      NOp   1
 Largest Abelian subgroup         C1      NOp   1
 Largest concise Abelian subgroup C1      NOp   1
                         Standard orientation:                         
 ---------------------------------------------------------------------
 Center     Atomic      Atomic             Coordinates (Angstroms)
 Number     Number       Type             X           Y           Z
 ---------------------------------------------------------------------
      1         14           0        2.200353   -0.020024   -0.012403
      2          8           0        2.482448    1.259176   -1.014236
      3          8           0        3.673243   -0.600223    0.456229
      4          8           0        1.345854   -1.265753   -0.610976
      5          8           0        1.337201    0.641303    1.260910
      6          1           0        1.751601    1.407808    1.678244
      7          1           0        0.391891   -1.164261   -0.816465
      8          1           0        3.695459   -1.523803    0.732397
      9         14           0       -2.199390    0.024101    0.007060
     10          8           0       -2.821265   -1.003304    1.138825
     11          8           0       -1.325075   -0.983816   -1.002675
     12          8           0       -1.216716    1.212734    0.518766
     13          8           0       -3.481979    0.738632   -0.746708
     14          1           0       -3.309814    1.597351   -1.150151
     15          1           0       -0.324531    1.010793    0.872116
     16          1           0       -3.586189   -0.689432    1.634296
     17          1           0       -1.749170   -1.830364   -1.194185
     18          1           0        3.167577    1.144848   -1.682515
 ---------------------------------------------------------------------
 Rotational constants (GHZ):           1.9738419           0.4266886           0.4170724

 **********************************************************************

            Population analysis using the SCF Density.

 **********************************************************************

 Orbital symmetries:
       Occupied  (A) (A) (A) (A) (A) (A) (A) (A) (A) (A) (A) (A)
                 (A) (A) (A) (A) (A) (A) (A) (A) (A) (A) (A) (A)
                 (A) (A) (A) (A) (A) (A) (A) (A) (A) (A) (A) (A)
                 (A) (A) (A) (A) (A) (A) (A) (A) (A) (A) (A) (A)
                 (A) (A)
       Virtual   (A) (A) (A) (A) (A) (A) (A) (A) (A) (A) (A) (A)
                 (A) (A) (A) (A) (A) (A) (A) (A) (A) (A) (A) (A)
                 (A) (A) (A) (A) (A) (A) (A) (A) (A) (A) (A) (A)
                 (A) (A) (A) (A) (A) (A) (A) (A) (A) (A) (A) (A)
                 (A) (A) (A) (A) (A) (A) (A) (A) (A) (A) (A) (A)
                 (A) (A) (A) (A) (A) (A) (A) (A) (A) (A) (A) (A)
                 (A) (A) (A) (A) (A) (A) (A) (A) (A) (A) (A) (A)
                 (A) (A) (A) (A) (A) (A) (A) (A) (A) (A) (A) (A)
                 (A) (A) (A) (A) (A) (A) (A) (A) (A) (A) (A) (A)
                 (A) (A) (A) (A) (A) (A) (A) (A) (A) (A) (A) (A)
                 (A) (A) (A) (A) (A) (A) (A) (A) (A) (A) (A) (A)
                 (A) (A) (A) (A) (A) (A) (A) (A) (A) (A) (A) (A)
                 (A) (A) (A) (A) (A) (A) (A) (A) (A) (A) (A) (A)
                 (A) (A) (A) (A) (A) (A) (A) (A) (A) (A) (A) (A)
                 (A) (A) (A) (A) (A) (A) (A) (A) (A) (A) (A) (A)
                 (A) (A) (A) (A) (A) (A) (A) (A)
 The electronic state is 1-A.
 Alpha  occ. eigenvalues --  -66.22255 -66.22203 -19.18585 -19.18565 -19.16996
 Alpha  occ. eigenvalues --  -19.16918 -19.16880 -19.16853 -19.15547 -19.15442
 Alpha  occ. eigenvalues --   -5.35609  -5.35560  -3.71617  -3.71578  -3.71577
 Alpha  occ. eigenvalues --   -3.71556  -3.71520  -3.71508  -1.05344  -1.04720
 Alpha  occ. eigenvalues --   -1.02134  -1.01770  -1.00820  -1.00771  -0.99762
 Alpha  occ. eigenvalues --   -0.99537  -0.60224  -0.59834  -0.54679  -0.54593
 Alpha  occ. eigenvalues --   -0.53401  -0.53365  -0.52741  -0.52414  -0.42217
 Alpha  occ. eigenvalues --   -0.41812  -0.39860  -0.38989  -0.38582  -0.38278
 Alpha  occ. eigenvalues --   -0.37463  -0.37315  -0.36843  -0.36219  -0.35207
 Alpha  occ. eigenvalues --   -0.34928  -0.33576  -0.32981  -0.32469  -0.32301
 Alpha virt. eigenvalues --   -0.02964  -0.01303   0.01068   0.01777   0.02206
 Alpha virt. eigenvalues --    0.02420   0.04780   0.07396   0.10285   0.10507
 Alpha virt. eigenvalues --    0.11272   0.11870   0.12248   0.12946   0.13720
 Alpha virt. eigenvalues --    0.14430   0.14754   0.15052   0.15379   0.15757
 Alpha virt. eigenvalues --    0.16239   0.16395   0.16717   0.17303   0.18177
 Alpha virt. eigenvalues --    0.18445   0.19295   0.19902   0.20580   0.20910
 Alpha virt. eigenvalues --    0.21966   0.23630   0.23846   0.24686   0.24890
 Alpha virt. eigenvalues --    0.25329   0.25739   0.26174   0.26473   0.27265
 Alpha virt. eigenvalues --    0.27472   0.28428   0.29821   0.30859   0.31140
 Alpha virt. eigenvalues --    0.32458   0.33332   0.34277   0.34617   0.35934
 Alpha virt. eigenvalues --    0.38854   0.39330   0.40939   0.41894   0.43416
 Alpha virt. eigenvalues --    0.44204   0.46693   0.46914   0.48829   0.49433
 Alpha virt. eigenvalues --    0.50264   0.57277   0.61346   0.62227   0.62919
 Alpha virt. eigenvalues --    0.65643   0.66452   0.70314   0.93066   0.94308
 Alpha virt. eigenvalues --    0.94581   0.94990   0.97205   0.97762   0.99052
 Alpha virt. eigenvalues --    1.00400   1.01524   1.02009   1.02249   1.04323
 Alpha virt. eigenvalues --    1.13309   1.14328   1.16089   1.16487   1.17712
 Alpha virt. eigenvalues --    1.18203   1.18659   1.19114   1.19402   1.20644
 Alpha virt. eigenvalues --    1.21101   1.22158   1.22765   1.23949   1.24938
 Alpha virt. eigenvalues --    1.25942   1.26974   1.27400   1.28055   1.30852
 Alpha virt. eigenvalues --    1.31592   1.32995   1.33670   1.34282   1.35357
 Alpha virt. eigenvalues --    1.36767   1.49102   1.51748   1.52071   1.54025
 Alpha virt. eigenvalues --    1.55512   1.56985   1.58349   1.59724   1.61617
 Alpha virt. eigenvalues --    1.62218   1.62564   1.64126   1.65231   1.66694
 Alpha virt. eigenvalues --    1.69391   1.69878   1.71245   1.73556   1.74505
 Alpha virt. eigenvalues --    1.75410   1.79628   1.80840   1.85978   1.87122
 Alpha virt. eigenvalues --    1.90115   1.92965   1.93519   1.94642   2.02446
 Alpha virt. eigenvalues --    2.03553   2.10967   2.12971   2.35107   2.36006
 Alpha virt. eigenvalues --    2.37205   2.38155   2.39897   2.40172   2.44537
 Alpha virt. eigenvalues --    2.45990   2.53179   2.55150   2.57890   2.58115
 Alpha virt. eigenvalues --    2.60155   2.60358   2.61518   2.62442   2.63149
 Alpha virt. eigenvalues --    2.64064   2.64558   2.64835   2.66460   2.67373
 Alpha virt. eigenvalues --    2.69426   2.69971   2.72429   2.73336   2.77099
 Alpha virt. eigenvalues --    2.77995   2.81002   2.81592   2.86067   2.86790
 Alpha virt. eigenvalues --    3.00415   3.02170   3.40491   3.41224   3.42695
 Alpha virt. eigenvalues --    3.43270   3.44694   3.46053   3.61062   3.62220
 Alpha virt. eigenvalues --    4.13850   4.15542   4.21782   4.23715   4.27023
 Alpha virt. eigenvalues --    4.29014   4.32080   4.38266
          Condensed to atoms (all electrons):
               1          2          3          4          5          6
     1  Si  11.564876   0.101540   0.021806   0.164184   0.030412   0.032023
     2  O    0.101540   8.526741  -0.000098  -0.030711   0.047662  -0.006307
     3  O    0.021806  -0.000098   8.543873   0.054405   0.013341  -0.005047
     4  O    0.164184  -0.030711   0.054405   8.484376   0.025872   0.007616
     5  O    0.030412   0.047662   0.013341   0.025872   8.582189   0.246296
     6  H    0.032023  -0.006307  -0.005047   0.007616   0.246296   0.344765
     7  H    0.017777  -0.004435   0.005821   0.231020  -0.002269  -0.000024
     8  H    0.029695   0.006611   0.241258  -0.003130  -0.006294   0.000063
     9  Si   0.039935  -0.005101  -0.000316  -0.042104  -0.021530  -0.001169
    10  O   -0.003788   0.000219   0.000072   0.000995   0.000624   0.000045
    11  O   -0.015034  -0.001120   0.000199   0.004336   0.013928   0.000157
    12  O   -0.018270   0.000289   0.000082   0.008067  -0.007260   0.002064
    13  O   -0.002139   0.000284  -0.000045   0.000596   0.000009  -0.000011
    14  H    0.000021  -0.000004   0.000000   0.000021   0.000045  -0.000000
    15  H    0.005887   0.000327   0.000458  -0.002112   0.014797  -0.003493
    16  H   -0.000109  -0.000001   0.000000  -0.000014  -0.000040   0.000000
    17  H   -0.000583  -0.000007   0.000006   0.000983   0.000001  -0.000000
    18  H    0.027205   0.240717  -0.002355  -0.007163   0.005720   0.000028
               7          8          9         10         11         12
     1  Si   0.017777   0.029695   0.039935  -0.003788  -0.015034  -0.018270
     2  O   -0.004435   0.006611  -0.005101   0.000219  -0.001120   0.000289
     3  O    0.005821   0.241258  -0.000316   0.000072   0.000199   0.000082
     4  O    0.231020  -0.003130  -0.042104   0.000995   0.004336   0.008067
     5  O   -0.002269  -0.006294  -0.021530   0.000624   0.013928  -0.007260
     6  H   -0.000024   0.000063  -0.001169   0.000045   0.000157   0.002064
     7  H    0.276258   0.000045   0.010360  -0.000768   0.005544  -0.000246
     8  H    0.000045   0.358892   0.000052  -0.000001   0.000041   0.000001
     9  Si   0.010360   0.000052  11.663835   0.102487  -0.072501   0.152727
    10  O   -0.000768  -0.000001   0.102487   8.487791   0.067721  -0.029822
    11  O    0.005544   0.000041  -0.072501   0.067721   8.675129   0.024681
    12  O   -0.000246   0.000001   0.152727  -0.029822   0.024681   8.481257
    13  O    0.000371   0.000000  -0.012459   0.020538   0.044538   0.065081
    14  H   -0.000002  -0.000000   0.028447   0.006177  -0.006230  -0.002337
    15  H    0.000143  -0.000003   0.021299  -0.004698  -0.003405   0.231329
    16  H   -0.000004  -0.000000   0.026218   0.243853   0.004842  -0.006669
    17  H   -0.001176  -0.000000   0.036220  -0.003664   0.233434   0.006739
    18  H    0.000085   0.000051  -0.000198  -0.000000  -0.000024  -0.000073
              13         14         15         16         17         18
     1  Si  -0.002139   0.000021   0.005887  -0.000109  -0.000583   0.027205
     2  O    0.000284  -0.000004   0.000327  -0.000001  -0.000007   0.240717
     3  O   -0.000045   0.000000   0.000458   0.000000   0.000006  -0.002355
     4  O    0.000596   0.000021  -0.002112  -0.000014   0.000983  -0.007163
     5  O    0.000009   0.000045   0.014797  -0.000040   0.000001   0.005720
     6  H   -0.000011  -0.000000  -0.003493   0.000000  -0.000000   0.000028
     7  H    0.000371  -0.000002   0.000143  -0.000004  -0.001176   0.000085
     8  H    0.000000  -0.000000  -0.000003  -0.000000  -0.000000   0.000051
     9  Si  -0.012459   0.028447   0.021299   0.026218   0.036220  -0.000198
    10  O    0.020538   0.006177  -0.004698   0.243853  -0.003664  -0.000000
    11  O    0.044538  -0.006230  -0.003405   0.004842   0.233434  -0.000024
    12  O    0.065081  -0.002337   0.231329  -0.006669   0.006739  -0.000073
    13  O    8.537015   0.242793   0.005771  -0.002364  -0.005639  -0.000000
    14  H    0.242793   0.357886   0.000052   0.000063   0.000060   0.000000
    15  H    0.005771   0.000052   0.281829   0.000078   0.000012  -0.000014
    16  H   -0.002364   0.000063   0.000078   0.359608   0.000067   0.000000
    17  H   -0.005639   0.000060   0.000012   0.000067   0.346986   0.000000
    18  H   -0.000000   0.000000  -0.000014   0.000000   0.000000   0.360568
 Mulliken charges:
               1
     1  Si   2.004561
     2  O   -0.876605
     3  O   -0.873460
     4  O   -0.897237
     5  O   -0.943503
     6  H    0.382993
     7  H    0.461499
     8  H    0.372718
     9  Si   2.073798
    10  O   -0.887780
    11  O   -0.976237
    12  O   -0.907641
    13  O   -0.894340
    14  H    0.373008
    15  H    0.451741
    16  H    0.374471
    17  H    0.386561
    18  H    0.375453
 Sum of Mulliken charges =  -0.00000
 Mulliken charges with hydrogens summed into heavy atoms:
               1
     1  Si   2.004561
     2  O   -0.501153
     3  O   -0.500742
     4  O   -0.435738
     5  O   -0.560510
     9  Si   2.073798
    10  O   -0.513309
    11  O   -0.589676
    12  O   -0.455900
    13  O   -0.521332
 Electronic spatial extent (au):  <R**2>=           2663.3695
 Charge=              0.0000 electrons
 Dipole moment (field-independent basis, Debye):
    X=              0.0508    Y=             -0.0587    Z=              0.1063  Tot=              0.1316
 Quadrupole moment (field-independent basis, Debye-Ang):
   XX=            -67.4397   YY=            -68.6034   ZZ=            -66.5459
   XY=             -0.4463   XZ=             -1.1656   YZ=              0.9491
 Traceless Quadrupole moment (field-independent basis, Debye-Ang):
   XX=              0.0900   YY=             -1.0737   ZZ=              0.9837
   XY=             -0.4463   XZ=             -1.1656   YZ=              0.9491
 Octapole moment (field-independent basis, Debye-Ang**2):
  XXX=             -4.3638  YYY=             -6.0777  ZZZ=             -0.1988  XYY=              0.4844
  XXY=             -2.7906  XXZ=              6.2556  XZZ=              3.6420  YZZ=              8.8597
  YYZ=             -2.9903  XYZ=             -3.0525
 Hexadecapole moment (field-independent basis, Debye-Ang**3):
 XXXX=          -2533.7763 YYYY=           -371.2955 ZZZZ=           -308.2807 XXXY=            -30.7960
 XXXZ=           -143.6903 YYYX=            -23.9085 YYYZ=             10.2941 ZZZX=            -29.2017
 ZZZY=              0.8831 XXYY=           -400.9214 XXZZ=           -370.8170 YYZZ=            -96.2671
 XXYZ=            -42.9011 YYXZ=             64.7776 ZZXY=             15.9218
 N-N= 8.304906900859D+02 E-N=-4.471008264780D+03  KE= 1.178243974457D+03
 1\1\GINC-GRA739\FOpt\RB3LYP\6-31+G(d,p)\H8O8Si2\SARASHS\12-Aug-2020\0\
 \#n B3LYP/6-31+G(d,p) EmpiricalDispersion=GD3 Opt=modredundant\\Title\
 \0,1\Si,-2.2041259174,0.0359741559,0.0156875485\O,-2.5081838222,-1.275
 334524,-0.9370032831\O,-3.6666829597,0.6426546459,0.4831444674\O,-1.34
 94569467,1.2539456519,-0.6372939665\O,-1.3283730759,-0.5866956445,1.29
 98407457\H,-1.7422318323,-1.3352060734,1.7491487767\H,-0.3990389266,1.
 1385458905,-0.8516799024\H,-3.6790254134,1.5754383112,0.7271242731\Si,
 2.1950896895,-0.0388385025,-0.0213790114\O,2.8389549097,1.0229403469,1
 .0654716282\O,1.3140279609,0.9394708303,-1.0541079594\O,1.2114727452,-
 1.2018645693,0.5444917079\O,3.4626390948,-0.7883512448,-0.7665655313\H
 ,3.2793449311,-1.6593644168,-1.13743391\H,0.3254836268,-0.981365092,0.
 9023079821\H,3.6083568626,0.721085171,1.5614761217\H,1.7411485044,1.77
 57788562,-1.2806758584\H,-3.2014524307,-1.1794917924,-1.5997708289\\Ve
 rsion=ES64L-G16RevB.01\State=1-A\HF=-1186.0701334\RMSD=9.871e-09\RMSF=
 8.225e-04\Dipole=-0.0192615,0.024666,0.0412572\Quadrupole=0.0857132,-0
 .8412605,0.7555474,-0.316526,0.8821136,-0.6527294\PG=C01 [X(H8O8Si2)]\
 \@


      THE ONE-EYED VIEW OF OUR UNIVERSE SAYS YOU MUST NOT LOOK
      FAR AFIELD FOR PROBLEMS.  SUCH PROBLEMS MAY NEVER ARRIVE. 
      INSTEAD, TEND TO THE WOLF WITHIN YOUR FENCES.
      THE PACKS RANGING OUTSIDE MAY NOT EVEN EXIST.

                              -- THE AZHAR BOOK SHAMRA I:4
                                 CHILDREN OF DUNE, BY FRANK HERBERT
 Job cpu time:       0 days  1 hours 35 minutes 44.8 seconds.
 Elapsed time:       0 days  0 hours  6 minutes 10.0 seconds.
 File lengths (MBytes):  RWF=     40 Int=      0 D2E=      0 Chk=      5 Scr=      1
 Normal termination of Gaussian 16 at Wed Aug 12 02:18:04 2020.
