 Entering Gaussian System, Link 0=g16
 Initial command:
 /opt/software/gaussian/g16.b01/l1.exe "/localscratch/sarashs.37136496.0/Gau-197845.inp" -scrdir="/localscratch/sarashs.37136496.0/"
 Entering Link 1 = /opt/software/gaussian/g16.b01/l1.exe PID=    197846.
  
 Copyright (c) 1988-2017, Gaussian, Inc.  All Rights Reserved.
  
 This is part of the Gaussian(R) 16 program.  It is based on
 the Gaussian(R) 09 system (copyright 2009, Gaussian, Inc.),
 the Gaussian(R) 03 system (copyright 2003, Gaussian, Inc.),
 the Gaussian(R) 98 system (copyright 1998, Gaussian, Inc.),
 the Gaussian(R) 94 system (copyright 1995, Gaussian, Inc.),
 the Gaussian 92(TM) system (copyright 1992, Gaussian, Inc.),
 the Gaussian 90(TM) system (copyright 1990, Gaussian, Inc.),
 the Gaussian 88(TM) system (copyright 1988, Gaussian, Inc.),
 the Gaussian 86(TM) system (copyright 1986, Carnegie Mellon
 University), and the Gaussian 82(TM) system (copyright 1983,
 Carnegie Mellon University). Gaussian is a federally registered
 trademark of Gaussian, Inc.
  
 This software contains proprietary and confidential information,
 including trade secrets, belonging to Gaussian, Inc.
  
 This software is provided under written license and may be
 used, copied, transmitted, or stored only in accord with that
 written license.
  
 The following legend is applicable only to US Government
 contracts under FAR:
  
                    RESTRICTED RIGHTS LEGEND
  
 Use, reproduction and disclosure by the US Government is
 subject to restrictions as set forth in subparagraphs (a)
 and (c) of the Commercial Computer Software - Restricted
 Rights clause in FAR 52.227-19.
  
 Gaussian, Inc.
 340 Quinnipiac St., Bldg. 40, Wallingford CT 06492
  
  
 ---------------------------------------------------------------
 Warning -- This program may not be used in any manner that
 competes with the business of Gaussian, Inc. or will provide
 assistance to any competitor of Gaussian, Inc.  The licensee
 of this program is prohibited from giving any competitor of
 Gaussian, Inc. access to this program.  By using this program,
 the user acknowledges that Gaussian, Inc. is engaged in the
 business of creating and licensing software in the field of
 computational chemistry and represents and warrants to the
 licensee that it is not a competitor of Gaussian, Inc. and that
 it will not use this program in any manner prohibited above.
 ---------------------------------------------------------------
  

 Cite this work as:
 Gaussian 16, Revision B.01,
 M. J. Frisch, G. W. Trucks, H. B. Schlegel, G. E. Scuseria, 
 M. A. Robb, J. R. Cheeseman, G. Scalmani, V. Barone, 
 G. A. Petersson, H. Nakatsuji, X. Li, M. Caricato, A. V. Marenich, 
 J. Bloino, B. G. Janesko, R. Gomperts, B. Mennucci, H. P. Hratchian, 
 J. V. Ortiz, A. F. Izmaylov, J. L. Sonnenberg, D. Williams-Young, 
 F. Ding, F. Lipparini, F. Egidi, J. Goings, B. Peng, A. Petrone, 
 T. Henderson, D. Ranasinghe, V. G. Zakrzewski, J. Gao, N. Rega, 
 G. Zheng, W. Liang, M. Hada, M. Ehara, K. Toyota, R. Fukuda, 
 J. Hasegawa, M. Ishida, T. Nakajima, Y. Honda, O. Kitao, H. Nakai, 
 T. Vreven, K. Throssell, J. A. Montgomery, Jr., J. E. Peralta, 
 F. Ogliaro, M. J. Bearpark, J. J. Heyd, E. N. Brothers, K. N. Kudin, 
 V. N. Staroverov, T. A. Keith, R. Kobayashi, J. Normand, 
 K. Raghavachari, A. P. Rendell, J. C. Burant, S. S. Iyengar, 
 J. Tomasi, M. Cossi, J. M. Millam, M. Klene, C. Adamo, R. Cammi, 
 J. W. Ochterski, R. L. Martin, K. Morokuma, O. Farkas, 
 J. B. Foresman, and D. J. Fox, Gaussian, Inc., Wallingford CT, 2016.
 
 ******************************************
 Gaussian 16:  ES64L-G16RevB.01 20-Dec-2017
                11-Aug-2020 
 ******************************************
 %NProcShared=16
 Will use up to   16 processors via shared memory.
 -------------------------------------------------------------
 #n B3LYP/6-31+G(d,p) EmpiricalDispersion=GD3 Opt=modredundant
 -------------------------------------------------------------
 1/18=120,19=15,26=3,38=1/1,3;
 2/9=110,12=2,17=6,18=5,40=1/2;
 3/5=1,6=6,7=111,11=2,25=1,30=1,71=1,74=-5,124=31/1,2,3;
 4//1;
 5/5=2,38=5/2;
 6/7=2,8=2,9=2,10=2,28=1/1;
 7//1,2,3,16;
 1/18=20,19=15,26=3/3(2);
 2/9=110/2;
 99//99;
 2/9=110/2;
 3/5=1,6=6,7=111,11=2,25=1,30=1,71=1,74=-5,124=31/1,2,3;
 4/5=5,16=3,69=1/1;
 5/5=2,38=5/2;
 7//1,2,3,16;
 1/18=20,19=15,26=3/3(-5);
 2/9=110/2;
 6/7=2,8=2,9=2,10=2,19=2,28=1/1;
 99/9=1/99;
 -----
 Title
 -----
 Symbolic Z-matrix:
 Charge =  0 Multiplicity = 1
 Si                   -1.97199   0.03198   0.02178 
 O                    -1.49839  -1.04281  -1.16096 
 O                    -3.61529   0.07731   0.01517 
 O                    -1.38578   1.53664  -0.16122 
 O                    -1.32513  -0.62357   1.41007 
 H                    -1.61852  -1.51781   1.62751 
 H                    -0.41713   1.65614  -0.27249 
 H                    -4.03179   0.8972    0.30533 
 Si                    2.12707  -0.03662  -0.03297 
 O                     3.76447   0.0632   -0.10921 
 O                     1.52589   1.49698  -0.36973 
 O                     1.71972  -0.48276   1.49942 
 O                     1.53422  -1.03039  -1.18753 
 H                     0.5749   -1.17424  -1.25932 
 H                     0.76729  -0.55286   1.68547 
 H                     4.26219  -0.56645   0.42401 
 H                     1.99317   2.21913   0.06944 
 H                    -1.95012  -0.97878  -2.01163 
 
 Add virtual bond connecting atoms O11        and H7         Dist= 3.69D+00.
 Add virtual bond connecting atoms H14        and O2         Dist= 3.93D+00.
 The following ModRedundant input section has been read:
 B       1       9 F                                                           
 

 GradGradGradGradGradGradGradGradGradGradGradGradGradGradGradGradGradGrad
 Berny optimization.
 Initialization pass.
                           ----------------------------
                           !    Initial Parameters    !
                           ! (Angstroms and Degrees)  !
 --------------------------                            --------------------------
 ! Name  Definition              Value          Derivative Info.                !
 --------------------------------------------------------------------------------
 ! R1    R(1,2)                  1.6668         estimate D2E/DX2                !
 ! R2    R(1,3)                  1.6439         estimate D2E/DX2                !
 ! R3    R(1,4)                  1.6252         estimate D2E/DX2                !
 ! R4    R(1,5)                  1.666          estimate D2E/DX2                !
 ! R5    R(1,9)                  4.1            Frozen                          !
 ! R6    R(2,14)                 2.0798         estimate D2E/DX2                !
 ! R7    R(2,18)                 0.9653         estimate D2E/DX2                !
 ! R8    R(3,8)                  0.9643         estimate D2E/DX2                !
 ! R9    R(4,7)                  0.9823         estimate D2E/DX2                !
 ! R10   R(5,6)                  0.9659         estimate D2E/DX2                !
 ! R11   R(7,11)                 1.952          estimate D2E/DX2                !
 ! R12   R(9,10)                 1.6422         estimate D2E/DX2                !
 ! R13   R(9,11)                 1.6813         estimate D2E/DX2                !
 ! R14   R(9,12)                 1.6472         estimate D2E/DX2                !
 ! R15   R(9,13)                 1.6346         estimate D2E/DX2                !
 ! R16   R(10,16)                0.9636         estimate D2E/DX2                !
 ! R17   R(11,17)                0.9658         estimate D2E/DX2                !
 ! R18   R(12,15)                0.973          estimate D2E/DX2                !
 ! R19   R(13,14)                0.9727         estimate D2E/DX2                !
 ! A1    A(2,1,3)              107.3944         estimate D2E/DX2                !
 ! A2    A(2,1,4)              114.4947         estimate D2E/DX2                !
 ! A3    A(2,1,5)              103.1351         estimate D2E/DX2                !
 ! A4    A(3,1,4)              109.5475         estimate D2E/DX2                !
 ! A5    A(3,1,5)              113.7235         estimate D2E/DX2                !
 ! A6    A(4,1,5)              108.5478         estimate D2E/DX2                !
 ! A7    A(1,2,14)             110.9499         estimate D2E/DX2                !
 ! A8    A(1,2,18)             116.7164         estimate D2E/DX2                !
 ! A9    A(14,2,18)            115.4056         estimate D2E/DX2                !
 ! A10   A(1,3,8)              116.9996         estimate D2E/DX2                !
 ! A11   A(1,4,7)              118.7559         estimate D2E/DX2                !
 ! A12   A(1,5,6)              115.7177         estimate D2E/DX2                !
 ! A13   A(10,9,11)            106.9645         estimate D2E/DX2                !
 ! A14   A(10,9,12)            107.8322         estimate D2E/DX2                !
 ! A15   A(10,9,13)            111.4555         estimate D2E/DX2                !
 ! A16   A(11,9,12)            110.18           estimate D2E/DX2                !
 ! A17   A(11,9,13)            106.4622         estimate D2E/DX2                !
 ! A18   A(12,9,13)            113.7492         estimate D2E/DX2                !
 ! A19   A(9,10,16)            116.7183         estimate D2E/DX2                !
 ! A20   A(7,11,9)             114.8555         estimate D2E/DX2                !
 ! A21   A(7,11,17)            113.4533         estimate D2E/DX2                !
 ! A22   A(9,11,17)            114.7063         estimate D2E/DX2                !
 ! A23   A(9,12,15)            116.0715         estimate D2E/DX2                !
 ! A24   A(9,13,14)            119.9819         estimate D2E/DX2                !
 ! A25   L(4,7,11,15,-1)       168.9287         estimate D2E/DX2                !
 ! A26   L(2,14,13,15,-1)      170.7281         estimate D2E/DX2                !
 ! A27   L(4,7,11,15,-2)       174.5269         estimate D2E/DX2                !
 ! A28   L(2,14,13,15,-2)      190.5278         estimate D2E/DX2                !
 ! D1    D(3,1,2,14)           179.5302         estimate D2E/DX2                !
 ! D2    D(3,1,2,18)            44.5394         estimate D2E/DX2                !
 ! D3    D(4,1,2,14)            57.6577         estimate D2E/DX2                !
 ! D4    D(4,1,2,18)           -77.3331         estimate D2E/DX2                !
 ! D5    D(5,1,2,14)           -60.0697         estimate D2E/DX2                !
 ! D6    D(5,1,2,18)           164.9394         estimate D2E/DX2                !
 ! D7    D(2,1,3,8)           -151.7167         estimate D2E/DX2                !
 ! D8    D(4,1,3,8)            -26.8074         estimate D2E/DX2                !
 ! D9    D(5,1,3,8)             94.8432         estimate D2E/DX2                !
 ! D10   D(2,1,4,7)            -52.8688         estimate D2E/DX2                !
 ! D11   D(3,1,4,7)           -173.5574         estimate D2E/DX2                !
 ! D12   D(5,1,4,7)             61.7309         estimate D2E/DX2                !
 ! D13   D(2,1,5,6)            -59.1788         estimate D2E/DX2                !
 ! D14   D(3,1,5,6)             56.7888         estimate D2E/DX2                !
 ! D15   D(4,1,5,6)            178.9933         estimate D2E/DX2                !
 ! D16   D(1,2,13,9)             1.8906         estimate D2E/DX2                !
 ! D17   D(18,2,13,9)          135.0685         estimate D2E/DX2                !
 ! D18   D(1,4,11,9)            -8.6328         estimate D2E/DX2                !
 ! D19   D(1,4,11,17)         -141.7614         estimate D2E/DX2                !
 ! D20   D(11,9,10,16)         152.8741         estimate D2E/DX2                !
 ! D21   D(12,9,10,16)          34.3847         estimate D2E/DX2                !
 ! D22   D(13,9,10,16)         -91.1352         estimate D2E/DX2                !
 ! D23   D(10,9,11,7)         -177.7552         estimate D2E/DX2                !
 ! D24   D(10,9,11,17)         -43.6516         estimate D2E/DX2                !
 ! D25   D(12,9,11,7)          -60.8049         estimate D2E/DX2                !
 ! D26   D(12,9,11,17)          73.2987         estimate D2E/DX2                !
 ! D27   D(13,9,11,7)           62.9759         estimate D2E/DX2                !
 ! D28   D(13,9,11,17)        -162.9205         estimate D2E/DX2                !
 ! D29   D(10,9,12,15)         178.2704         estimate D2E/DX2                !
 ! D30   D(11,9,12,15)          61.8612         estimate D2E/DX2                !
 ! D31   D(13,9,12,15)         -57.582          estimate D2E/DX2                !
 ! D32   D(10,9,13,14)        -179.5274         estimate D2E/DX2                !
 ! D33   D(11,9,13,14)         -63.2294         estimate D2E/DX2                !
 ! D34   D(12,9,13,14)          58.3051         estimate D2E/DX2                !
 --------------------------------------------------------------------------------
 Trust Radius=3.00D-01 FncErr=1.00D-07 GrdErr=1.00D-06 EigMax=2.50D+02 EigMin=1.00D-04
 Number of steps in this run=     91 maximum allowed number of steps=    108.
 GradGradGradGradGradGradGradGradGradGradGradGradGradGradGradGradGradGrad

                          Input orientation:                          
 ---------------------------------------------------------------------
 Center     Atomic      Atomic             Coordinates (Angstroms)
 Number     Number       Type             X           Y           Z
 ---------------------------------------------------------------------
      1         14           0       -1.971990    0.031980    0.021780
      2          8           0       -1.498390   -1.042810   -1.160960
      3          8           0       -3.615290    0.077310    0.015170
      4          8           0       -1.385780    1.536640   -0.161220
      5          8           0       -1.325130   -0.623570    1.410070
      6          1           0       -1.618520   -1.517810    1.627510
      7          1           0       -0.417130    1.656140   -0.272490
      8          1           0       -4.031790    0.897200    0.305330
      9         14           0        2.127070   -0.036620   -0.032970
     10          8           0        3.764470    0.063200   -0.109210
     11          8           0        1.525890    1.496980   -0.369730
     12          8           0        1.719720   -0.482760    1.499420
     13          8           0        1.534220   -1.030390   -1.187530
     14          1           0        0.574900   -1.174240   -1.259320
     15          1           0        0.767290   -0.552860    1.685470
     16          1           0        4.262190   -0.566450    0.424010
     17          1           0        1.993170    2.219130    0.069440
     18          1           0       -1.950120   -0.978780   -2.011630
 ---------------------------------------------------------------------
                    Distance matrix (angstroms):
                    1          2          3          4          5
     1  Si   0.000000
     2  O    1.666837   0.000000
     3  O    1.643938   2.668186   0.000000
     4  O    1.625156   2.768704   2.670482   0.000000
     5  O    1.665990   2.610743   2.771608   2.671917   0.000000
     6  H    2.259460   2.831187   3.021777   3.547307   0.965931
     7  H    2.267616   3.040203   3.578223   0.982316   2.975323
     8  H    2.252062   3.511661   0.964305   2.761869   3.295330
     9  Si   4.100000   3.927943   5.743692   3.851196   3.787421
    10  O    5.738040   5.479702   7.380822   5.357127   5.355735
    11  O    3.812436   4.027760   5.347461   2.919396   3.974007
    12  O    4.009626   4.212779   5.565879   4.059536   3.049413
    13  O    3.858053   3.032752   5.402864   4.021114   3.884445
    14  H    3.095615   2.079779   4.555041   3.521216   3.322498
    15  H    3.257845   3.670902   4.732232   3.523065   2.111650
    16  H    6.275740   5.993607   7.914308   6.055167   5.673951
    17  H    4.528619   4.934078   6.003762   3.454895   4.570487
    18  H    2.270874   0.965298   2.827726   3.173300   3.496401
                    6          7          8          9         10
     6  H    0.000000
     7  H    3.889383   0.000000
     8  H    3.661189   3.738400   0.000000
     9  Si   4.356669   3.065250   6.238431   0.000000
    10  O    5.873021   4.477711   7.851692   1.642211   0.000000
    11  O    4.792206   1.951951   5.630564   1.681295   2.671111
    12  O    3.497368   3.504381   6.034071   1.647178   2.658339
    13  O    4.254621   3.444199   6.076570   1.634643   2.707901
    14  H    3.641829   3.157374   5.287777   2.281961   3.609344
    15  H    2.574214   3.180588   5.199868   2.251342   3.547322
    16  H    6.077520   5.226955   8.422972   2.246840   0.963591
    17  H    5.425551   2.498684   6.172786   2.262040   2.795971
    18  H    3.693758   3.509625   3.636063   4.628849   6.112402
                   11         12         13         14         15
    11  O    0.000000
    12  O    2.729590   0.000000
    13  O    2.656401   2.748456   0.000000
    14  H    2.971728   3.065845   0.972698   0.000000
    15  H    3.000194   0.972960   3.011701   3.015778   0.000000
    16  H    3.517827   2.761823   3.202206   4.098672   3.715615
    17  H    0.965775   3.069174   3.514255   3.910505   3.434860
    18  H    4.572512   5.103061   3.580842   2.641950   4.608066
                   16         17         18
    16  H    0.000000
    17  H    3.610212   0.000000
    18  H    6.685443   5.486986   0.000000
 Stoichiometry    H8O8Si2
 Framework group  C1[X(H8O8Si2)]
 Deg. of freedom    48
 Full point group                 C1      NOp   1
 Largest Abelian subgroup         C1      NOp   1
 Largest concise Abelian subgroup C1      NOp   1
                         Standard orientation:                         
 ---------------------------------------------------------------------
 Center     Atomic      Atomic             Coordinates (Angstroms)
 Number     Number       Type             X           Y           Z
 ---------------------------------------------------------------------
      1         14           0       -2.047116    0.031926    0.021202
      2          8           0       -1.571918   -1.043176   -1.160613
      3          8           0       -3.690439    0.076190    0.013313
      4          8           0       -1.461739    1.536869   -0.162138
      5          8           0       -1.400893   -0.622479    1.410328
      6          1           0       -1.693871   -1.516795    1.628012
      7          1           0       -0.493081    1.656937   -0.272731
      8          1           0       -4.107691    0.895962    0.302726
      9         14           0        2.052028   -0.034051   -0.030382
     10          8           0        3.689421    0.066788   -0.105423
     11          8           0        1.450115    1.498983   -0.368403
     12          8           0        1.643796   -0.479653    1.501930
     13          8           0        1.460703   -1.028808   -1.184874
     14          1           0        0.501531   -1.173316   -1.257321
     15          1           0        0.691270   -0.550272    1.687289
     16          1           0        4.187141   -0.562261    0.428506
     17          1           0        1.916592    2.221665    0.070745
     18          1           0       -2.023039   -0.979883   -2.011662
 ---------------------------------------------------------------------
 Rotational constants (GHZ):           1.9567807           0.4770812           0.4745040
 Standard basis: 6-31+G(d,p) (6D, 7F)
 There are   238 symmetry adapted cartesian basis functions of A   symmetry.
 There are   238 symmetry adapted basis functions of A   symmetry.
   238 basis functions,   424 primitive gaussians,   238 cartesian basis functions
    50 alpha electrons       50 beta electrons
       nuclear repulsion energy       846.6923189684 Hartrees.
 NAtoms=   18 NActive=   18 NUniq=   18 SFac= 1.00D+00 NAtFMM=   60 NAOKFM=F Big=F
 Integral buffers will be    131072 words long.
 Raffenetti 2 integral format.
 Two-electron integral symmetry is turned on.
 Nuclear repulsion after empirical dispersion term =      846.6766436329 Hartrees.
 One-electron integrals computed using PRISM.
 NBasis=   238 RedAO= T EigKep=  2.57D-04  NBF=   238
 NBsUse=   238 1.00D-06 EigRej= -1.00D+00 NBFU=   238
 ExpMin= 3.31D-02 ExpMax= 1.61D+04 ExpMxC= 2.43D+03 IAcc=3 IRadAn=         5 AccDes= 0.00D+00
 Harris functional with IExCor=  402 and IRadAn=       5 diagonalized for initial guess.
 HarFok:  IExCor=  402 AccDes= 0.00D+00 IRadAn=         5 IDoV= 1 UseB2=F ITyADJ=14
 ICtDFT=  3500011 ScaDFX=  1.000000  1.000000  1.000000  1.000000
 FoFCou: FMM=F IPFlag=           0 FMFlag=      100000 FMFlg1=           0
         NFxFlg=           0 DoJE=T BraDBF=F KetDBF=T FulRan=T
         wScrn=  0.000000 ICntrl=       500 IOpCl=  0 I1Cent=   200000004 NGrid=           0
         NMat0=    1 NMatS0=      1 NMatT0=    0 NMatD0=    1 NMtDS0=    0 NMtDT0=    0
 Petite list used in FoFCou.
 Requested convergence on RMS density matrix=1.00D-08 within 128 cycles.
 Requested convergence on MAX density matrix=1.00D-06.
 Requested convergence on             energy=1.00D-06.
 No special actions if energy rises.
 SCF Done:  E(RB3LYP) =  -1186.07289700     A.U. after   12 cycles
            NFock= 12  Conv=0.24D-08     -V/T= 2.0067

 **********************************************************************

            Population analysis using the SCF Density.

 **********************************************************************

 Orbital symmetries:
       Occupied  (A) (A) (A) (A) (A) (A) (A) (A) (A) (A) (A) (A)
                 (A) (A) (A) (A) (A) (A) (A) (A) (A) (A) (A) (A)
                 (A) (A) (A) (A) (A) (A) (A) (A) (A) (A) (A) (A)
                 (A) (A) (A) (A) (A) (A) (A) (A) (A) (A) (A) (A)
                 (A) (A)
       Virtual   (A) (A) (A) (A) (A) (A) (A) (A) (A) (A) (A) (A)
                 (A) (A) (A) (A) (A) (A) (A) (A) (A) (A) (A) (A)
                 (A) (A) (A) (A) (A) (A) (A) (A) (A) (A) (A) (A)
                 (A) (A) (A) (A) (A) (A) (A) (A) (A) (A) (A) (A)
                 (A) (A) (A) (A) (A) (A) (A) (A) (A) (A) (A) (A)
                 (A) (A) (A) (A) (A) (A) (A) (A) (A) (A) (A) (A)
                 (A) (A) (A) (A) (A) (A) (A) (A) (A) (A) (A) (A)
                 (A) (A) (A) (A) (A) (A) (A) (A) (A) (A) (A) (A)
                 (A) (A) (A) (A) (A) (A) (A) (A) (A) (A) (A) (A)
                 (A) (A) (A) (A) (A) (A) (A) (A) (A) (A) (A) (A)
                 (A) (A) (A) (A) (A) (A) (A) (A) (A) (A) (A) (A)
                 (A) (A) (A) (A) (A) (A) (A) (A) (A) (A) (A) (A)
                 (A) (A) (A) (A) (A) (A) (A) (A) (A) (A) (A) (A)
                 (A) (A) (A) (A) (A) (A) (A) (A) (A) (A) (A) (A)
                 (A) (A) (A) (A) (A) (A) (A) (A) (A) (A) (A) (A)
                 (A) (A) (A) (A) (A) (A) (A) (A)
 The electronic state is 1-A.
 Alpha  occ. eigenvalues --  -66.23677 -66.21823 -19.19086 -19.19028 -19.18533
 Alpha  occ. eigenvalues --  -19.17696 -19.17067 -19.16785 -19.15748 -19.15589
 Alpha  occ. eigenvalues --   -5.37024  -5.35150  -3.73020  -3.73011  -3.72967
 Alpha  occ. eigenvalues --   -3.71175  -3.71122  -3.71084  -1.06207  -1.04254
 Alpha  occ. eigenvalues --   -1.02757  -1.02625  -1.01483  -1.00821  -1.00163
 Alpha  occ. eigenvalues --   -0.99537  -0.61370  -0.59583  -0.55477  -0.55235
 Alpha  occ. eigenvalues --   -0.53837  -0.52978  -0.52656  -0.51834  -0.42957
 Alpha  occ. eigenvalues --   -0.42129  -0.40724  -0.40337  -0.39646  -0.38831
 Alpha  occ. eigenvalues --   -0.37968  -0.37539  -0.37276  -0.36086  -0.35211
 Alpha  occ. eigenvalues --   -0.34690  -0.34174  -0.33913  -0.33539  -0.31243
 Alpha virt. eigenvalues --   -0.03766  -0.01017   0.00516   0.00748   0.01944
 Alpha virt. eigenvalues --    0.04353   0.05223   0.06233   0.09102   0.09652
 Alpha virt. eigenvalues --    0.09771   0.10892   0.12150   0.13157   0.13283
 Alpha virt. eigenvalues --    0.14473   0.14712   0.14762   0.15054   0.15364
 Alpha virt. eigenvalues --    0.16024   0.16287   0.16804   0.17413   0.18044
 Alpha virt. eigenvalues --    0.18540   0.19281   0.20815   0.20940   0.21346
 Alpha virt. eigenvalues --    0.21538   0.21630   0.22662   0.23558   0.24320
 Alpha virt. eigenvalues --    0.24774   0.25300   0.26086   0.26547   0.27593
 Alpha virt. eigenvalues --    0.27927   0.28307   0.29112   0.29767   0.30034
 Alpha virt. eigenvalues --    0.31306   0.32746   0.33794   0.35641   0.37025
 Alpha virt. eigenvalues --    0.37662   0.38620   0.40800   0.41285   0.43423
 Alpha virt. eigenvalues --    0.45098   0.45849   0.46847   0.49605   0.49926
 Alpha virt. eigenvalues --    0.51414   0.58381   0.61181   0.62456   0.62980
 Alpha virt. eigenvalues --    0.63559   0.64874   0.75838   0.92515   0.93042
 Alpha virt. eigenvalues --    0.94403   0.96290   0.97230   0.97856   0.99412
 Alpha virt. eigenvalues --    1.00012   1.00786   1.01660   1.02365   1.08225
 Alpha virt. eigenvalues --    1.09483   1.10723   1.15717   1.16190   1.16952
 Alpha virt. eigenvalues --    1.17600   1.17815   1.18527   1.19133   1.19829
 Alpha virt. eigenvalues --    1.20935   1.21313   1.22860   1.23790   1.24332
 Alpha virt. eigenvalues --    1.25919   1.26577   1.27634   1.27710   1.29674
 Alpha virt. eigenvalues --    1.30668   1.31474   1.33453   1.35019   1.36225
 Alpha virt. eigenvalues --    1.37878   1.49191   1.50539   1.53841   1.54903
 Alpha virt. eigenvalues --    1.55704   1.56132   1.57933   1.58684   1.60118
 Alpha virt. eigenvalues --    1.62192   1.62530   1.63551   1.66027   1.67558
 Alpha virt. eigenvalues --    1.69111   1.71603   1.72960   1.74320   1.77264
 Alpha virt. eigenvalues --    1.78543   1.79647   1.82364   1.85111   1.88895
 Alpha virt. eigenvalues --    1.90289   1.91343   1.97960   2.00623   2.02774
 Alpha virt. eigenvalues --    2.03744   2.09939   2.10925   2.34186   2.36103
 Alpha virt. eigenvalues --    2.37053   2.38667   2.39863   2.42889   2.44222
 Alpha virt. eigenvalues --    2.44746   2.45749   2.47937   2.57651   2.59104
 Alpha virt. eigenvalues --    2.59518   2.60358   2.61355   2.61671   2.61826
 Alpha virt. eigenvalues --    2.63443   2.63899   2.65143   2.66181   2.66732
 Alpha virt. eigenvalues --    2.67991   2.68709   2.70095   2.72478   2.75921
 Alpha virt. eigenvalues --    2.77213   2.79260   2.82545   2.84755   2.84775
 Alpha virt. eigenvalues --    2.99112   3.02141   3.40571   3.42533   3.43091
 Alpha virt. eigenvalues --    3.43362   3.44277   3.54669   3.56611   3.59532
 Alpha virt. eigenvalues --    4.15397   4.19519   4.23512   4.24978   4.27651
 Alpha virt. eigenvalues --    4.27990   4.32795   4.39449
          Condensed to atoms (all electrons):
               1          2          3          4          5          6
     1  Si  11.635995  -0.001081   0.036572   0.134190  -0.024257   0.042423
     2  O   -0.001081   8.653900  -0.008366   0.026929   0.094048  -0.009067
     3  O    0.036572  -0.008366   8.626613  -0.028122  -0.059339  -0.003189
     4  O    0.134190   0.026929  -0.028122   8.494266   0.076299   0.005631
     5  O   -0.024257   0.094048  -0.059339   0.076299   8.617412   0.239372
     6  H    0.042423  -0.009067  -0.003189   0.005631   0.239372   0.354336
     7  H    0.025181  -0.004720   0.007228   0.236972  -0.004701  -0.000020
     8  H    0.033657   0.004206   0.235639  -0.001313  -0.003718   0.000040
     9  Si  -0.097365   0.053227  -0.006077   0.035817   0.069450  -0.003282
    10  O   -0.004596   0.001837  -0.000139   0.002144   0.002524  -0.000018
    11  O    0.059295  -0.021318   0.002610  -0.042427  -0.022726   0.000281
    12  O    0.021336  -0.018530   0.001616  -0.013506  -0.022681   0.000561
    13  O    0.050045  -0.028862   0.002699  -0.023804  -0.030482   0.000375
    14  H    0.004623   0.009426   0.000018   0.000586  -0.000729   0.000012
    15  H   -0.003175   0.001190   0.000062   0.000906   0.010556  -0.001244
    16  H    0.000245  -0.000007   0.000000  -0.000004  -0.000018  -0.000000
    17  H   -0.002660   0.000221  -0.000027   0.002249   0.000298  -0.000001
    18  H    0.026612   0.240728  -0.001583  -0.007235   0.005183   0.000054
               7          8          9         10         11         12
     1  Si   0.025181   0.033657  -0.097365  -0.004596   0.059295   0.021336
     2  O   -0.004720   0.004206   0.053227   0.001837  -0.021318  -0.018530
     3  O    0.007228   0.235639  -0.006077  -0.000139   0.002610   0.001616
     4  O    0.236972  -0.001313   0.035817   0.002144  -0.042427  -0.013506
     5  O   -0.004701  -0.003718   0.069450   0.002524  -0.022726  -0.022681
     6  H   -0.000020   0.000040  -0.003282  -0.000018   0.000281   0.000561
     7  H    0.287669   0.000027   0.003529   0.000020   0.017032   0.001075
     8  H    0.000027   0.353006   0.000130   0.000000  -0.000004  -0.000005
     9  Si   0.003529   0.000130  11.625916   0.025625  -0.057422   0.119592
    10  O    0.000020   0.000000   0.025625   8.600920  -0.002055  -0.006325
    11  O    0.017032  -0.000004  -0.057422  -0.002055   8.699883   0.069317
    12  O    0.001075  -0.000005   0.119592  -0.006325   0.069317   8.491524
    13  O   -0.000254  -0.000002   0.045369  -0.027920   0.080016   0.034952
    14  H   -0.000015  -0.000001   0.032420   0.005516  -0.003159  -0.006812
    15  H    0.000044  -0.000001   0.032552   0.008776  -0.007281   0.238048
    16  H   -0.000002  -0.000000   0.034690   0.237010   0.003198  -0.002388
    17  H   -0.002067  -0.000000   0.032563   0.001956   0.237473  -0.011036
    18  H    0.000155   0.000054  -0.001810  -0.000005   0.000137   0.000046
              13         14         15         16         17         18
     1  Si   0.050045   0.004623  -0.003175   0.000245  -0.002660   0.026612
     2  O   -0.028862   0.009426   0.001190  -0.000007   0.000221   0.240728
     3  O    0.002699   0.000018   0.000062   0.000000  -0.000027  -0.001583
     4  O   -0.023804   0.000586   0.000906  -0.000004   0.002249  -0.007235
     5  O   -0.030482  -0.000729   0.010556  -0.000018   0.000298   0.005183
     6  H    0.000375   0.000012  -0.001244  -0.000000  -0.000001   0.000054
     7  H   -0.000254  -0.000015   0.000044  -0.000002  -0.002067   0.000155
     8  H   -0.000002  -0.000001  -0.000001  -0.000000  -0.000000   0.000054
     9  Si   0.045369   0.032420   0.032552   0.034690   0.032563  -0.001810
    10  O   -0.027920   0.005516   0.008776   0.237010   0.001956  -0.000005
    11  O    0.080016  -0.003159  -0.007281   0.003198   0.237473   0.000137
    12  O    0.034952  -0.006812   0.238048  -0.002388  -0.011036   0.000046
    13  O    8.540996   0.235234  -0.007775  -0.003846   0.005991   0.000732
    14  H    0.235234   0.312854   0.000083  -0.000025  -0.000055  -0.000816
    15  H   -0.007775   0.000083   0.313742   0.000041   0.000184  -0.000012
    16  H   -0.003846  -0.000025   0.000041   0.360236   0.000083   0.000000
    17  H    0.005991  -0.000055   0.000184   0.000083   0.350175  -0.000000
    18  H    0.000732  -0.000816  -0.000012   0.000000  -0.000000   0.345840
 Mulliken charges:
               1
     1  Si   2.062962
     2  O   -0.993760
     3  O   -0.806216
     4  O   -0.899579
     5  O   -0.946491
     6  H    0.373736
     7  H    0.432848
     8  H    0.378286
     9  Si   2.055077
    10  O   -0.845271
    11  O   -1.012848
    12  O   -0.896784
    13  O   -0.873464
    14  H    0.410839
    15  H    0.413305
    16  H    0.370787
    17  H    0.384653
    18  H    0.391919
 Sum of Mulliken charges =  -0.00000
 Mulliken charges with hydrogens summed into heavy atoms:
               1
     1  Si   2.062962
     2  O   -0.601841
     3  O   -0.427929
     4  O   -0.466731
     5  O   -0.572755
     9  Si   2.055077
    10  O   -0.474484
    11  O   -0.628195
    12  O   -0.483479
    13  O   -0.462625
 Electronic spatial extent (au):  <R**2>=           2408.7750
 Charge=             -0.0000 electrons
 Dipole moment (field-independent basis, Debye):
    X=             -2.4051    Y=             -0.0073    Z=              0.9971  Tot=              2.6036
 Quadrupole moment (field-independent basis, Debye-Ang):
   XX=            -66.9448   YY=            -68.2777   ZZ=            -72.6770
   XY=              0.5458   XZ=              4.6679   YZ=             -0.4444
 Traceless Quadrupole moment (field-independent basis, Debye-Ang):
   XX=              2.3550   YY=              1.0221   ZZ=             -3.3772
   XY=              0.5458   XZ=              4.6679   YZ=             -0.4444
 Octapole moment (field-independent basis, Debye-Ang**2):
  XXX=             -3.3520  YYY=              6.2417  ZZZ=            -13.6848  XYY=              2.8581
  XXY=              6.5689  XXZ=             23.0288  XZZ=            -24.8168  YZZ=             -7.4203
  YYZ=             12.1518  XYZ=             -1.7543
 Hexadecapole moment (field-independent basis, Debye-Ang**3):
 XXXX=          -1997.0391 YYYY=           -341.0852 ZZZZ=           -343.1401 XXXY=           -174.8756
 XXXZ=             51.8989 YYYX=             49.8930 YYYZ=             -6.7121 ZZZX=             22.8679
 ZZZY=              3.4394 XXYY=           -370.8898 XXZZ=           -416.1790 YYZZ=           -113.1239
 XXYZ=              3.6022 YYXZ=             -3.1311 ZZXY=             26.0601
 N-N= 8.466766436329D+02 E-N=-4.502904114981D+03  KE= 1.178165403484D+03
 Calling FoFJK, ICntrl=      2127 FMM=F ISym2X=0 I1Cent= 0 IOpClX= 0 NMat=1 NMatS=1 NMatT=0.
 ***** Axes restored to original set *****
 -------------------------------------------------------------------
 Center     Atomic                   Forces (Hartrees/Bohr)
 Number     Number              X              Y              Z
 -------------------------------------------------------------------
      1       14           0.001906493   -0.005425961    0.000384775
      2        8           0.001467405    0.001119409    0.000405879
      3        8          -0.000055307    0.000986358   -0.000040438
      4        8           0.006485447    0.002758017   -0.000882667
      5        8           0.001559742    0.000979530   -0.000682971
      6        1           0.000230750    0.000297619   -0.000144657
      7        1          -0.002929807   -0.000156603    0.000585821
      8        1          -0.000226513   -0.000080855    0.000057732
      9       14          -0.001428245    0.004996198   -0.000914554
     10        8          -0.000182810   -0.000745098    0.000296955
     11        8          -0.002367600   -0.002113485    0.000435680
     12        8          -0.003144036   -0.001006914    0.001032979
     13        8          -0.003519025   -0.001468533   -0.000894451
     14        1           0.001293227    0.000316587    0.000139648
     15        1           0.000900261   -0.000108511    0.000219045
     16        1           0.000220171   -0.000077003   -0.000072542
     17        1          -0.000445407   -0.000193626   -0.000060467
     18        1           0.000235253   -0.000077128    0.000134232
 -------------------------------------------------------------------
 Cartesian Forces:  Max     0.006485447 RMS     0.001776272

 GradGradGradGradGradGradGradGradGradGradGradGradGradGradGradGradGradGrad
 Berny optimization.
 FormGI is forming the generalized inverse of G from B-inverse, IUseBI=4.
 Internal  Forces:  Max     0.005586071 RMS     0.001202124
 Search for a local minimum.
 Step number   1 out of a maximum of   91
 All quantities printed in internal units (Hartrees-Bohrs-Radians)
 Mixed Optimization -- En-DIIS/RFO-DIIS
 Second derivative matrix not updated -- first step.
 ITU=  0
     Eigenvalues ---    0.01267   0.02548   0.02901   0.03217   0.03466
     Eigenvalues ---    0.03540   0.03654   0.03718   0.03758   0.03781
     Eigenvalues ---    0.04079   0.04667   0.06576   0.07563   0.08136
     Eigenvalues ---    0.08335   0.10868   0.11277   0.11504   0.11613
     Eigenvalues ---    0.11918   0.12795   0.14237   0.15979   0.16000
     Eigenvalues ---    0.16000   0.16000   0.17012   0.17675   0.18364
     Eigenvalues ---    0.19812   0.36788   0.38800   0.40316   0.43052
     Eigenvalues ---    0.43581   0.43758   0.43851   0.44988   0.47553
     Eigenvalues ---    0.49955   0.52776   0.54217   0.54250   0.54349
     Eigenvalues ---    0.54558   0.547081000.000001000.000001000.00000
     Eigenvalues --- 1000.000001000.000001000.000001000.000001000.00000
     Eigenvalues --- 1000.000001000.000001000.000001000.000001000.00000
     Eigenvalues --- 1000.000001000.000001000.000001000.000001000.00000
     Eigenvalues --- 1000.000001000.000001000.000001000.000001000.00000
     Eigenvalues --- 1000.000001000.000001000.000001000.000001000.00000
     Eigenvalues --- 1000.000001000.000001000.000001000.000001000.00000
     Eigenvalues --- 1000.00000
 RFO step:  Lambda=-4.91131311D-04 EMin= 1.26667508D-02
 Linear search not attempted -- first point.
 Iteration  1 RMS(Cart)=  0.02649196 RMS(Int)=  0.00023772
 Iteration  2 RMS(Cart)=  0.00029483 RMS(Int)=  0.00005449
 Iteration  3 RMS(Cart)=  0.00000003 RMS(Int)=  0.00005449
 Iteration  1 RMS(Cart)=  0.00002340 RMS(Int)=  0.00000559
 Iteration  2 RMS(Cart)=  0.00000495 RMS(Int)=  0.00000604
 Iteration  3 RMS(Cart)=  0.00000105 RMS(Int)=  0.00000624
 Iteration  4 RMS(Cart)=  0.00000022 RMS(Int)=  0.00000628
 Variable       Old X    -DE/DX   Delta X   Delta X   Delta X     New X
                                 (Linear)    (Quad)   (Total)
    R1        3.14986  -0.00091   0.00000  -0.00111  -0.00109   3.14877
    R2        3.10659   0.00031   0.00000   0.00070   0.00070   3.10730
    R3        3.07110   0.00266   0.00000   0.00629   0.00634   3.07744
    R4        3.14826  -0.00050   0.00000  -0.00123  -0.00123   3.14703
    R5        7.74788  -0.00559   0.00000   0.00000  -0.00000   7.74788
    R6        3.93021  -0.00113   0.00000   0.00011   0.00016   3.93037
    R7        1.82415  -0.00023   0.00000  -0.00043  -0.00043   1.82372
    R8        1.82227   0.00005   0.00000   0.00008   0.00008   1.82236
    R9        1.85631  -0.00495   0.00000  -0.00769  -0.00759   1.84871
   R10        1.82535  -0.00038   0.00000  -0.00070  -0.00070   1.82465
   R11        3.68865  -0.00191   0.00000  -0.01784  -0.01775   3.67090
   R12        3.10333  -0.00002   0.00000  -0.00005  -0.00005   3.10328
   R13        3.17719  -0.00155   0.00000  -0.00262  -0.00260   3.17459
   R14        3.11271   0.00207   0.00000   0.00470   0.00470   3.11741
   R15        3.08903   0.00163   0.00000   0.00423   0.00425   3.09328
   R16        1.82092   0.00012   0.00000   0.00023   0.00023   1.82115
   R17        1.82505  -0.00039   0.00000  -0.00071  -0.00071   1.82434
   R18        1.83863  -0.00083   0.00000  -0.00157  -0.00157   1.83705
   R19        1.83813  -0.00245   0.00000  -0.00256  -0.00252   1.83561
    A1        1.87439   0.00076   0.00000   0.01141   0.01144   1.88582
    A2        1.99831  -0.00025   0.00000  -0.01010  -0.01023   1.98808
    A3        1.80005  -0.00035   0.00000  -0.00361  -0.00379   1.79626
    A4        1.91196  -0.00010   0.00000   0.00488   0.00497   1.91693
    A5        1.98485   0.00144   0.00000   0.01150   0.01149   1.99634
    A6        1.89452  -0.00143   0.00000  -0.01417  -0.01426   1.88026
    A7        1.93644  -0.00009   0.00000   0.00241   0.00237   1.93881
    A8        2.03709  -0.00002   0.00000   0.00050   0.00050   2.03759
    A9        2.01421   0.00029   0.00000  -0.00112  -0.00111   2.01310
   A10        2.04203   0.00042   0.00000   0.00259   0.00259   2.04461
   A11        2.07268  -0.00014   0.00000  -0.00219  -0.00208   2.07060
   A12        2.01966   0.00003   0.00000   0.00021   0.00021   2.01986
   A13        1.86688   0.00117   0.00000   0.01343   0.01348   1.88036
   A14        1.88203   0.00055   0.00000   0.00610   0.00610   1.88812
   A15        1.94527   0.00002   0.00000   0.00649   0.00656   1.95183
   A16        1.92300  -0.00038   0.00000  -0.00354  -0.00369   1.91932
   A17        1.85812  -0.00021   0.00000  -0.00864  -0.00882   1.84930
   A18        1.98530  -0.00103   0.00000  -0.01249  -0.01255   1.97275
   A19        2.03712   0.00033   0.00000   0.00206   0.00206   2.03918
   A20        2.00461   0.00083   0.00000   0.01053   0.01058   2.01519
   A21        1.98013  -0.00091   0.00000  -0.00397  -0.00401   1.97612
   A22        2.00200   0.00012   0.00000  -0.00052  -0.00053   2.00148
   A23        2.02583   0.00087   0.00000   0.00487   0.00487   2.03070
   A24        2.09408  -0.00025   0.00000  -0.00276  -0.00281   2.09127
   A25        2.94836  -0.00114   0.00000  -0.01505  -0.01488   2.93348
   A26        2.97977  -0.00093   0.00000  -0.00853  -0.00851   2.97126
   A27        3.04607   0.00115   0.00000   0.02634   0.02631   3.07238
   A28        3.32534  -0.00079   0.00000  -0.01637  -0.01624   3.30910
    D1        3.13339   0.00003   0.00000  -0.00106  -0.00109   3.13230
    D2        0.77736  -0.00030   0.00000  -0.00251  -0.00251   0.77485
    D3        1.00632  -0.00024   0.00000  -0.00905  -0.00906   0.99725
    D4       -1.34972  -0.00056   0.00000  -0.01050  -0.01049  -1.36020
    D5       -1.04841   0.00184   0.00000   0.01545   0.01542  -1.03300
    D6        2.87874   0.00151   0.00000   0.01400   0.01400   2.89273
    D7       -2.64796   0.00018   0.00000   0.00238   0.00240  -2.64555
    D8       -0.46788   0.00030   0.00000   0.00042   0.00043  -0.46745
    D9        1.65533  -0.00062   0.00000  -0.00637  -0.00640   1.64892
   D10       -0.92273   0.00029   0.00000   0.00520   0.00520  -0.91754
   D11       -3.02915  -0.00044   0.00000  -0.00627  -0.00624  -3.03539
   D12        1.07741  -0.00122   0.00000  -0.01438  -0.01429   1.06312
   D13       -1.03287  -0.00077   0.00000  -0.01029  -0.01029  -1.04315
   D14        0.99115   0.00060   0.00000   0.00656   0.00659   0.99774
   D15        3.12402   0.00040   0.00000   0.01021   0.01018   3.13420
   D16        0.03300   0.00016   0.00000   0.01590   0.01590   0.04889
   D17        2.35739   0.00055   0.00000   0.02274   0.02275   2.38014
   D18       -0.15067   0.00030   0.00000   0.02069   0.02072  -0.12996
   D19       -2.47420   0.00054   0.00000   0.02151   0.02153  -2.45267
   D20        2.66816   0.00006   0.00000   0.00322   0.00324   2.67140
   D21        0.60013  -0.00040   0.00000  -0.00294  -0.00296   0.59716
   D22       -1.59061   0.00050   0.00000   0.00418   0.00418  -1.58643
   D23       -3.10241   0.00036   0.00000  -0.00529  -0.00533  -3.10774
   D24       -0.76186  -0.00002   0.00000  -0.00053  -0.00053  -0.76239
   D25       -1.06125   0.00148   0.00000   0.00771   0.00768  -1.05357
   D26        1.27930   0.00110   0.00000   0.01247   0.01248   1.29178
   D27        1.09914  -0.00014   0.00000  -0.01523  -0.01525   1.08388
   D28       -2.84350  -0.00053   0.00000  -0.01047  -0.01045  -2.85395
   D29        3.11141   0.00062   0.00000   0.00536   0.00537   3.11678
   D30        1.07968  -0.00089   0.00000  -0.01224  -0.01226   1.06742
   D31       -1.00499   0.00035   0.00000   0.00973   0.00973  -0.99526
   D32       -3.13334  -0.00065   0.00000  -0.00506  -0.00502  -3.13837
   D33       -1.10356   0.00063   0.00000   0.00934   0.00935  -1.09421
   D34        1.01762  -0.00063   0.00000  -0.00883  -0.00874   1.00887
         Item               Value     Threshold  Converged?
 Maximum Force            0.004209     0.000450     NO 
 RMS     Force            0.000983     0.000300     NO 
 Maximum Displacement     0.106895     0.001800     NO 
 RMS     Displacement     0.026471     0.001200     NO 
 Predicted change in Energy=-2.448953D-04
 GradGradGradGradGradGradGradGradGradGradGradGradGradGradGradGradGradGrad

                          Input orientation:                          
 ---------------------------------------------------------------------
 Center     Atomic      Atomic             Coordinates (Angstroms)
 Number     Number       Type             X           Y           Z
 ---------------------------------------------------------------------
      1         14           0       -1.971609    0.033084    0.020263
      2          8           0       -1.495484   -1.043481   -1.159029
      3          8           0       -3.615285    0.075111    0.038136
      4          8           0       -1.382637    1.537695   -0.182962
      5          8           0       -1.285004   -0.598274    1.399868
      6          1           0       -1.561954   -1.493094    1.634187
      7          1           0       -0.418443    1.651487   -0.303163
      8          1           0       -4.031351    0.895474    0.327729
      9         14           0        2.127480   -0.035625   -0.032083
     10          8           0        3.766166    0.057967   -0.084170
     11          8           0        1.516691    1.493498   -0.365032
     12          8           0        1.686471   -0.499666    1.488302
     13          8           0        1.536597   -1.020064   -1.198767
     14          1           0        0.578009   -1.157159   -1.275333
     15          1           0        0.731924   -0.572099    1.657491
     16          1           0        4.255448   -0.578210    0.449329
     17          1           0        1.972206    2.216161    0.084696
     18          1           0       -1.954445   -0.990515   -2.006324
 ---------------------------------------------------------------------
                    Distance matrix (angstroms):
                    1          2          3          4          5
     1  Si   0.000000
     2  O    1.666258   0.000000
     3  O    1.644310   2.679180   0.000000
     4  O    1.628509   2.761867   2.678200   0.000000
     5  O    1.665338   2.605853   2.781721   2.660309   0.000000
     6  H    2.258714   2.829952   3.036909   3.538342   0.965562
     7  H    2.266309   3.025785   3.580677   0.978298   2.951723
     8  H    2.254061   3.521451   0.964350   2.772894   3.305025
     9  Si   4.099999   3.925768   5.744262   3.849548   3.743275
    10  O    5.738779   5.482105   7.382484   5.358127   5.305406
    11  O    3.801250   4.017448   5.339621   2.905376   3.916615
    12  O    3.977501   4.174797   5.526479   4.045168   2.974425
    13  O    3.860397   3.032432   5.410289   4.011972   3.859047
    14  H    3.097709   2.079861   4.563705   3.507085   3.307548
    15  H    3.218051   3.621648   4.683953   3.508542   2.033483
    16  H    6.271684   5.989701   7.908499   6.055151   5.621435
    17  H    4.508176   4.919043   5.983838   3.433210   4.501126
    18  H    2.270486   0.965070   2.841438   3.169141   3.493445
                    6          7          8          9         10
     6  H    0.000000
     7  H    3.866437   0.000000
     8  H    3.675597   3.744687   0.000000
     9  Si   4.302626   3.066196   6.239200   0.000000
    10  O    5.809251   4.483104   7.853175   1.642182   0.000000
    11  O    4.732300   1.942559   5.623018   1.679921   2.683239
    12  O    3.400065   3.502495   5.998903   1.649664   2.666224
    13  O    4.224973   3.429501   6.082888   1.636892   2.715779
    14  H    3.627341   3.134729   5.294272   2.281310   3.613827
    15  H    2.471973   3.179913   5.158568   2.256112   3.554854
    16  H    6.006918   5.232882   8.417694   2.248200   0.963711
    17  H    5.352548   2.486864   6.151908   2.260152   2.811514
    18  H    3.695938   3.498605   3.649425   4.633741   6.125307
                   11         12         13         14         15
    11  O    0.000000
    12  O    2.726971   0.000000
    13  O    2.648302   2.741097   0.000000
    14  H    2.955631   3.049371   0.971365   0.000000
    15  H    2.995521   0.972127   3.001063   2.994569   0.000000
    16  H    3.529298   2.772233   3.209923   4.102829   3.724905
    17  H    0.965397   3.070418   3.508587   3.895222   3.433129
    18  H    4.573067   5.070465   3.583350   2.641106   4.562367
                   16         17         18
    16  H    0.000000
    17  H    3.626936   0.000000
    18  H    6.690516   5.483951   0.000000
 Stoichiometry    H8O8Si2
 Framework group  C1[X(H8O8Si2)]
 Deg. of freedom    48
 Full point group                 C1      NOp   1
 Largest Abelian subgroup         C1      NOp   1
 Largest concise Abelian subgroup C1      NOp   1
                         Standard orientation:                         
 ---------------------------------------------------------------------
 Center     Atomic      Atomic             Coordinates (Angstroms)
 Number     Number       Type             X           Y           Z
 ---------------------------------------------------------------------
      1         14           0       -2.047431    0.027872    0.021304
      2          8           0       -1.568340   -1.047774   -1.157626
      3          8           0       -3.691216    0.065383    0.039156
      4          8           0       -1.462599    1.534029   -0.182423
      5          8           0       -1.359099   -0.601133    1.401124
      6          1           0       -1.633587   -1.496633    1.635741
      7          1           0       -0.498721    1.650433   -0.302658
      8          1           0       -4.109539    0.884696    0.328472
      9         14           0        2.051832   -0.029579   -0.031001
     10          8           0        3.690255    0.068502   -0.083112
     11          8           0        1.436841    1.497746   -0.364465
     12          8           0        1.612093   -0.494322    1.489537
     13          8           0        1.463665   -1.016031   -1.197358
     14          1           0        0.505458   -1.155788   -1.273883
     15          1           0        0.657748   -0.569324    1.658746
     16          1           0        4.181282   -0.566148    0.450602
     17          1           0        1.890364    2.221810    0.085023
     18          1           0       -2.027440   -0.996354   -2.004941
 ---------------------------------------------------------------------
 Rotational constants (GHZ):           1.9673963           0.4792898           0.4767577
 Standard basis: 6-31+G(d,p) (6D, 7F)
 There are   238 symmetry adapted cartesian basis functions of A   symmetry.
 There are   238 symmetry adapted basis functions of A   symmetry.
   238 basis functions,   424 primitive gaussians,   238 cartesian basis functions
    50 alpha electrons       50 beta electrons
       nuclear repulsion energy       847.9301695297 Hartrees.
 NAtoms=   18 NActive=   18 NUniq=   18 SFac= 1.00D+00 NAtFMM=   60 NAOKFM=F Big=F
 Integral buffers will be    131072 words long.
 Raffenetti 2 integral format.
 Two-electron integral symmetry is turned on.
 Nuclear repulsion after empirical dispersion term =      847.9144055497 Hartrees.
 One-electron integrals computed using PRISM.
 NBasis=   238 RedAO= T EigKep=  2.55D-04  NBF=   238
 NBsUse=   238 1.00D-06 EigRej= -1.00D+00 NBFU=   238
 Initial guess from the checkpoint file:  "/localscratch/sarashs.37136496.0/Gau-197846.chk"
 B after Tr=     0.000000   -0.000000    0.000000
         Rot=    1.000000   -0.000037   -0.000200   -0.000790 Ang=  -0.09 deg.
 ExpMin= 3.31D-02 ExpMax= 1.61D+04 ExpMxC= 2.43D+03 IAcc=3 IRadAn=         5 AccDes= 0.00D+00
 Harris functional with IExCor=  402 and IRadAn=       5 diagonalized for initial guess.
 HarFok:  IExCor=  402 AccDes= 0.00D+00 IRadAn=         5 IDoV= 1 UseB2=F ITyADJ=14
 ICtDFT=  3500011 ScaDFX=  1.000000  1.000000  1.000000  1.000000
 FoFCou: FMM=F IPFlag=           0 FMFlag=      100000 FMFlg1=           0
         NFxFlg=           0 DoJE=T BraDBF=F KetDBF=T FulRan=T
         wScrn=  0.000000 ICntrl=       500 IOpCl=  0 I1Cent=   200000004 NGrid=           0
         NMat0=    1 NMatS0=      1 NMatT0=    0 NMatD0=    1 NMtDS0=    0 NMtDT0=    0
 Petite list used in FoFCou.
 Requested convergence on RMS density matrix=1.00D-08 within 128 cycles.
 Requested convergence on MAX density matrix=1.00D-06.
 Requested convergence on             energy=1.00D-06.
 No special actions if energy rises.
 SCF Done:  E(RB3LYP) =  -1186.07311520     A.U. after    9 cycles
            NFock=  9  Conv=0.99D-08     -V/T= 2.0067
 Calling FoFJK, ICntrl=      2127 FMM=F ISym2X=0 I1Cent= 0 IOpClX= 0 NMat=1 NMatS=1 NMatT=0.
 ***** Axes restored to original set *****
 -------------------------------------------------------------------
 Center     Atomic                   Forces (Hartrees/Bohr)
 Number     Number              X              Y              Z
 -------------------------------------------------------------------
      1       14           0.005085730   -0.001389656   -0.000729215
      2        8           0.000108907    0.000628785    0.000338410
      3        8           0.001163996    0.000327330   -0.000021970
      4        8           0.000570451    0.001120462   -0.000701152
      5        8          -0.000035839   -0.000389775    0.000508727
      6        1          -0.000246761   -0.000269345    0.000140127
      7        1           0.000521614    0.000029820    0.000630607
      8        1          -0.000035731   -0.000024580    0.000085186
      9       14          -0.005403883    0.001752213    0.000798278
     10        8          -0.000902745   -0.000289118    0.000024524
     11        8          -0.000664430   -0.001185807    0.000054657
     12        8           0.000828368   -0.000424244   -0.000078700
     13        8          -0.000813125   -0.000959177   -0.001077947
     14        1           0.000332423    0.000153366    0.000379795
     15        1          -0.000164630    0.000744212   -0.000258921
     16        1          -0.000042353   -0.000021714   -0.000042276
     17        1          -0.000446230    0.000392034    0.000098946
     18        1           0.000144237   -0.000194807   -0.000149077
 -------------------------------------------------------------------
 Cartesian Forces:  Max     0.005403883 RMS     0.001172823

 GradGradGradGradGradGradGradGradGradGradGradGradGradGradGradGradGradGrad
 Berny optimization.
 Using GEDIIS/GDIIS optimizer.
 FormGI is forming the generalized inverse of G from B-inverse, IUseBI=4.
 Internal  Forces:  Max     0.004582289 RMS     0.000720249
 Search for a local minimum.
 Step number   2 out of a maximum of   91
 All quantities printed in internal units (Hartrees-Bohrs-Radians)
 Mixed Optimization -- En-DIIS/RFO-DIIS
 Swapping is turned off.
 Update second derivatives using D2CorX and points    1    2
 DE= -2.18D-04 DEPred=-2.45D-04 R= 8.91D-01
 TightC=F SS=  1.41D+00  RLast= 8.35D-02 DXNew= 5.0454D-01 2.5059D-01
 Trust test= 8.91D-01 RLast= 8.35D-02 DXMaxT set to 3.00D-01
 ITU=  1  0
     Eigenvalues ---    0.01471   0.02568   0.02894   0.03208   0.03463
     Eigenvalues ---    0.03484   0.03593   0.03690   0.03759   0.03783
     Eigenvalues ---    0.03952   0.04642   0.06904   0.07383   0.08133
     Eigenvalues ---    0.08641   0.10666   0.11130   0.11384   0.11457
     Eigenvalues ---    0.12315   0.12764   0.14310   0.15981   0.16000
     Eigenvalues ---    0.16000   0.16385   0.17381   0.17895   0.18473
     Eigenvalues ---    0.20080   0.35906   0.38618   0.40453   0.42678
     Eigenvalues ---    0.43578   0.43771   0.44367   0.44990   0.45962
     Eigenvalues ---    0.50062   0.52802   0.54239   0.54323   0.54380
     Eigenvalues ---    0.54557   0.547111000.000001000.000001000.00000
     Eigenvalues --- 1000.000001000.000001000.000001000.000001000.00000
     Eigenvalues --- 1000.000001000.000001000.000001000.000001000.00000
     Eigenvalues --- 1000.000001000.000001000.000001000.000001000.00000
     Eigenvalues --- 1000.000001000.000001000.000001000.000001000.00000
     Eigenvalues --- 1000.000001000.000001000.000001000.000001000.00000
     Eigenvalues --- 1000.000001000.000001000.000001000.000001000.00000
     Eigenvalues --- 1000.00000
 En-DIIS/RFO-DIIS/Sim-DIIS IScMMF=       -3 using points:     2    1
 RFO step:  Lambda=-1.56446482D-04.
 DidBck=T Rises=F RFO-DIIS coefs:    0.77220    0.22780
 Iteration  1 RMS(Cart)=  0.01705433 RMS(Int)=  0.00010081
 Iteration  2 RMS(Cart)=  0.00015246 RMS(Int)=  0.00002858
 Iteration  3 RMS(Cart)=  0.00000001 RMS(Int)=  0.00002858
 Iteration  1 RMS(Cart)=  0.00001711 RMS(Int)=  0.00000414
 Iteration  2 RMS(Cart)=  0.00000366 RMS(Int)=  0.00000447
 Iteration  3 RMS(Cart)=  0.00000078 RMS(Int)=  0.00000462
 Variable       Old X    -DE/DX   Delta X   Delta X   Delta X     New X
                                 (Linear)    (Quad)   (Total)
    R1        3.14877  -0.00072   0.00025  -0.00232  -0.00206   3.14672
    R2        3.10730  -0.00112  -0.00016  -0.00188  -0.00204   3.10525
    R3        3.07744   0.00084  -0.00144   0.00513   0.00372   3.08115
    R4        3.14703   0.00067   0.00028   0.00081   0.00109   3.14812
    R5        7.74788  -0.00458   0.00000   0.00000  -0.00000   7.74788
    R6        3.93037  -0.00101  -0.00004  -0.02346  -0.02346   3.90690
    R7        1.82372   0.00005   0.00010  -0.00014  -0.00005   1.82367
    R8        1.82236   0.00002  -0.00002   0.00008   0.00006   1.82242
    R9        1.84871  -0.00121   0.00173  -0.00593  -0.00413   1.84459
   R10        1.82465   0.00035   0.00016   0.00020   0.00036   1.82501
   R11        3.67090  -0.00168   0.00404  -0.03946  -0.03535   3.63556
   R12        3.10328  -0.00096   0.00001  -0.00195  -0.00194   3.10134
   R13        3.17459  -0.00096   0.00059  -0.00375  -0.00313   3.17146
   R14        3.11741  -0.00058  -0.00107   0.00128   0.00021   3.11763
   R15        3.09328   0.00088  -0.00097   0.00412   0.00316   3.09643
   R16        1.82115  -0.00003  -0.00005   0.00007   0.00002   1.82117
   R17        1.82434   0.00013   0.00016  -0.00017  -0.00001   1.82433
   R18        1.83705   0.00006   0.00036  -0.00073  -0.00037   1.83668
   R19        1.83561  -0.00135   0.00057  -0.00358  -0.00298   1.83263
    A1        1.88582   0.00009  -0.00261   0.00522   0.00263   1.88845
    A2        1.98808   0.00032   0.00233  -0.00310  -0.00079   1.98729
    A3        1.79626  -0.00005   0.00086  -0.00098  -0.00007   1.79619
    A4        1.91693  -0.00073  -0.00113  -0.00233  -0.00345   1.91348
    A5        1.99634  -0.00034  -0.00262   0.00352   0.00089   1.99723
    A6        1.88026   0.00076   0.00325  -0.00224   0.00102   1.88128
    A7        1.93881  -0.00029  -0.00054  -0.00028  -0.00084   1.93797
    A8        2.03759   0.00055  -0.00011   0.00312   0.00300   2.04059
    A9        2.01310  -0.00018   0.00025  -0.00097  -0.00072   2.01238
   A10        2.04461   0.00005  -0.00059   0.00166   0.00107   2.04569
   A11        2.07060  -0.00010   0.00047   0.00084   0.00138   2.07197
   A12        2.01986  -0.00008  -0.00005  -0.00031  -0.00035   2.01951
   A13        1.88036   0.00022  -0.00307   0.00821   0.00519   1.88555
   A14        1.88812  -0.00008  -0.00139   0.00174   0.00035   1.88847
   A15        1.95183  -0.00066  -0.00149  -0.00090  -0.00239   1.94944
   A16        1.91932  -0.00042   0.00084  -0.00396  -0.00311   1.91621
   A17        1.84930   0.00053   0.00201  -0.00117   0.00082   1.85012
   A18        1.97275   0.00041   0.00286  -0.00350  -0.00062   1.97213
   A19        2.03918  -0.00006  -0.00047   0.00076   0.00029   2.03947
   A20        2.01519  -0.00016  -0.00241   0.00281   0.00043   2.01562
   A21        1.97612  -0.00035   0.00091  -0.00628  -0.00537   1.97076
   A22        2.00148   0.00038   0.00012   0.00132   0.00142   2.00289
   A23        2.03070  -0.00089  -0.00111  -0.00237  -0.00348   2.02721
   A24        2.09127  -0.00037   0.00064  -0.00071  -0.00010   2.09117
   A25        2.93348  -0.00018   0.00339   0.01876   0.02222   2.95570
   A26        2.97126  -0.00020   0.00194   0.01442   0.01640   2.98766
   A27        3.07238  -0.00030  -0.00599  -0.01131  -0.01729   3.05509
   A28        3.30910  -0.00005   0.00370   0.00666   0.01048   3.31958
    D1        3.13230  -0.00018   0.00025  -0.00125  -0.00102   3.13128
    D2        0.77485  -0.00016   0.00057  -0.00273  -0.00215   0.77270
    D3        0.99725   0.00048   0.00206  -0.00001   0.00200   0.99926
    D4       -1.36020   0.00049   0.00239  -0.00149   0.00088  -1.35933
    D5       -1.03300  -0.00055  -0.00351   0.00473   0.00120  -1.03180
    D6        2.89273  -0.00054  -0.00319   0.00325   0.00007   2.89281
    D7       -2.64555  -0.00011  -0.00055   0.00028  -0.00026  -2.64581
    D8       -0.46745  -0.00012  -0.00010  -0.00161  -0.00172  -0.46917
    D9        1.64892   0.00009   0.00146  -0.00382  -0.00236   1.64656
   D10       -0.91754  -0.00042  -0.00118  -0.00170  -0.00284  -0.92038
   D11       -3.03539  -0.00022   0.00142  -0.00458  -0.00316  -3.03855
   D12        1.06312   0.00017   0.00326  -0.00596  -0.00272   1.06040
   D13       -1.04315   0.00017   0.00234  -0.00524  -0.00293  -1.04608
   D14        0.99774   0.00008  -0.00150   0.00213   0.00063   0.99837
   D15        3.13420  -0.00052  -0.00232  -0.00018  -0.00246   3.13174
   D16        0.04889  -0.00052  -0.00362  -0.01330  -0.01690   0.03200
   D17        2.38014  -0.00018  -0.00518  -0.01214  -0.01731   2.36283
   D18       -0.12996  -0.00025  -0.00472  -0.01117  -0.01587  -0.14583
   D19       -2.45267  -0.00032  -0.00491  -0.01539  -0.02033  -2.47300
   D20        2.67140  -0.00025  -0.00074   0.00060  -0.00013   2.67126
   D21        0.59716   0.00017   0.00067  -0.00018   0.00050   0.59767
   D22       -1.58643   0.00016  -0.00095   0.00363   0.00266  -1.58376
   D23       -3.10774   0.00006   0.00121   0.00391   0.00513  -3.10261
   D24       -0.76239  -0.00024   0.00012  -0.00134  -0.00122  -0.76361
   D25       -1.05357  -0.00014  -0.00175   0.00856   0.00682  -1.04675
   D26        1.29178  -0.00043  -0.00284   0.00331   0.00047   1.29226
   D27        1.08388   0.00044   0.00347   0.00137   0.00481   1.08869
   D28       -2.85395   0.00014   0.00238  -0.00388  -0.00154  -2.85549
   D29        3.11678  -0.00014  -0.00122  -0.00431  -0.00553   3.11125
   D30        1.06742  -0.00013   0.00279  -0.01298  -0.01023   1.05720
   D31       -0.99526  -0.00077  -0.00222  -0.00658  -0.00877  -1.00403
   D32       -3.13837  -0.00040   0.00114  -0.00338  -0.00220  -3.14057
   D33       -1.09421  -0.00017  -0.00213   0.00530   0.00325  -1.09096
   D34        1.00887  -0.00010   0.00199  -0.00240  -0.00040   1.00847
         Item               Value     Threshold  Converged?
 Maximum Force            0.001119     0.000450     NO 
 RMS     Force            0.000439     0.000300     NO 
 Maximum Displacement     0.048344     0.001800     NO 
 RMS     Displacement     0.017074     0.001200     NO 
 Predicted change in Energy=-7.831979D-05
 GradGradGradGradGradGradGradGradGradGradGradGradGradGradGradGradGradGrad

                          Input orientation:                          
 ---------------------------------------------------------------------
 Center     Atomic      Atomic             Coordinates (Angstroms)
 Number     Number       Type             X           Y           Z
 ---------------------------------------------------------------------
      1         14           0       -1.971685    0.028092    0.020207
      2          8           0       -1.490900   -1.042197   -1.161368
      3          8           0       -3.613935    0.084681    0.024028
      4          8           0       -1.372095    1.532476   -0.168924
      5          8           0       -1.301220   -0.617030    1.402077
      6          1           0       -1.587495   -1.511122    1.628633
      7          1           0       -0.408365    1.642998   -0.277580
      8          1           0       -4.026172    0.906044    0.316351
      9         14           0        2.127524   -0.032114   -0.033221
     10          8           0        3.764694    0.059663   -0.101369
     11          8           0        1.507409    1.491244   -0.366998
     12          8           0        1.700010   -0.486924    1.493915
     13          8           0        1.528005   -1.027068   -1.188873
     14          1           0        0.570639   -1.166563   -1.255790
     15          1           0        0.746444   -0.551870    1.670393
     16          1           0        4.258744   -0.574006    0.430740
     17          1           0        1.963141    2.218871    0.074424
     18          1           0       -1.939965   -0.982884   -2.013504
 ---------------------------------------------------------------------
                    Distance matrix (angstroms):
                    1          2          3          4          5
     1  Si   0.000000
     2  O    1.665170   0.000000
     3  O    1.643229   2.679980   0.000000
     4  O    1.630475   2.761884   2.675666   0.000000
     5  O    1.665915   2.605378   2.782098   2.663351   0.000000
     6  H    2.259163   2.830782   3.037730   3.541341   0.965754
     7  H    2.267282   3.027084   3.577010   0.976113   2.954008
     8  H    2.253756   3.522343   0.964381   2.769843   3.305135
     9  Si   4.099999   3.922496   5.742932   3.835842   3.762776
    10  O    5.737755   5.473479   7.379737   5.344188   5.327452
    11  O    3.794053   4.004898   5.325362   2.886603   3.932282
    12  O    3.989788   4.188170   5.543042   4.034952   3.005452
    13  O    3.850074   3.019069   5.398765   4.000267   3.858195
    14  H    3.085252   2.067445   4.551286   3.498614   3.296983
    15  H    3.232290   3.642115   4.704107   3.495110   2.066196
    16  H    6.272902   5.984348   7.910648   6.041788   5.644337
    17  H    4.503922   4.908376   5.971690   3.413819   4.523389
    18  H    2.271356   0.965046   2.844891   3.170487   3.494000
                    6          7          8          9         10
     6  H    0.000000
     7  H    3.869427   0.000000
     8  H    3.675856   3.739570   0.000000
     9  Si   4.330194   3.049007   6.234606   0.000000
    10  O    5.840051   4.466813   7.847831   1.641157   0.000000
    11  O    4.751334   1.923854   5.606241   1.678264   2.686135
    12  O    3.445986   3.481380   6.009674   1.649777   2.665822
    13  O    4.228356   3.421876   6.070544   1.638563   2.714116
    14  H    3.618862   3.131928   5.281856   2.281565   3.610859
    15  H    2.523723   3.153669   5.170765   2.253847   3.552879
    16  H    6.040831   5.215239   8.416855   2.247444   0.963722
    17  H    5.379166   2.465680   6.136279   2.259545   2.817565
    18  H    3.697084   3.500641   3.653565   4.622764   6.106251
                   11         12         13         14         15
    11  O    0.000000
    12  O    2.722727   0.000000
    13  O    2.649113   2.742024   0.000000
    14  H    2.954899   3.049306   0.969787   0.000000
    15  H    2.984015   0.971931   3.002008   2.995213   0.000000
    16  H    3.531499   2.772191   3.207077   4.098490   3.724712
    17  H    0.965394   3.066842   3.510182   3.894829   3.421180
    18  H    4.551558   5.079113   3.564938   2.628878   4.579701
                   16         17         18
    16  H    0.000000
    17  H    3.632755   0.000000
    18  H    6.675739   5.463050   0.000000
 Stoichiometry    H8O8Si2
 Framework group  C1[X(H8O8Si2)]
 Deg. of freedom    48
 Full point group                 C1      NOp   1
 Largest Abelian subgroup         C1      NOp   1
 Largest concise Abelian subgroup C1      NOp   1
                         Standard orientation:                         
 ---------------------------------------------------------------------
 Center     Atomic      Atomic             Coordinates (Angstroms)
 Number     Number       Type             X           Y           Z
 ---------------------------------------------------------------------
      1         14           0       -2.047085    0.026046    0.020585
      2          8           0       -1.564049   -1.061904   -1.143818
      3          8           0       -3.689431    0.079844    0.022997
      4          8           0       -1.450028    1.528297   -0.192051
      5          8           0       -1.375979   -0.596049    1.412665
      6          1           0       -1.660787   -1.486952    1.653199
      7          1           0       -0.486453    1.638762   -0.302133
      8          1           0       -4.103185    0.904999    0.302204
      9         14           0        2.052240   -0.027896   -0.030597
     10          8           0        3.689273    0.065630   -0.099668
     11          8           0        1.429610    1.488935   -0.388544
     12          8           0        1.624991   -0.459313    1.503385
     13          8           0        1.454836   -1.041981   -1.170608
     14          1           0        0.497735   -1.184172   -1.235619
     15          1           0        0.671478   -0.523121    1.680565
     16          1           0        4.184234   -0.558714    0.442520
     17          1           0        1.883935    2.224218    0.041494
     18          1           0       -2.012923   -1.016809   -1.996924
 ---------------------------------------------------------------------
 Rotational constants (GHZ):           1.9669312           0.4795035           0.4769512
 Standard basis: 6-31+G(d,p) (6D, 7F)
 There are   238 symmetry adapted cartesian basis functions of A   symmetry.
 There are   238 symmetry adapted basis functions of A   symmetry.
   238 basis functions,   424 primitive gaussians,   238 cartesian basis functions
    50 alpha electrons       50 beta electrons
       nuclear repulsion energy       848.0306312534 Hartrees.
 NAtoms=   18 NActive=   18 NUniq=   18 SFac= 1.00D+00 NAtFMM=   60 NAOKFM=F Big=F
 Integral buffers will be    131072 words long.
 Raffenetti 2 integral format.
 Two-electron integral symmetry is turned on.
 Nuclear repulsion after empirical dispersion term =      848.0148639107 Hartrees.
 One-electron integrals computed using PRISM.
 NBasis=   238 RedAO= T EigKep=  2.55D-04  NBF=   238
 NBsUse=   238 1.00D-06 EigRej= -1.00D+00 NBFU=   238
 Initial guess from the checkpoint file:  "/localscratch/sarashs.37136496.0/Gau-197846.chk"
 B after Tr=    -0.000000    0.000000   -0.000000
         Rot=    0.999971    0.007625    0.000053    0.000310 Ang=   0.87 deg.
 ExpMin= 3.31D-02 ExpMax= 1.61D+04 ExpMxC= 2.43D+03 IAcc=3 IRadAn=         5 AccDes= 0.00D+00
 Harris functional with IExCor=  402 and IRadAn=       5 diagonalized for initial guess.
 HarFok:  IExCor=  402 AccDes= 0.00D+00 IRadAn=         5 IDoV= 1 UseB2=F ITyADJ=14
 ICtDFT=  3500011 ScaDFX=  1.000000  1.000000  1.000000  1.000000
 FoFCou: FMM=F IPFlag=           0 FMFlag=      100000 FMFlg1=           0
         NFxFlg=           0 DoJE=T BraDBF=F KetDBF=T FulRan=T
         wScrn=  0.000000 ICntrl=       500 IOpCl=  0 I1Cent=   200000004 NGrid=           0
         NMat0=    1 NMatS0=      1 NMatT0=    0 NMatD0=    1 NMtDS0=    0 NMtDT0=    0
 Petite list used in FoFCou.
 Requested convergence on RMS density matrix=1.00D-08 within 128 cycles.
 Requested convergence on MAX density matrix=1.00D-06.
 Requested convergence on             energy=1.00D-06.
 No special actions if energy rises.
 SCF Done:  E(RB3LYP) =  -1186.07319860     A.U. after    9 cycles
            NFock=  9  Conv=0.45D-08     -V/T= 2.0067
 Calling FoFJK, ICntrl=      2127 FMM=F ISym2X=0 I1Cent= 0 IOpClX= 0 NMat=1 NMatS=1 NMatT=0.
 ***** Axes restored to original set *****
 -------------------------------------------------------------------
 Center     Atomic                   Forces (Hartrees/Bohr)
 Number     Number              X              Y              Z
 -------------------------------------------------------------------
      1       14           0.005994796    0.000239189   -0.000046818
      2        8           0.000057488    0.000089696    0.000003225
      3        8           0.000391420    0.000064383   -0.000038004
      4        8          -0.002117309   -0.000350731    0.000078646
      5        8          -0.000119942    0.000085703   -0.000010278
      6        1           0.000184998   -0.000051326    0.000124768
      7        1           0.002524086    0.000263624   -0.000082261
      8        1           0.000080079   -0.000074086    0.000032369
      9       14          -0.006006626   -0.000203136   -0.000031418
     10        8          -0.000464718    0.000012894    0.000065690
     11        8          -0.000397591   -0.000295610   -0.000095222
     12        8           0.000338083   -0.000275482    0.000094622
     13        8           0.001308535    0.000037587   -0.000047288
     14        1          -0.001309126    0.000005763    0.000057379
     15        1          -0.000223383    0.000107631   -0.000011382
     16        1          -0.000037476    0.000010275   -0.000062630
     17        1          -0.000359164    0.000427414    0.000087454
     18        1           0.000155850   -0.000093787   -0.000118850
 -------------------------------------------------------------------
 Cartesian Forces:  Max     0.006006626 RMS     0.001276398

 GradGradGradGradGradGradGradGradGradGradGradGradGradGradGradGradGradGrad
 Berny optimization.
 Using GEDIIS/GDIIS optimizer.
 FormGI is forming the generalized inverse of G from B-inverse, IUseBI=4.
 Internal  Forces:  Max     0.004728981 RMS     0.000662520
 Search for a local minimum.
 Step number   3 out of a maximum of   91
 All quantities printed in internal units (Hartrees-Bohrs-Radians)
 Mixed Optimization -- En-DIIS/RFO-DIIS
 Swapping is turned off.
 Update second derivatives using D2CorX and points    1    2    3
 DE= -8.34D-05 DEPred=-7.83D-05 R= 1.06D+00
 TightC=F SS=  1.41D+00  RLast= 6.94D-02 DXNew= 5.0454D-01 2.0811D-01
 Trust test= 1.06D+00 RLast= 6.94D-02 DXMaxT set to 3.00D-01
 ITU=  1  1  0
     Eigenvalues ---    0.01473   0.02029   0.02713   0.03140   0.03222
     Eigenvalues ---    0.03482   0.03576   0.03684   0.03760   0.03783
     Eigenvalues ---    0.03980   0.04635   0.06776   0.07267   0.08215
     Eigenvalues ---    0.08568   0.10586   0.11251   0.11346   0.11578
     Eigenvalues ---    0.12339   0.12626   0.14553   0.15972   0.16000
     Eigenvalues ---    0.16117   0.16400   0.17411   0.17910   0.18495
     Eigenvalues ---    0.20511   0.37184   0.39027   0.40443   0.42307
     Eigenvalues ---    0.43538   0.43768   0.44373   0.44937   0.50047
     Eigenvalues ---    0.52709   0.54123   0.54301   0.54364   0.54533
     Eigenvalues ---    0.54700   0.572721000.000001000.000001000.00000
     Eigenvalues --- 1000.000001000.000001000.000001000.000001000.00000
     Eigenvalues --- 1000.000001000.000001000.000001000.000001000.00000
     Eigenvalues --- 1000.000001000.000001000.000001000.000001000.00000
     Eigenvalues --- 1000.000001000.000001000.000001000.000001000.00000
     Eigenvalues --- 1000.000001000.000001000.000001000.000001000.00000
     Eigenvalues --- 1000.000001000.000001000.000001000.000001000.00000
     Eigenvalues --- 1000.00000
 En-DIIS/RFO-DIIS/Sim-DIIS IScMMF=       -3 using points:     3    2    1
 RFO step:  Lambda=-4.24926317D-05.
 DidBck=F Rises=F RFO-DIIS coefs:    1.39112   -0.16340   -0.22772
 Iteration  1 RMS(Cart)=  0.00567027 RMS(Int)=  0.00001866
 Iteration  2 RMS(Cart)=  0.00001689 RMS(Int)=  0.00001480
 Iteration  3 RMS(Cart)=  0.00000000 RMS(Int)=  0.00001480
 Iteration  1 RMS(Cart)=  0.00000611 RMS(Int)=  0.00000148
 Iteration  2 RMS(Cart)=  0.00000131 RMS(Int)=  0.00000160
 Iteration  3 RMS(Cart)=  0.00000028 RMS(Int)=  0.00000166
 Variable       Old X    -DE/DX   Delta X   Delta X   Delta X     New X
                                 (Linear)    (Quad)   (Total)
    R1        3.14672  -0.00015  -0.00105   0.00084  -0.00021   3.14650
    R2        3.10525  -0.00047  -0.00064  -0.00097  -0.00161   3.10364
    R3        3.08115  -0.00057   0.00290  -0.00212   0.00079   3.08194
    R4        3.14812   0.00011   0.00015   0.00033   0.00047   3.14860
    R5        7.74788  -0.00473  -0.00000   0.00000   0.00000   7.74788
    R6        3.90690  -0.00096  -0.00914  -0.00182  -0.01095   3.89595
    R7        1.82367   0.00003  -0.00012   0.00012   0.00000   1.82367
    R8        1.82242  -0.00009   0.00004  -0.00018  -0.00014   1.82228
    R9        1.84459   0.00109  -0.00334   0.00544   0.00212   1.84671
   R10        1.82501   0.00002  -0.00002   0.00010   0.00008   1.82509
   R11        3.63556  -0.00144  -0.01787  -0.00501  -0.02285   3.61271
   R12        3.10134  -0.00050  -0.00077  -0.00093  -0.00170   3.09963
   R13        3.17146  -0.00006  -0.00182   0.00187   0.00007   3.17153
   R14        3.11763   0.00012   0.00115  -0.00048   0.00067   3.11830
   R15        3.09643  -0.00037   0.00220  -0.00136   0.00085   3.09729
   R16        1.82117  -0.00006   0.00006  -0.00015  -0.00009   1.82108
   R17        1.82433   0.00019  -0.00017   0.00046   0.00030   1.82463
   R18        1.83668   0.00021  -0.00050   0.00067   0.00017   1.83685
   R19        1.83263   0.00033  -0.00174   0.00282   0.00109   1.83372
    A1        1.88845  -0.00035   0.00363  -0.00187   0.00177   1.89022
    A2        1.98729   0.00064  -0.00264   0.00131  -0.00136   1.98594
    A3        1.79619   0.00010  -0.00089   0.00144   0.00050   1.79668
    A4        1.91348  -0.00042  -0.00022   0.00002  -0.00017   1.91331
    A5        1.99723   0.00014   0.00297  -0.00131   0.00165   1.99888
    A6        1.88128  -0.00004  -0.00285   0.00050  -0.00237   1.87891
    A7        1.93797  -0.00023   0.00021   0.00120   0.00140   1.93937
    A8        2.04059   0.00009   0.00129   0.00066   0.00196   2.04255
    A9        2.01238   0.00025  -0.00053  -0.00145  -0.00199   2.01038
   A10        2.04569  -0.00009   0.00101  -0.00105  -0.00004   2.04565
   A11        2.07197  -0.00051   0.00006  -0.00244  -0.00236   2.06961
   A12        2.01951   0.00038  -0.00009   0.00243   0.00233   2.02184
   A13        1.88555  -0.00038   0.00510  -0.00287   0.00224   1.88779
   A14        1.88847   0.00005   0.00152  -0.00113   0.00040   1.88887
   A15        1.94944  -0.00039   0.00056  -0.00052   0.00006   1.94950
   A16        1.91621   0.00014  -0.00206   0.00219   0.00010   1.91630
   A17        1.85012   0.00057  -0.00169   0.00076  -0.00098   1.84914
   A18        1.97213   0.00000  -0.00310   0.00146  -0.00165   1.97048
   A19        2.03947  -0.00002   0.00058  -0.00042   0.00016   2.03963
   A20        2.01562  -0.00027   0.00258   0.00265   0.00523   2.02086
   A21        1.97076  -0.00054  -0.00301  -0.00240  -0.00543   1.96533
   A22        2.00289   0.00070   0.00043   0.00278   0.00321   2.00611
   A23        2.02721  -0.00010  -0.00025  -0.00130  -0.00155   2.02566
   A24        2.09117  -0.00058  -0.00068  -0.00284  -0.00351   2.08765
   A25        2.95570  -0.00088   0.00530   0.00080   0.00613   2.96183
   A26        2.98766  -0.00075   0.00448   0.00281   0.00731   2.99497
   A27        3.05509   0.00032  -0.00077  -0.00129  -0.00207   3.05302
   A28        3.31958  -0.00035   0.00040   0.00217   0.00260   3.32218
    D1        3.13128   0.00029  -0.00065  -0.00012  -0.00078   3.13050
    D2        0.77270   0.00007  -0.00141   0.00009  -0.00133   0.77137
    D3        0.99926   0.00066  -0.00128   0.00034  -0.00095   0.99831
    D4       -1.35933   0.00043  -0.00204   0.00054  -0.00150  -1.36083
    D5       -1.03180   0.00034   0.00398  -0.00176   0.00222  -1.02958
    D6        2.89281   0.00012   0.00322  -0.00155   0.00167   2.89447
    D7       -2.64581  -0.00013   0.00045  -0.00064  -0.00018  -2.64599
    D8       -0.46917   0.00015  -0.00058  -0.00023  -0.00081  -0.46998
    D9        1.64656  -0.00011  -0.00238  -0.00048  -0.00287   1.64369
   D10       -0.92038  -0.00041   0.00007  -0.00297  -0.00289  -0.92328
   D11       -3.03855  -0.00009  -0.00266  -0.00148  -0.00413  -3.04268
   D12        1.06040   0.00003  -0.00432  -0.00019  -0.00449   1.05590
   D13       -1.04608   0.00040  -0.00349   0.00278  -0.00071  -1.04679
   D14        0.99837   0.00011   0.00175   0.00080   0.00255   1.00091
   D15        3.13174  -0.00036   0.00136   0.00032   0.00167   3.13342
[...]

                          Input orientation:                          
 ---------------------------------------------------------------------
 Center     Atomic      Atomic             Coordinates (Angstroms)
 Number     Number       Type             X           Y           Z
 ---------------------------------------------------------------------
      1         14           0       -1.971197    0.037146    0.015382
      2          8           0       -1.480371   -1.048302   -1.149309
      3          8           0       -3.612836    0.089590    0.008841
      4          8           0       -1.370289    1.538135   -0.192277
      5          8           0       -1.304919   -0.588085    1.408722
      6          1           0       -1.586155   -1.480833    1.646478
      7          1           0       -0.399993    1.637707   -0.283824
      8          1           0       -4.028448    0.909699    0.299664
      9         14           0        2.127752   -0.041047   -0.034535
     10          8           0        3.761962    0.067511   -0.117592
     11          8           0        1.485023    1.480205   -0.340629
     12          8           0        1.716337   -0.518867    1.490802
     13          8           0        1.525154   -1.023676   -1.198836
     14          1           0        0.565152   -1.164607   -1.250824
     15          1           0        0.763165   -0.558018    1.677631
     16          1           0        4.269441   -0.573067    0.393012
     17          1           0        1.912626    2.207795    0.128633
     18          1           0       -1.917626   -0.998997   -2.008198
 ---------------------------------------------------------------------
                    Distance matrix (angstroms):
                    1          2          3          4          5
     1  Si   0.000000
     2  O    1.666017   0.000000
     3  O    1.642490   2.680209   0.000000
     4  O    1.630086   2.760016   2.677265   0.000000
     5  O    1.666204   2.605016   2.783055   2.662383   0.000000
     6  H    2.261193   2.831025   3.042289   3.541439   0.965723
     7  H    2.262742   3.021742   3.578363   0.979679   2.939005
     8  H    2.252653   3.525052   0.964308   2.775382   3.300148
     9  Si   4.099999   3.908432   5.742239   3.841223   3.763705
    10  O    5.734781   5.458162   7.375915   5.339318   5.332234
    11  O    3.762263   3.980060   5.295669   2.859751   3.888679
    12  O    4.010477   4.179645   5.564757   4.073239   3.023164
    13  O    3.850213   3.006034   5.394144   3.994951   3.872778
    14  H    3.079051   2.051340   4.540413   3.488735   3.301928
    15  H    3.254847   3.642173   4.727964   3.527328   2.085711
    16  H    6.281762   5.972013   7.919406   6.050313   5.666161
    17  H    4.450688   4.873164   5.918773   3.365852   4.450637
    18  H    2.274058   0.965046   2.850826   3.167679   3.495655
                    6          7          8          9         10
     6  H    0.000000
     7  H    3.854651   0.000000
     8  H    3.673329   3.746484   0.000000
     9  Si   4.323413   3.044643   6.238141   0.000000
    10  O    5.840519   4.451406   7.846902   1.639916   0.000000
    11  O    4.706216   1.892437   5.579768   1.679584   2.688847
    12  O    3.443264   3.504135   6.038391   1.650524   2.667462
    13  O    4.240878   3.409750   6.068438   1.638377   2.713501
    14  H    3.622496   3.117620   5.273321   2.276722   3.608590
    15  H    2.524255   3.165667   5.197359   2.249638   3.550619
    16  H    6.056667   5.210493   8.429844   2.247815   0.963634
    17  H    5.305779   2.417297   6.083639   2.264993   2.839276
    18  H    3.701175   3.496982   3.664003   4.601967   6.080259
                   11         12         13         14         15
    11  O    0.000000
    12  O    2.721017   0.000000
    13  O    2.647178   2.743271   0.000000
    14  H    2.944426   3.042815   0.971683   0.000000
    15  H    2.957838   0.972098   3.011897   2.997167   0.000000
    16  H    3.536543   2.779644   3.204393   4.095592   3.734226
    17  H    0.965628   3.054295   3.514927   3.884801   3.371998
    18  H    4.528272   5.067467   3.536723   2.601005   4.578913
                   16         17         18
    16  H    0.000000
    17  H    3.654814   0.000000
    18  H    6.650340   5.433267   0.000000
 Stoichiometry    H8O8Si2
 Framework group  C1[X(H8O8Si2)]
 Deg. of freedom    48
 Full point group                 C1      NOp   1
 Largest Abelian subgroup         C1      NOp   1
 Largest concise Abelian subgroup C1      NOp   1
                         Standard orientation:                         
 ---------------------------------------------------------------------
 Center     Atomic      Atomic             Coordinates (Angstroms)
 Number     Number       Type             X           Y           Z
 ---------------------------------------------------------------------
      1         14           0       -2.046684    0.026720    0.019213
      2          8           0       -1.549965   -1.107157   -1.095779
      3          8           0       -3.688613    0.068962    0.011672
      4          8           0       -1.454958    1.520403   -0.256382
      5          8           0       -1.375871   -0.531061    1.438764
      6          1           0       -1.651583   -1.413857    1.716748
      7          1           0       -0.485330    1.621569   -0.353126
      8          1           0       -4.109003    0.898837    0.265582
      9         14           0        2.052635   -0.029041   -0.030520
     10          8           0        3.686113    0.085470   -0.119737
     11          8           0        1.400569    1.472983   -0.404334
     12          8           0        1.644958   -0.440082    1.515143
     13          8           0        1.455329   -1.066750   -1.148851
     14          1           0        0.496166   -1.215640   -1.193641
     15          1           0        0.692143   -0.476492    1.704334
     16          1           0        4.197731   -0.528384    0.418799
     17          1           0        1.824035    2.223539    0.031305
     18          1           0       -1.987986   -1.099241   -1.955656
 ---------------------------------------------------------------------
 Rotational constants (GHZ):           1.9691985           0.4801326           0.4776901

 **********************************************************************

            Population analysis using the SCF Density.

 **********************************************************************

 Orbital symmetries:
       Occupied  (A) (A) (A) (A) (A) (A) (A) (A) (A) (A) (A) (A)
                 (A) (A) (A) (A) (A) (A) (A) (A) (A) (A) (A) (A)
                 (A) (A) (A) (A) (A) (A) (A) (A) (A) (A) (A) (A)
                 (A) (A) (A) (A) (A) (A) (A) (A) (A) (A) (A) (A)
                 (A) (A)
       Virtual   (A) (A) (A) (A) (A) (A) (A) (A) (A) (A) (A) (A)
                 (A) (A) (A) (A) (A) (A) (A) (A) (A) (A) (A) (A)
                 (A) (A) (A) (A) (A) (A) (A) (A) (A) (A) (A) (A)
                 (A) (A) (A) (A) (A) (A) (A) (A) (A) (A) (A) (A)
                 (A) (A) (A) (A) (A) (A) (A) (A) (A) (A) (A) (A)
                 (A) (A) (A) (A) (A) (A) (A) (A) (A) (A) (A) (A)
                 (A) (A) (A) (A) (A) (A) (A) (A) (A) (A) (A) (A)
                 (A) (A) (A) (A) (A) (A) (A) (A) (A) (A) (A) (A)
                 (A) (A) (A) (A) (A) (A) (A) (A) (A) (A) (A) (A)
                 (A) (A) (A) (A) (A) (A) (A) (A) (A) (A) (A) (A)
                 (A) (A) (A) (A) (A) (A) (A) (A) (A) (A) (A) (A)
                 (A) (A) (A) (A) (A) (A) (A) (A) (A) (A) (A) (A)
                 (A) (A) (A) (A) (A) (A) (A) (A) (A) (A) (A) (A)
                 (A) (A) (A) (A) (A) (A) (A) (A) (A) (A) (A) (A)
                 (A) (A) (A) (A) (A) (A) (A) (A) (A) (A) (A) (A)
                 (A) (A) (A) (A) (A) (A) (A) (A)
 The electronic state is 1-A.
 Alpha  occ. eigenvalues --  -66.23660 -66.21881 -19.19089 -19.19026 -19.18673
 Alpha  occ. eigenvalues --  -19.17885 -19.16993 -19.16643 -19.15565 -19.15366
 Alpha  occ. eigenvalues --   -5.36996  -5.35196  -3.72991  -3.72985  -3.72940
 Alpha  occ. eigenvalues --   -3.71221  -3.71172  -3.71128  -1.06200  -1.04344
 Alpha  occ. eigenvalues --   -1.02837  -1.02670  -1.01513  -1.00753  -1.00067
 Alpha  occ. eigenvalues --   -0.99336  -0.61375  -0.59625  -0.55585  -0.55125
 Alpha  occ. eigenvalues --   -0.53880  -0.52975  -0.52614  -0.51745  -0.42949
 Alpha  occ. eigenvalues --   -0.42205  -0.40874  -0.40325  -0.39580  -0.38720
 Alpha  occ. eigenvalues --   -0.38097  -0.37494  -0.37274  -0.35954  -0.35182
 Alpha  occ. eigenvalues --   -0.34771  -0.34093  -0.33768  -0.33479  -0.31098
 Alpha virt. eigenvalues --   -0.03732  -0.01060   0.00534   0.00741   0.01873
 Alpha virt. eigenvalues --    0.04451   0.05248   0.06280   0.09186   0.09747
 Alpha virt. eigenvalues --    0.10284   0.10805   0.12157   0.13090   0.13384
 Alpha virt. eigenvalues --    0.14453   0.14686   0.14814   0.15126   0.15421
 Alpha virt. eigenvalues --    0.16048   0.16325   0.16756   0.17354   0.17864
 Alpha virt. eigenvalues --    0.18630   0.19418   0.20699   0.21052   0.21466
 Alpha virt. eigenvalues --    0.21568   0.21852   0.22708   0.23584   0.24531
 Alpha virt. eigenvalues --    0.24923   0.25218   0.26157   0.26846   0.27743
 Alpha virt. eigenvalues --    0.27988   0.28291   0.29119   0.29859   0.30188
 Alpha virt. eigenvalues --    0.31225   0.32878   0.34019   0.35640   0.37110
 Alpha virt. eigenvalues --    0.37808   0.38635   0.41009   0.41256   0.43481
 Alpha virt. eigenvalues --    0.45064   0.45944   0.46817   0.49797   0.49968
 Alpha virt. eigenvalues --    0.51721   0.58364   0.61271   0.62471   0.63146
 Alpha virt. eigenvalues --    0.63512   0.64846   0.76059   0.92539   0.92836
 Alpha virt. eigenvalues --    0.94353   0.96245   0.97315   0.97858   0.99502
 Alpha virt. eigenvalues --    0.99880   1.00832   1.01803   1.02413   1.08708
 Alpha virt. eigenvalues --    1.10044   1.12238   1.15617   1.16378   1.16855
 Alpha virt. eigenvalues --    1.17705   1.17947   1.18725   1.19179   1.20066
 Alpha virt. eigenvalues --    1.21166   1.21315   1.22982   1.23919   1.24700
 Alpha virt. eigenvalues --    1.26178   1.26296   1.27264   1.28555   1.29538
 Alpha virt. eigenvalues --    1.30713   1.31655   1.33707   1.35064   1.36426
 Alpha virt. eigenvalues --    1.37800   1.49389   1.50572   1.53913   1.55107
 Alpha virt. eigenvalues --    1.55674   1.56624   1.58020   1.58701   1.60222
 Alpha virt. eigenvalues --    1.62343   1.62382   1.63321   1.66310   1.67544
 Alpha virt. eigenvalues --    1.69210   1.71794   1.72971   1.74176   1.77468
 Alpha virt. eigenvalues --    1.78452   1.79742   1.82386   1.85312   1.88752
 Alpha virt. eigenvalues --    1.91123   1.91525   1.98440   2.00121   2.02790
 Alpha virt. eigenvalues --    2.04259   2.10312   2.10979   2.34289   2.36299
 Alpha virt. eigenvalues --    2.37357   2.38693   2.39782   2.43234   2.45013
 Alpha virt. eigenvalues --    2.45447   2.46086   2.49096   2.57631   2.59212
 Alpha virt. eigenvalues --    2.59733   2.60068   2.61177   2.61982   2.62011
 Alpha virt. eigenvalues --    2.64004   2.64298   2.65560   2.66507   2.67014
 Alpha virt. eigenvalues --    2.68219   2.69439   2.70240   2.72639   2.76058
 Alpha virt. eigenvalues --    2.77384   2.79524   2.82356   2.84533   2.84955
 Alpha virt. eigenvalues --    2.99363   3.02315   3.40548   3.42565   3.42982
 Alpha virt. eigenvalues --    3.43236   3.44472   3.55639   3.57195   3.60511
 Alpha virt. eigenvalues --    4.15501   4.19424   4.24489   4.25714   4.28154
 Alpha virt. eigenvalues --    4.28681   4.33476   4.39781
          Condensed to atoms (all electrons):
               1          2          3          4          5          6
     1  Si  11.651294  -0.012259   0.036467   0.135916  -0.036845   0.041737
     2  O   -0.012259   8.666700  -0.016451   0.034135   0.101104  -0.009280
     3  O    0.036467  -0.016451   8.632615  -0.032538  -0.067355  -0.002599
     4  O    0.135916   0.034135  -0.032538   8.502021   0.081823   0.005485
     5  O   -0.036845   0.101104  -0.067355   0.081823   8.634133   0.239742
     6  H    0.041737  -0.009280  -0.002599   0.005485   0.239742   0.354673
     7  H    0.025145  -0.004889   0.007237   0.237091  -0.004363  -0.000026
     8  H    0.034485   0.004320   0.235260  -0.001507  -0.003748   0.000037
     9  Si  -0.105238   0.059309  -0.006747   0.036587   0.074197  -0.003733
    10  O   -0.005502   0.002186  -0.000161   0.002446   0.002889  -0.000029
    11  O    0.067137  -0.024152   0.003088  -0.049805  -0.024961   0.000332
    12  O    0.023665  -0.019482   0.001800  -0.014627  -0.026162   0.000791
    13  O    0.053029  -0.033816   0.003031  -0.023646  -0.032035   0.000507
    14  H    0.004410   0.009418   0.000001   0.000651  -0.000771   0.000008
    15  H   -0.003564   0.001372   0.000066   0.001010   0.010913  -0.001420
    16  H    0.000245  -0.000008   0.000000  -0.000005  -0.000019  -0.000000
    17  H   -0.002990   0.000270  -0.000034   0.002549   0.000335  -0.000001
    18  H    0.025676   0.241627  -0.001415  -0.007380   0.005238   0.000050
               7          8          9         10         11         12
     1  Si   0.025145   0.034485  -0.105238  -0.005502   0.067137   0.023665
     2  O   -0.004889   0.004320   0.059309   0.002186  -0.024152  -0.019482
     3  O    0.007237   0.235260  -0.006747  -0.000161   0.003088   0.001800
     4  O    0.237091  -0.001507   0.036587   0.002446  -0.049805  -0.014627
     5  O   -0.004363  -0.003748   0.074197   0.002889  -0.024961  -0.026162
     6  H   -0.000026   0.000037  -0.003733  -0.000029   0.000332   0.000791
     7  H    0.284291   0.000024   0.003750   0.000053   0.015916   0.000965
     8  H    0.000024   0.351915   0.000128   0.000000  -0.000004  -0.000006
     9  Si   0.003750   0.000128  11.634545   0.023959  -0.071648   0.119130
    10  O    0.000053   0.000000   0.023959   8.605307  -0.004910  -0.015073
    11  O    0.015916  -0.000004  -0.071648  -0.004910   8.718405   0.077764
    12  O    0.000965  -0.000006   0.119130  -0.015073   0.077764   8.493674
    13  O   -0.000105  -0.000002   0.054173  -0.034067   0.081415   0.042061
    14  H   -0.000001  -0.000001   0.032306   0.005749  -0.003386  -0.007045
    15  H    0.000037  -0.000001   0.033017   0.008906  -0.007393   0.238036
    16  H   -0.000001  -0.000000   0.035484   0.237112   0.003043  -0.002506
    17  H   -0.002321  -0.000000   0.032352   0.002164   0.237359  -0.011727
    18  H    0.000158   0.000048  -0.001935  -0.000007   0.000162   0.000052
              13         14         15         16         17         18
     1  Si   0.053029   0.004410  -0.003564   0.000245  -0.002990   0.025676
     2  O   -0.033816   0.009418   0.001372  -0.000008   0.000270   0.241627
     3  O    0.003031   0.000001   0.000066   0.000000  -0.000034  -0.001415
     4  O   -0.023646   0.000651   0.001010  -0.000005   0.002549  -0.007380
     5  O   -0.032035  -0.000771   0.010913  -0.000019   0.000335   0.005238
     6  H    0.000507   0.000008  -0.001420  -0.000000  -0.000001   0.000050
     7  H   -0.000105  -0.000001   0.000037  -0.000001  -0.002321   0.000158
     8  H   -0.000002  -0.000001  -0.000001  -0.000000  -0.000000   0.000048
     9  Si   0.054173   0.032306   0.033017   0.035484   0.032352  -0.001935
    10  O   -0.034067   0.005749   0.008906   0.237112   0.002164  -0.000007
    11  O    0.081415  -0.003386  -0.007393   0.003043   0.237359   0.000162
    12  O    0.042061  -0.007045   0.238036  -0.002506  -0.011727   0.000052
    13  O    8.534734   0.236123  -0.008290  -0.003815   0.006127   0.000833
    14  H    0.236123   0.311825   0.000074  -0.000021  -0.000056  -0.000917
    15  H   -0.008290   0.000074   0.312377   0.000033   0.000205  -0.000013
    16  H   -0.003815  -0.000021   0.000033   0.358597   0.000079   0.000000
    17  H    0.006127  -0.000056   0.000205   0.000079   0.350290  -0.000000
    18  H    0.000833  -0.000917  -0.000013   0.000000  -0.000000   0.345010
 Mulliken charges:
               1
     1  Si   2.067193
     2  O   -1.000101
     3  O   -0.792266
     4  O   -0.910205
     5  O   -0.954114
     6  H    0.373725
     7  H    0.437039
     8  H    0.379052
     9  Si   2.050362
    10  O   -0.831022
    11  O   -1.018363
    12  O   -0.901312
    13  O   -0.876257
    14  H    0.411635
    15  H    0.414636
    16  H    0.371784
    17  H    0.385400
    18  H    0.392814
 Sum of Mulliken charges =  -0.00000
 Mulliken charges with hydrogens summed into heavy atoms:
               1
     1  Si   2.067193
     2  O   -0.607287
     3  O   -0.413214
     4  O   -0.473165
     5  O   -0.580389
     9  Si   2.050362
    10  O   -0.459238
    11  O   -0.632962
    12  O   -0.486676
    13  O   -0.464623
 Electronic spatial extent (au):  <R**2>=           2393.3760
 Charge=              0.0000 electrons
 Dipole moment (field-independent basis, Debye):
    X=             -2.3627    Y=              0.0302    Z=              1.0818  Tot=              2.5988
 Quadrupole moment (field-independent basis, Debye-Ang):
   XX=            -66.3378   YY=            -68.4986   ZZ=            -72.6286
   XY=              0.7301   XZ=              4.3807   YZ=             -0.2473
 Traceless Quadrupole moment (field-independent basis, Debye-Ang):
   XX=              2.8172   YY=              0.6564   ZZ=             -3.4736
   XY=              0.7301   XZ=              4.3807   YZ=             -0.2473
 Octapole moment (field-independent basis, Debye-Ang**2):
  XXX=             -2.0704  YYY=              8.0843  ZZZ=            -12.0722  XYY=              2.4270
  XXY=              6.5613  XXZ=             22.3604  XZZ=            -24.8443  YZZ=             -9.0334
  YYZ=             11.3291  XYZ=             -2.7575
 Hexadecapole moment (field-independent basis, Debye-Ang**3):
 XXXX=          -1965.3788 YYYY=           -341.0268 ZZZZ=           -342.5037 XXXY=           -178.9480
 XXXZ=             55.3802 YYYX=             47.9421 YYYZ=             -4.4634 ZZZX=             18.0690
 ZZZY=              2.7666 XXYY=           -371.8467 XXZZ=           -415.7528 YYZZ=           -111.3244
 XXYZ=              4.0482 YYXZ=             -2.1708 ZZXY=             28.7466
 N-N= 8.483922218483D+02 E-N=-4.506356382734D+03  KE= 1.178172821613D+03
 1\1\GINC-GRA1306\FOpt\RB3LYP\6-31+G(d,p)\H8O8Si2\SARASHS\11-Aug-2020\0
 \\#n B3LYP/6-31+G(d,p) EmpiricalDispersion=GD3 Opt=modredundant\\Title
 \\0,1\Si,-1.9711972862,0.0371461052,0.0153817133\O,-1.4803707964,-1.04
 83021489,-1.1493094874\O,-3.6128363151,0.0895901548,0.0088405425\O,-1.
 3702892989,1.5381352501,-0.1922765327\O,-1.3049189965,-0.5880849193,1.
 4087218012\H,-1.5861545989,-1.4808334258,1.646477804\H,-0.3999926472,1
 .6377065792,-0.2838235356\H,-4.0284478495,0.9096987554,0.2996640203\Si
 ,2.1277524252,-0.0410469891,-0.034535463\O,3.7619619116,0.0675112587,-
 0.1175920699\O,1.4850230835,1.4802051078,-0.3406286573\O,1.7163374501,
 -0.5188669158,1.4908023107\O,1.5251543187,-1.0236758879,-1.1988357396\
 H,0.565152315,-1.1646065492,-1.2508243482\H,0.7631652196,-0.5580176439
 ,1.6776310831\H,4.2694409629,-0.5730665456,0.3930116907\H,1.9126256051
 ,2.2077951755,0.1286333138\H,-1.917625503,-0.9989973613,-2.008198446\\
 Version=ES64L-G16RevB.01\State=1-A\HF=-1186.0732662\RMSD=9.482e-09\RMS
 F=1.287e-03\Dipole=-0.9298249,-0.0016859,0.4252077\Quadrupole=2.095623
 ,0.4935945,-2.5892175,0.3858773,3.2803767,-0.0643997\PG=C01 [X(H8O8Si2
 )]\\@


 I HAVE NOT FAILED, I HAVE ONLY DISCOVERED 10,000
 WAYS THAT DIDN'T WORK.  -- THOMAS A. EDISON
 Job cpu time:       0 days  0 hours 39 minutes 16.7 seconds.
 Elapsed time:       0 days  0 hours  2 minutes 28.9 seconds.
 File lengths (MBytes):  RWF=     40 Int=      0 D2E=      0 Chk=      5 Scr=      1
 Normal termination of Gaussian 16 at Tue Aug 11 13:17:24 2020.
