 Entering Gaussian System, Link 0=g16
 Initial command:
 /opt/software/gaussian/g16.b01/l1.exe "/localscratch/sarashs.36560096.0/Gau-140723.inp" -scrdir="/localscratch/sarashs.36560096.0/"
 Entering Link 1 = /opt/software/gaussian/g16.b01/l1.exe PID=    140724.
  
 Copyright (c) 1988-2017, Gaussian, Inc.  All Rights Reserved.
  
 This is part of the Gaussian(R) 16 program.  It is based on
 the Gaussian(R) 09 system (copyright 2009, Gaussian, Inc.),
 the Gaussian(R) 03 system (copyright 2003, Gaussian, Inc.),
 the Gaussian(R) 98 system (copyright 1998, Gaussian, Inc.),
 the Gaussian(R) 94 system (copyright 1995, Gaussian, Inc.),
 the Gaussian 92(TM) system (copyright 1992, Gaussian, Inc.),
 the Gaussian 90(TM) system (copyright 1990, Gaussian, Inc.),
 the Gaussian 88(TM) system (copyright 1988, Gaussian, Inc.),
 the Gaussian 86(TM) system (copyright 1986, Carnegie Mellon
 University), and the Gaussian 82(TM) system (copyright 1983,
 Carnegie Mellon University). Gaussian is a federally registered
 trademark of Gaussian, Inc.
  
 This software contains proprietary and confidential information,
 including trade secrets, belonging to Gaussian, Inc.
  
 This software is provided under written license and may be
 used, copied, transmitted, or stored only in accord with that
 written license.
  
 The following legend is applicable only to US Government
 contracts under FAR:
  
                    RESTRICTED RIGHTS LEGEND
  
 Use, reproduction and disclosure by the US Government is
 subject to restrictions as set forth in subparagraphs (a)
 and (c) of the Commercial Computer Software - Restricted
 Rights clause in FAR 52.227-19.
  
 Gaussian, Inc.
 340 Quinnipiac St., Bldg. 40, Wallingford CT 06492
  
  
 ---------------------------------------------------------------
 Warning -- This program may not be used in any manner that
 competes with the business of Gaussian, Inc. or will provide
 assistance to any competitor of Gaussian, Inc.  The licensee
 of this program is prohibited from giving any competitor of
 Gaussian, Inc. access to this program.  By using this program,
 the user acknowledges that Gaussian, Inc. is engaged in the
 business of creating and licensing software in the field of
 computational chemistry and represents and warrants to the
 licensee that it is not a competitor of Gaussian, Inc. and that
 it will not use this program in any manner prohibited above.
 ---------------------------------------------------------------
  

 Cite this work as:
 Gaussian 16, Revision B.01,
 M. J. Frisch, G. W. Trucks, H. B. Schlegel, G. E. Scuseria, 
 M. A. Robb, J. R. Cheeseman, G. Scalmani, V. Barone, 
 G. A. Petersson, H. Nakatsuji, X. Li, M. Caricato, A. V. Marenich, 
 J. Bloino, B. G. Janesko, R. Gomperts, B. Mennucci, H. P. Hratchian, 
 J. V. Ortiz, A. F. Izmaylov, J. L. Sonnenberg, D. Williams-Young, 
 F. Ding, F. Lipparini, F. Egidi, J. Goings, B. Peng, A. Petrone, 
 T. Henderson, D. Ranasinghe, V. G. Zakrzewski, J. Gao, N. Rega, 
 G. Zheng, W. Liang, M. Hada, M. Ehara, K. Toyota, R. Fukuda, 
 J. Hasegawa, M. Ishida, T. Nakajima, Y. Honda, O. Kitao, H. Nakai, 
 T. Vreven, K. Throssell, J. A. Montgomery, Jr., J. E. Peralta, 
 F. Ogliaro, M. J. Bearpark, J. J. Heyd, E. N. Brothers, K. N. Kudin, 
 V. N. Staroverov, T. A. Keith, R. Kobayashi, J. Normand, 
 K. Raghavachari, A. P. Rendell, J. C. Burant, S. S. Iyengar, 
 J. Tomasi, M. Cossi, J. M. Millam, M. Klene, C. Adamo, R. Cammi, 
 J. W. Ochterski, R. L. Martin, K. Morokuma, O. Farkas, 
 J. B. Foresman, and D. J. Fox, Gaussian, Inc., Wallingford CT, 2016.
 
 ******************************************
 Gaussian 16:  ES64L-G16RevB.01 20-Dec-2017
                29-Jul-2020 
 ******************************************
 %NProcShared=16
 Will use up to   16 processors via shared memory.
 -------------------------------------------------------------
 #n B3LYP/6-31+G(d,p) EmpiricalDispersion=GD3 Opt=modredundant
 -------------------------------------------------------------
 1/18=120,19=15,26=3,38=1/1,3;
 2/9=110,12=2,17=6,18=5,40=1/2;
 3/5=1,6=6,7=111,11=2,25=1,30=1,71=1,74=-5,124=31/1,2,3;
 4//1;
 5/5=2,38=5/2;
 6/7=2,8=2,9=2,10=2,28=1/1;
 7//1,2,3,16;
 1/18=20,19=15,26=3/3(2);
 2/9=110/2;
 99//99;
 2/9=110/2;
 3/5=1,6=6,7=111,11=2,25=1,30=1,71=1,74=-5,124=31/1,2,3;
 4/5=5,16=3,69=1/1;
 5/5=2,38=5/2;
 7//1,2,3,16;
 1/18=20,19=15,26=3/3(-5);
 2/9=110/2;
 6/7=2,8=2,9=2,10=2,19=2,28=1/1;
 99/9=1/99;
 -----
 Title
 -----
 Symbolic Z-matrix:
 Charge =  0 Multiplicity = 1
 Si                   -6.43096  -0.24612  -0.26208 
 O                    -4.81014  -0.42447  -0.04205 
 O                    -6.73471   1.28889  -0.73607 
 O                    -7.20959  -0.54542   1.14509 
 O                    -6.94121  -1.30808  -1.39584 
 H                    -6.33685  -1.42016  -2.14775 
 H                    -7.5949   -1.43388   1.19797 
 H                    -7.62478   1.60314  -0.51679 
 Si                   -3.31018  -2.97416  -1.406 
 O                    -1.79319  -2.57507  -0.93631 
 O                    -4.23059  -3.30155  -0.09125 
 O                    -3.24876  -4.28448  -2.38516 
 O                    -3.98384  -1.70788  -2.2029 
 H                    -4.00478  -0.89769  -1.66505 
 H                    -4.11864  -4.64444  -2.60985 
 H                    -1.10594  -3.06413  -1.41428 
 H                    -4.35706  -2.53859   0.49456 
 H                    -4.43613   0.27315   0.52098 
 
 Add virtual bond connecting atoms H14        and O2         Dist= 3.54D+00.
 The following ModRedundant input section has been read:
 B       1       9 F                                                           
 

 GradGradGradGradGradGradGradGradGradGradGradGradGradGradGradGradGradGrad
 Berny optimization.
 Initialization pass.
                           ----------------------------
                           !    Initial Parameters    !
                           ! (Angstroms and Degrees)  !
 --------------------------                            --------------------------
 ! Name  Definition              Value          Derivative Info.                !
 --------------------------------------------------------------------------------
 ! R1    R(1,2)                  1.6454         estimate D2E/DX2                !
 ! R2    R(1,3)                  1.635          estimate D2E/DX2                !
 ! R3    R(1,4)                  1.6358         estimate D2E/DX2                !
 ! R4    R(1,5)                  1.6351         estimate D2E/DX2                !
 ! R5    R(1,9)                  4.3            Frozen                          !
 ! R6    R(2,14)                 1.8726         estimate D2E/DX2                !
 ! R7    R(2,18)                 0.9714         estimate D2E/DX2                !
 ! R8    R(3,8)                  0.9691         estimate D2E/DX2                !
 ! R9    R(4,7)                  0.9699         estimate D2E/DX2                !
 ! R10   R(5,6)                  0.9712         estimate D2E/DX2                !
 ! R11   R(9,10)                 1.6374         estimate D2E/DX2                !
 ! R12   R(9,11)                 1.638          estimate D2E/DX2                !
 ! R13   R(9,12)                 1.6369         estimate D2E/DX2                !
 ! R14   R(9,13)                 1.6408         estimate D2E/DX2                !
 ! R15   R(10,16)                0.9695         estimate D2E/DX2                !
 ! R16   R(11,17)                0.9702         estimate D2E/DX2                !
 ! R17   R(12,15)                0.9679         estimate D2E/DX2                !
 ! R18   R(13,14)                0.9727         estimate D2E/DX2                !
 ! A1    A(2,1,3)              108.8772         estimate D2E/DX2                !
 ! A2    A(2,1,4)              109.5124         estimate D2E/DX2                !
 ! A3    A(2,1,5)              109.2523         estimate D2E/DX2                !
 ! A4    A(3,1,4)              109.4344         estimate D2E/DX2                !
 ! A5    A(3,1,5)              110.5346         estimate D2E/DX2                !
 ! A6    A(4,1,5)              109.214          estimate D2E/DX2                !
 ! A7    A(1,2,14)             109.5813         estimate D2E/DX2                !
 ! A8    A(1,2,18)             112.2687         estimate D2E/DX2                !
 ! A9    A(14,2,18)            121.2156         estimate D2E/DX2                !
 ! A10   A(1,3,8)              114.1731         estimate D2E/DX2                !
 ! A11   A(1,4,7)              113.8041         estimate D2E/DX2                !
 ! A12   A(1,5,6)              114.6833         estimate D2E/DX2                !
 ! A13   A(10,9,11)            109.82           estimate D2E/DX2                !
 ! A14   A(10,9,12)            109.3858         estimate D2E/DX2                !
 ! A15   A(10,9,13)            109.3648         estimate D2E/DX2                !
 ! A16   A(11,9,12)            109.9517         estimate D2E/DX2                !
 ! A17   A(11,9,13)            108.2631         estimate D2E/DX2                !
 ! A18   A(12,9,13)            110.0383         estimate D2E/DX2                !
 ! A19   A(9,10,16)            113.1017         estimate D2E/DX2                !
 ! A20   A(9,11,17)            113.6237         estimate D2E/DX2                !
 ! A21   A(9,12,15)            113.7569         estimate D2E/DX2                !
 ! A22   A(9,13,14)            112.5252         estimate D2E/DX2                !
 ! A23   A(2,14,13)            134.3461         estimate D2E/DX2                !
 ! D1    D(3,1,2,14)           -87.2648         estimate D2E/DX2                !
 ! D2    D(3,1,2,18)            50.4723         estimate D2E/DX2                !
 ! D3    D(4,1,2,14)           153.1159         estimate D2E/DX2                !
 ! D4    D(4,1,2,18)           -69.147          estimate D2E/DX2                !
 ! D5    D(5,1,2,14)            33.5387         estimate D2E/DX2                !
 ! D6    D(5,1,2,18)           171.2758         estimate D2E/DX2                !
 ! D7    D(2,1,3,8)           -154.199          estimate D2E/DX2                !
 ! D8    D(4,1,3,8)            -34.5313         estimate D2E/DX2                !
 ! D9    D(5,1,3,8)             85.7881         estimate D2E/DX2                !
 ! D10   D(2,1,4,7)           -100.0138         estimate D2E/DX2                !
 ! D11   D(3,1,4,7)            140.7097         estimate D2E/DX2                !
 ! D12   D(5,1,4,7)             19.587          estimate D2E/DX2                !
 ! D13   D(2,1,5,6)            -39.7339         estimate D2E/DX2                !
 ! D14   D(3,1,5,6)             80.0535         estimate D2E/DX2                !
 ! D15   D(4,1,5,6)           -159.4953         estimate D2E/DX2                !
 ! D16   D(1,2,14,13)          -73.0247         estimate D2E/DX2                !
 ! D17   D(18,2,14,13)         153.672          estimate D2E/DX2                !
 ! D18   D(11,9,10,16)         130.3438         estimate D2E/DX2                !
 ! D19   D(12,9,10,16)           9.5908         estimate D2E/DX2                !
 ! D20   D(13,9,10,16)        -110.9862         estimate D2E/DX2                !
 ! D21   D(10,9,11,17)          63.842          estimate D2E/DX2                !
 ! D22   D(12,9,11,17)        -175.7474         estimate D2E/DX2                !
 ! D23   D(13,9,11,17)         -55.5049         estimate D2E/DX2                !
 ! D24   D(10,9,12,15)         172.6026         estimate D2E/DX2                !
 ! D25   D(11,9,12,15)          51.9299         estimate D2E/DX2                !
 ! D26   D(13,9,12,15)         -67.2318         estimate D2E/DX2                !
 ! D27   D(10,9,13,14)         -57.463          estimate D2E/DX2                !
 ! D28   D(11,9,13,14)          62.1705         estimate D2E/DX2                !
 ! D29   D(12,9,13,14)        -177.6412         estimate D2E/DX2                !
 ! D30   D(9,13,14,2)          -61.3106         estimate D2E/DX2                !
 --------------------------------------------------------------------------------
 Trust Radius=3.00D-01 FncErr=1.00D-07 GrdErr=1.00D-06 EigMax=2.50D+02 EigMin=1.00D-04
 Number of steps in this run=     81 maximum allowed number of steps=    108.
 GradGradGradGradGradGradGradGradGradGradGradGradGradGradGradGradGradGrad

                          Input orientation:                          
 ---------------------------------------------------------------------
 Center     Atomic      Atomic             Coordinates (Angstroms)
 Number     Number       Type             X           Y           Z
 ---------------------------------------------------------------------
      1         14           0       -6.430960   -0.246120   -0.262080
      2          8           0       -4.810140   -0.424470   -0.042050
      3          8           0       -6.734710    1.288890   -0.736070
      4          8           0       -7.209590   -0.545420    1.145090
      5          8           0       -6.941210   -1.308080   -1.395840
      6          1           0       -6.336850   -1.420160   -2.147750
      7          1           0       -7.594900   -1.433880    1.197970
      8          1           0       -7.624780    1.603140   -0.516790
      9         14           0       -3.310180   -2.974160   -1.406000
     10          8           0       -1.793190   -2.575070   -0.936310
     11          8           0       -4.230590   -3.301550   -0.091250
     12          8           0       -3.248760   -4.284480   -2.385160
     13          8           0       -3.983840   -1.707880   -2.202900
     14          1           0       -4.004780   -0.897690   -1.665050
     15          1           0       -4.118640   -4.644440   -2.609850
     16          1           0       -1.105940   -3.064130   -1.414280
     17          1           0       -4.357060   -2.538590    0.494560
     18          1           0       -4.436130    0.273150    0.520980
 ---------------------------------------------------------------------
                    Distance matrix (angstroms):
                    1          2          3          4          5
     1  Si   0.000000
     2  O    1.645381   0.000000
     3  O    1.634988   2.668564   0.000000
     4  O    1.635840   2.679793   2.670013   0.000000
     5  O    1.635092   2.674878   2.687414   2.666459   0.000000
     6  H    2.223281   2.784998   3.080598   3.517050   0.971175
     7  H    2.212979   3.211144   3.448755   0.969856   2.677870
     8  H    2.215817   3.501254   0.969052   2.747824   3.116921
     9  Si   4.300003   3.257477   5.509066   5.254735   3.995035
    10  O    5.233307   3.811400   6.276058   6.147283   5.321517
    11  O    3.769146   2.935283   5.268638   4.242550   3.608786
    12  O    5.562573   4.777839   6.777448   6.490871   4.844780
    13  O    3.448466   2.645597   4.324293   4.792266   3.091476
    14  H    2.877363   1.872611   3.618930   4.276890   2.977166
    15  H    5.495823   4.987977   6.749761   6.360465   4.535639
    16  H    6.133888   4.750991   7.147853   7.081583   6.093802
    17  H    3.182606   2.227720   4.670896   3.540176   3.430102
    18  H    2.205033   0.971370   2.809871   2.958319   3.528443
                    6          7          8          9         10
     6  H    0.000000
     7  H    3.574454   0.000000
     8  H    3.668670   3.487805   0.000000
     9  Si   3.482218   5.245183   6.352806   0.000000
    10  O    4.842133   6.286279   7.186159   1.637419   0.000000
    11  O    3.493587   4.058184   5.979765   1.637958   2.680078
    12  O    4.218648   6.312977   7.569969   1.636907   2.672065
    13  O    2.371177   4.967972   5.202140   1.640833   2.674924
    14  H    2.438140   4.623131   4.547203   2.204836   2.869808
    15  H    3.940809   6.073843   7.463657   2.211944   3.534225
    16  H    5.532001   7.182490   8.067476   2.206091   0.969509
    17  H    3.486009   3.492675   5.371662   2.213099   2.936350
    18  H    3.688110   3.653778   3.607399   3.940309   4.149841
                   11         12         13         14         15
    11  O    0.000000
    12  O    2.681821   0.000000
    13  O    2.657016   2.685597   0.000000
    14  H    2.882079   3.544076   0.972692   0.000000
    15  H    2.856437   0.967857   2.967687   3.865714   0.000000
    16  H    3.401502   2.650196   3.277750   3.627619   3.605985
    17  H    0.970194   3.545314   2.847045   2.735063   3.758831
    18  H    3.632568   5.534211   3.398318   2.517073   5.838286
                   16         17         18
    16  H    0.000000
    17  H    3.806526   0.000000
    18  H    5.096355   2.812976   0.000000
 Stoichiometry    H8O8Si2
 Framework group  C1[X(H8O8Si2)]
 Deg. of freedom    48
 Full point group                 C1      NOp   1
 Largest Abelian subgroup         C1      NOp   1
 Largest concise Abelian subgroup C1      NOp   1
                         Standard orientation:                         
 ---------------------------------------------------------------------
 Center     Atomic      Atomic             Coordinates (Angstroms)
 Number     Number       Type             X           Y           Z
 ---------------------------------------------------------------------
      1         14           0       -2.138254   -0.004994   -0.010724
      2          8           0       -0.908110    1.062854    0.221064
      3          8           0       -3.202675    0.636697   -1.072997
      4          8           0       -2.892897   -0.286604    1.413068
      5          8           0       -1.531197   -1.410345   -0.585177
      6          1           0       -0.819109   -1.307939   -1.237577
      7          1           0       -2.624481   -1.114335    1.841362
      8          1           0       -4.106695    0.299935   -0.981343
      9         14           0        2.161722   -0.005058    0.004595
     10          8           0        2.883791    1.447870    0.225397
     11          8           0        1.346829   -0.431930    1.359820
     12          8           0        3.299306   -1.130233   -0.340877
     13          8           0        1.085830    0.104017   -1.229461
     14          1           0        0.413008    0.789882   -1.077706
     15          1           0        2.956218   -2.034695   -0.372300
     16          1           0        3.820889    1.448636   -0.023187
     17          1           0        0.614385    0.165880    1.577598
     18          1           0       -1.229779    1.954755    0.432253
 ---------------------------------------------------------------------
 Rotational constants (GHZ):           2.0083221           0.4450946           0.4428685
 Standard basis: 6-31+G(d,p) (6D, 7F)
 There are   238 symmetry adapted cartesian basis functions of A   symmetry.
 There are   238 symmetry adapted basis functions of A   symmetry.
   238 basis functions,   424 primitive gaussians,   238 cartesian basis functions
    50 alpha electrons       50 beta electrons
       nuclear repulsion energy       844.2931078383 Hartrees.
 NAtoms=   18 NActive=   18 NUniq=   18 SFac= 1.00D+00 NAtFMM=   60 NAOKFM=F Big=F
 Integral buffers will be    131072 words long.
 Raffenetti 2 integral format.
 Two-electron integral symmetry is turned on.
 Nuclear repulsion after empirical dispersion term =      844.2771879548 Hartrees.
 One-electron integrals computed using PRISM.
 NBasis=   238 RedAO= T EigKep=  2.47D-04  NBF=   238
 NBsUse=   238 1.00D-06 EigRej= -1.00D+00 NBFU=   238
 ExpMin= 3.31D-02 ExpMax= 1.61D+04 ExpMxC= 2.43D+03 IAcc=3 IRadAn=         5 AccDes= 0.00D+00
 Harris functional with IExCor=  402 and IRadAn=       5 diagonalized for initial guess.
 HarFok:  IExCor=  402 AccDes= 0.00D+00 IRadAn=         5 IDoV= 1 UseB2=F ITyADJ=14
 ICtDFT=  3500011 ScaDFX=  1.000000  1.000000  1.000000  1.000000
 FoFCou: FMM=F IPFlag=           0 FMFlag=      100000 FMFlg1=           0
         NFxFlg=           0 DoJE=T BraDBF=F KetDBF=T FulRan=T
         wScrn=  0.000000 ICntrl=       500 IOpCl=  0 I1Cent=   200000004 NGrid=           0
         NMat0=    1 NMatS0=      1 NMatT0=    0 NMatD0=    1 NMtDS0=    0 NMtDT0=    0
 Petite list used in FoFCou.
 Requested convergence on RMS density matrix=1.00D-08 within 128 cycles.
 Requested convergence on MAX density matrix=1.00D-06.
 Requested convergence on             energy=1.00D-06.
 No special actions if energy rises.
 SCF Done:  E(RB3LYP) =  -1186.05336103     A.U. after   12 cycles
            NFock= 12  Conv=0.16D-08     -V/T= 2.0064

 **********************************************************************

            Population analysis using the SCF Density.

 **********************************************************************

 Orbital symmetries:
       Occupied  (A) (A) (A) (A) (A) (A) (A) (A) (A) (A) (A) (A)
                 (A) (A) (A) (A) (A) (A) (A) (A) (A) (A) (A) (A)
                 (A) (A) (A) (A) (A) (A) (A) (A) (A) (A) (A) (A)
                 (A) (A) (A) (A) (A) (A) (A) (A) (A) (A) (A) (A)
                 (A) (A)
       Virtual   (A) (A) (A) (A) (A) (A) (A) (A) (A) (A) (A) (A)
                 (A) (A) (A) (A) (A) (A) (A) (A) (A) (A) (A) (A)
                 (A) (A) (A) (A) (A) (A) (A) (A) (A) (A) (A) (A)
                 (A) (A) (A) (A) (A) (A) (A) (A) (A) (A) (A) (A)
                 (A) (A) (A) (A) (A) (A) (A) (A) (A) (A) (A) (A)
                 (A) (A) (A) (A) (A) (A) (A) (A) (A) (A) (A) (A)
                 (A) (A) (A) (A) (A) (A) (A) (A) (A) (A) (A) (A)
                 (A) (A) (A) (A) (A) (A) (A) (A) (A) (A) (A) (A)
                 (A) (A) (A) (A) (A) (A) (A) (A) (A) (A) (A) (A)
                 (A) (A) (A) (A) (A) (A) (A) (A) (A) (A) (A) (A)
                 (A) (A) (A) (A) (A) (A) (A) (A) (A) (A) (A) (A)
                 (A) (A) (A) (A) (A) (A) (A) (A) (A) (A) (A) (A)
                 (A) (A) (A) (A) (A) (A) (A) (A) (A) (A) (A) (A)
                 (A) (A) (A) (A) (A) (A) (A) (A) (A) (A) (A) (A)
                 (A) (A) (A) (A) (A) (A) (A) (A) (A) (A) (A) (A)
                 (A) (A) (A) (A) (A) (A) (A) (A)
 The electronic state is 1-A.
 Alpha  occ. eigenvalues --  -66.23161 -66.20544 -19.20580 -19.18420 -19.18142
 Alpha  occ. eigenvalues --  -19.17337 -19.16955 -19.16110 -19.15237 -19.15139
 Alpha  occ. eigenvalues --   -5.36760  -5.34129  -3.72780  -3.72714  -3.72668
 Alpha  occ. eigenvalues --   -3.70157  -3.70069  -3.70048  -1.07342  -1.04307
 Alpha  occ. eigenvalues --   -1.03737  -1.02365  -1.01683  -1.00707  -1.00061
 Alpha  occ. eigenvalues --   -0.99377  -0.61168  -0.58726  -0.55925  -0.54582
 Alpha  occ. eigenvalues --   -0.54242  -0.53084  -0.51969  -0.51800  -0.44640
 Alpha  occ. eigenvalues --   -0.41656  -0.40595  -0.39796  -0.39198  -0.39087
 Alpha  occ. eigenvalues --   -0.38535  -0.38155  -0.37663  -0.36956  -0.34886
 Alpha  occ. eigenvalues --   -0.34809  -0.34566  -0.33178  -0.32850  -0.30303
 Alpha virt. eigenvalues --   -0.04012  -0.00961   0.00084   0.00856   0.02030
 Alpha virt. eigenvalues --    0.02870   0.04664   0.06712   0.08619   0.09596
 Alpha virt. eigenvalues --    0.10275   0.11056   0.11775   0.12604   0.12663
 Alpha virt. eigenvalues --    0.13544   0.13677   0.14531   0.14852   0.15843
 Alpha virt. eigenvalues --    0.16470   0.17007   0.17187   0.17713   0.18492
 Alpha virt. eigenvalues --    0.18859   0.19186   0.20365   0.20616   0.21387
 Alpha virt. eigenvalues --    0.22016   0.22265   0.22911   0.23485   0.24103
 Alpha virt. eigenvalues --    0.25269   0.25977   0.26169   0.27560   0.27837
 Alpha virt. eigenvalues --    0.27912   0.28576   0.29366   0.30155   0.30792
 Alpha virt. eigenvalues --    0.30996   0.32738   0.34060   0.35576   0.36276
 Alpha virt. eigenvalues --    0.37109   0.38902   0.39431   0.39594   0.42778
 Alpha virt. eigenvalues --    0.44239   0.47701   0.48255   0.50491   0.50602
 Alpha virt. eigenvalues --    0.52497   0.54968   0.60918   0.61530   0.62660
 Alpha virt. eigenvalues --    0.64528   0.65593   0.72719   0.93036   0.93755
 Alpha virt. eigenvalues --    0.95042   0.96325   0.96719   0.97022   0.98010
 Alpha virt. eigenvalues --    0.99106   0.99950   1.01350   1.04172   1.05028
 Alpha virt. eigenvalues --    1.08280   1.12116   1.14530   1.16056   1.16577
 Alpha virt. eigenvalues --    1.17955   1.18348   1.18905   1.20667   1.20738
 Alpha virt. eigenvalues --    1.21430   1.22518   1.22860   1.23108   1.24260
 Alpha virt. eigenvalues --    1.25531   1.25655   1.27246   1.28003   1.29859
 Alpha virt. eigenvalues --    1.30862   1.31178   1.32189   1.34623   1.35249
 Alpha virt. eigenvalues --    1.39512   1.46728   1.49150   1.53537   1.54495
 Alpha virt. eigenvalues --    1.56743   1.57013   1.58135   1.58943   1.59365
 Alpha virt. eigenvalues --    1.61283   1.63005   1.63609   1.66352   1.67284
 Alpha virt. eigenvalues --    1.68134   1.68496   1.69586   1.72163   1.72747
 Alpha virt. eigenvalues --    1.77457   1.79926   1.83528   1.88983   1.89641
 Alpha virt. eigenvalues --    1.89991   1.92606   1.93880   2.01156   2.02557
 Alpha virt. eigenvalues --    2.09943   2.12181   2.15718   2.36431   2.36679
 Alpha virt. eigenvalues --    2.36798   2.37905   2.38145   2.39084   2.41065
 Alpha virt. eigenvalues --    2.43268   2.46968   2.49884   2.57656   2.58559
 Alpha virt. eigenvalues --    2.58928   2.60143   2.60984   2.62045   2.62557
 Alpha virt. eigenvalues --    2.62878   2.66778   2.67673   2.68728   2.70966
 Alpha virt. eigenvalues --    2.72077   2.73449   2.74463   2.76336   2.77110
 Alpha virt. eigenvalues --    2.78765   2.80533   2.81822   2.82239   2.83796
 Alpha virt. eigenvalues --    2.98823   3.01686   3.39863   3.40933   3.42194
 Alpha virt. eigenvalues --    3.44482   3.45597   3.50615   3.50963   3.54139
 Alpha virt. eigenvalues --    4.13425   4.18075   4.18354   4.21218   4.21522
 Alpha virt. eigenvalues --    4.25002   4.35434   4.49973
          Condensed to atoms (all electrons):
               1          2          3          4          5          6
     1  Si  11.848979  -0.095617   0.017646   0.034831   0.089901   0.038965
     2  O   -0.095617   8.741898   0.067452   0.039116   0.028391  -0.008401
     3  O    0.017646   0.067452   8.542742  -0.016150  -0.014364  -0.007165
     4  O    0.034831   0.039116  -0.016150   8.513476   0.071875   0.005973
     5  O    0.089901   0.028391  -0.014364   0.071875   8.430275   0.245851
     6  H    0.038965  -0.008401  -0.007165   0.005973   0.245851   0.319125
     7  H    0.039520  -0.007288   0.005136   0.241197  -0.003490   0.000056
     8  H    0.039924   0.002646   0.236129  -0.001255  -0.007008   0.000031
     9  Si   0.033023  -0.040017   0.002158   0.001764  -0.053513   0.003363
    10  O    0.000760   0.011381   0.000056  -0.000226   0.000055   0.000167
    11  O   -0.032164   0.030716  -0.001087  -0.006451   0.035669  -0.003375
    12  O    0.002173  -0.007574  -0.000080   0.000290  -0.002148   0.000096
    13  O   -0.033938   0.002655  -0.008816  -0.004027   0.045500   0.010131
    14  H    0.013044  -0.000959  -0.000320   0.001009  -0.007502  -0.000785
    15  H   -0.000215   0.000120   0.000000  -0.000004  -0.000144   0.000022
    16  H   -0.000262   0.000053   0.000000  -0.000000   0.000017  -0.000001
    17  H    0.003589   0.000304   0.000194   0.002272  -0.004158   0.000255
    18  H    0.044784   0.212402  -0.002122  -0.008273   0.006153   0.000037
               7          8          9         10         11         12
     1  Si   0.039520   0.039924   0.033023   0.000760  -0.032164   0.002173
     2  O   -0.007288   0.002646  -0.040017   0.011381   0.030716  -0.007574
     3  O    0.005136   0.236129   0.002158   0.000056  -0.001087  -0.000080
     4  O    0.241197  -0.001255   0.001764  -0.000226  -0.006451   0.000290
     5  O   -0.003490  -0.007008  -0.053513   0.000055   0.035669  -0.002148
     6  H    0.000056   0.000031   0.003363   0.000167  -0.003375   0.000096
     7  H    0.346821   0.000075   0.000428  -0.000003  -0.000552  -0.000005
     8  H    0.000075   0.355814  -0.000080   0.000000   0.000034  -0.000000
     9  Si   0.000428  -0.000080  11.882115  -0.027362  -0.036556   0.040356
    10  O   -0.000003   0.000000  -0.027362   8.578023   0.067226   0.005729
    11  O   -0.000552   0.000034  -0.036556   0.067226   8.530978   0.030308
    12  O   -0.000005  -0.000000   0.040356   0.005729   0.030308   8.488252
    13  O   -0.000005   0.000137  -0.047249   0.056739   0.053303   0.037712
    14  H   -0.000002  -0.000009   0.050732  -0.006080  -0.019194   0.007743
    15  H    0.000000   0.000000   0.042618   0.008709  -0.007548   0.242405
    16  H    0.000000   0.000000   0.034827   0.234768   0.001104  -0.000701
    17  H    0.000114  -0.000001   0.052753  -0.007190   0.233499   0.006801
    18  H    0.000084   0.000108  -0.001116   0.000000   0.001559  -0.000016
              13         14         15         16         17         18
     1  Si  -0.033938   0.013044  -0.000215  -0.000262   0.003589   0.044784
     2  O    0.002655  -0.000959   0.000120   0.000053   0.000304   0.212402
     3  O   -0.008816  -0.000320   0.000000   0.000000   0.000194  -0.002122
     4  O   -0.004027   0.001009  -0.000004  -0.000000   0.002272  -0.008273
     5  O    0.045500  -0.007502  -0.000144   0.000017  -0.004158   0.006153
     6  H    0.010131  -0.000785   0.000022  -0.000001   0.000255   0.000037
     7  H   -0.000005  -0.000002   0.000000   0.000000   0.000114   0.000084
     8  H    0.000137  -0.000009   0.000000   0.000000  -0.000001   0.000108
     9  Si  -0.047249   0.050732   0.042618   0.034827   0.052753  -0.001116
    10  O    0.056739  -0.006080   0.008709   0.234768  -0.007190   0.000000
    11  O    0.053303  -0.019194  -0.007548   0.001104   0.233499   0.001559
    12  O    0.037712   0.007743   0.242405  -0.000701   0.006801  -0.000016
    13  O    8.594262   0.222001  -0.008411  -0.003982  -0.019812   0.006738
    14  H    0.222001   0.341424  -0.000011  -0.000046   0.000552  -0.001961
    15  H   -0.008411  -0.000011   0.360827   0.000043   0.000002   0.000000
    16  H   -0.003982  -0.000046   0.000043   0.357854  -0.000035   0.000001
    17  H   -0.019812   0.000552   0.000002  -0.000035   0.346701  -0.000218
    18  H    0.006738  -0.001961   0.000000   0.000001  -0.000218   0.338399
 Mulliken charges:
               1
     1  Si   1.955058
     2  O   -0.977277
     3  O   -0.821410
     4  O   -0.875416
     5  O   -0.861360
     6  H    0.395654
     7  H    0.377914
     8  H    0.373455
     9  Si   2.061755
    10  O   -0.922753
    11  O   -0.877469
    12  O   -0.851339
    13  O   -0.902938
    14  H    0.400365
    15  H    0.361586
    16  H    0.376360
    17  H    0.384377
    18  H    0.403440
 Sum of Mulliken charges =  -0.00000
 Mulliken charges with hydrogens summed into heavy atoms:
               1
     1  Si   1.955058
     2  O   -0.573838
     3  O   -0.447956
     4  O   -0.497502
     5  O   -0.465706
     9  Si   2.061755
    10  O   -0.546393
    11  O   -0.493093
    12  O   -0.489753
    13  O   -0.502573
 Electronic spatial extent (au):  <R**2>=           2543.8681
 Charge=             -0.0000 electrons
 Dipole moment (field-independent basis, Debye):
    X=             -2.2240    Y=              0.2219    Z=              0.3476  Tot=              2.2619
 Quadrupole moment (field-independent basis, Debye-Ang):
   XX=            -66.7645   YY=            -66.6354   ZZ=            -76.0608
   XY=              0.1328   XZ=             -2.4136   YZ=              0.7521
 Traceless Quadrupole moment (field-independent basis, Debye-Ang):
   XX=              3.0557   YY=              3.1849   ZZ=             -6.2406
   XY=              0.1328   XZ=             -2.4136   YZ=              0.7521
 Octapole moment (field-independent basis, Debye-Ang**2):
  XXX=            -21.7300  YYY=             -4.0754  ZZZ=              6.2940  XYY=              4.7821
  XXY=              2.5990  XXZ=            -12.2825  XZZ=             -8.3097  YZZ=             -6.1080
  YYZ=              3.1230  XYZ=              2.3946
 Hexadecapole moment (field-independent basis, Debye-Ang**3):
 XXXX=          -2052.2240 YYYY=           -321.7546 ZZZZ=           -358.8895 XXXY=            115.8195
 XXXZ=             60.1960 YYYX=            -63.7452 YYYZ=              5.9272 ZZZX=            -13.4591
 ZZZY=             -2.8108 XXYY=           -419.9976 XXZZ=           -489.3565 YYZZ=           -110.2975
 XXYZ=            -14.9586 YYXZ=            -37.0493 ZZXY=             24.9612
 N-N= 8.442771879548D+02 E-N=-4.498520293773D+03  KE= 1.178495818864D+03
 Calling FoFJK, ICntrl=      2127 FMM=F ISym2X=0 I1Cent= 0 IOpClX= 0 NMat=1 NMatS=1 NMatT=0.
 ***** Axes restored to original set *****
 -------------------------------------------------------------------
 Center     Atomic                   Forces (Hartrees/Bohr)
 Number     Number              X              Y              Z
 -------------------------------------------------------------------
      1       14          -0.017210234   -0.004438959   -0.008147708
      2        8           0.015238772    0.013454535    0.008563107
      3        8          -0.001527814    0.011921860    0.005741864
      4        8          -0.009684093   -0.007706546    0.004405996
      5        8           0.004791645   -0.004871239   -0.002677452
      6        1          -0.000734760   -0.004065967    0.001866176
      7        1           0.001056952    0.004169034    0.002566451
      8        1           0.004545299    0.000740012   -0.002152110
      9       14          -0.003889280    0.003208961    0.003124073
     10        8           0.014740930   -0.005896372   -0.003824349
     11        8          -0.003983045   -0.002706424    0.011896412
     12        8          -0.005266275   -0.004394720   -0.002816590
     13        8          -0.003818080    0.008963374   -0.013993366
     14        1           0.001072966   -0.004018057   -0.001922614
     15        1           0.004265713   -0.001591573   -0.001149593
     16        1          -0.000122700    0.004432514    0.004211199
     17        1          -0.001247935   -0.003657455   -0.003233187
     18        1           0.001771937   -0.003542978   -0.002458308
 -------------------------------------------------------------------
 Cartesian Forces:  Max     0.017210234 RMS     0.006503662

 GradGradGradGradGradGradGradGradGradGradGradGradGradGradGradGradGradGrad
 Berny optimization.
 FormGI is forming the generalized inverse of G from B-inverse, IUseBI=4.
 Internal  Forces:  Max     0.015201295 RMS     0.005718918
 Search for a local minimum.
 Step number   1 out of a maximum of   81
 All quantities printed in internal units (Hartrees-Bohrs-Radians)
 Mixed Optimization -- RFO/linear search
 Second derivative matrix not updated -- first step.
 ITU=  0
     Eigenvalues ---    0.00479   0.03739   0.03799   0.03837   0.03844
     Eigenvalues ---    0.03851   0.03865   0.03875   0.03876   0.03997
     Eigenvalues ---    0.04599   0.08073   0.10703   0.10772   0.12173
     Eigenvalues ---    0.12197   0.12246   0.12480   0.13629   0.16000
     Eigenvalues ---    0.16000   0.16000   0.16000   0.16000   0.16000
     Eigenvalues ---    0.16000   0.20131   0.20260   0.20696   0.20836
     Eigenvalues ---    0.21098   0.41321   0.43802   0.44527   0.44613
     Eigenvalues ---    0.44696   0.44868   0.44990   0.45007   0.51761
     Eigenvalues ---    0.53098   0.53138   0.53337   0.53406   0.53477
     Eigenvalues ---    0.53571   0.538171000.000001000.000001000.00000
     Eigenvalues --- 1000.000001000.000001000.000001000.000001000.00000
     Eigenvalues --- 1000.000001000.000001000.000001000.000001000.00000
     Eigenvalues --- 1000.000001000.000001000.000001000.000001000.00000
     Eigenvalues --- 1000.000001000.000001000.000001000.000001000.00000
     Eigenvalues --- 1000.00000
 RFO step:  Lambda=-1.11436443D-02 EMin= 4.79466521D-03
 Linear search not attempted -- first point.
 Iteration  1 RMS(Cart)=  0.16972042 RMS(Int)=  0.00755546
 Iteration  2 RMS(Cart)=  0.01685116 RMS(Int)=  0.00058303
 Iteration  3 RMS(Cart)=  0.00013694 RMS(Int)=  0.00058057
 Iteration  4 RMS(Cart)=  0.00000018 RMS(Int)=  0.00058057
 Iteration  1 RMS(Cart)=  0.00031225 RMS(Int)=  0.00003255
 Iteration  2 RMS(Cart)=  0.00002041 RMS(Int)=  0.00003353
 Iteration  3 RMS(Cart)=  0.00000133 RMS(Int)=  0.00003366
 Iteration  4 RMS(Cart)=  0.00000009 RMS(Int)=  0.00003367
 Variable       Old X    -DE/DX   Delta X   Delta X   Delta X     New X
                                 (Linear)    (Quad)   (Total)
    R1        3.10932   0.01520   0.00000   0.03950   0.04026   3.14958
    R2        3.08968   0.01029   0.00000   0.02230   0.02230   3.11198
    R3        3.09129   0.01075   0.00000   0.02338   0.02338   3.11467
    R4        3.08988   0.00510   0.00000   0.01106   0.01106   3.10094
    R5        8.12583   0.00348   0.00000   0.00000  -0.00000   8.12583
    R6        3.53872   0.00642   0.00000   0.13355   0.13440   3.67312
    R7        1.83562  -0.00329   0.00000  -0.00606  -0.00606   1.82956
    R8        1.83124  -0.00442   0.00000  -0.00809  -0.00809   1.82316
    R9        1.83276  -0.00410   0.00000  -0.00752  -0.00752   1.82524
   R10        1.83526  -0.00143   0.00000  -0.00264  -0.00264   1.83261
   R11        3.09427   0.01330   0.00000   0.02908   0.02908   3.12335
   R12        3.09529   0.01116   0.00000   0.02446   0.02446   3.11975
   R13        3.09331   0.00713   0.00000   0.01556   0.01556   3.10887
   R14        3.10072   0.01172   0.00000   0.03055   0.03131   3.13203
   R15        1.83211  -0.00440   0.00000  -0.00806  -0.00806   1.82405
   R16        1.83340  -0.00467   0.00000  -0.00857  -0.00857   1.82483
   R17        1.82899  -0.00297   0.00000  -0.00541  -0.00541   1.82357
   R18        1.83812   0.00218   0.00000   0.00809   0.00887   1.84699
    A1        1.90027  -0.00910   0.00000  -0.04805  -0.04748   1.85279
    A2        1.91135   0.01035   0.00000   0.04205   0.04204   1.95339
    A3        1.90681  -0.00734   0.00000  -0.03993  -0.03931   1.86750
    A4        1.90999  -0.00250   0.00000  -0.00669  -0.00653   1.90346
    A5        1.92919   0.01264   0.00000   0.06629   0.06571   1.99491
    A6        1.90614  -0.00396   0.00000  -0.01350  -0.01344   1.89270
    A7        1.91256  -0.01159   0.00000  -0.04652  -0.04493   1.86763
    A8        1.95946   0.00961   0.00000   0.04815   0.04728   2.00674
    A9        2.11561   0.00147   0.00000   0.00185   0.00173   2.11734
   A10        1.99270   0.00459   0.00000   0.02680   0.02680   2.01949
   A11        1.98626   0.00520   0.00000   0.03039   0.03039   2.01665
   A12        2.00160   0.00439   0.00000   0.02566   0.02566   2.02726
   A13        1.91672   0.00151   0.00000   0.01110   0.01059   1.92731
   A14        1.90914  -0.00264   0.00000  -0.02245  -0.02249   1.88665
   A15        1.90878   0.00094   0.00000   0.00942   0.00896   1.91774
   A16        1.91902  -0.00273   0.00000  -0.01756  -0.01749   1.90153
   A17        1.88955   0.00458   0.00000   0.03142   0.03117   1.92072
   A18        1.92053  -0.00156   0.00000  -0.01122  -0.01111   1.90942
   A19        1.97400   0.00777   0.00000   0.04539   0.04539   2.01938
   A20        1.98311   0.00141   0.00000   0.00826   0.00826   1.99137
   A21        1.98543   0.00663   0.00000   0.03877   0.03877   2.02420
   A22        1.96394   0.00111   0.00000   0.03369   0.03531   1.99924
   A23        2.34478   0.00526   0.00000   0.04290   0.04519   2.38997
    D1       -1.52306  -0.00235   0.00000  -0.01009  -0.01062  -1.53368
    D2        0.88091  -0.00238   0.00000  -0.00676  -0.00765   0.87326
    D3        2.67238   0.00002   0.00000   0.00196   0.00216   2.67454
    D4       -1.20684  -0.00001   0.00000   0.00529   0.00514  -1.20171
    D5        0.58536   0.00306   0.00000   0.01727   0.01813   0.60349
    D6        2.98933   0.00303   0.00000   0.02060   0.02110   3.01043
    D7       -2.69128  -0.00429   0.00000  -0.02032  -0.02105  -2.71234
    D8       -0.60268   0.00134   0.00000  -0.00205  -0.00213  -0.60481
    D9        1.49729   0.00276   0.00000   0.01856   0.01937   1.51666
   D10       -1.74557  -0.00015   0.00000   0.00347   0.00350  -1.74207
   D11        2.45585   0.00623   0.00000   0.04078   0.04053   2.49638
   D12        0.34186  -0.00527   0.00000  -0.02809  -0.02788   0.31398
   D13       -0.69349   0.00661   0.00000   0.06071   0.06140  -0.63209
   D14        1.39720  -0.00146   0.00000   0.01713   0.01647   1.41367
   D15       -2.78372   0.00080   0.00000   0.04162   0.04158  -2.74214
   D16       -1.27452   0.00617   0.00000   0.19397   0.19320  -1.08132
   D17        2.68208   0.00298   0.00000   0.17035   0.16946   2.85154
   D18        2.27493  -0.00357   0.00000  -0.02368  -0.02376   2.25117
   D19        0.16739   0.00051   0.00000   0.00515   0.00517   0.17256
   D20       -1.93707   0.00348   0.00000   0.02694   0.02700  -1.91007
   D21        1.11425   0.00391   0.00000   0.04250   0.04272   1.15698
   D22       -3.06737  -0.00013   0.00000   0.01067   0.01072  -3.05665
   D23       -0.96874  -0.00085   0.00000   0.00582   0.00554  -0.96320
   D24        3.01248  -0.00012   0.00000  -0.00291  -0.00285   3.00963
   D25        0.90635   0.00138   0.00000   0.00853   0.00841   0.91475
   D26       -1.17342  -0.00159   0.00000  -0.01232  -0.01226  -1.18567
   D27       -1.00292  -0.00225   0.00000  -0.00874  -0.00893  -1.01185
   D28        1.08508   0.00283   0.00000   0.02873   0.02895   1.11403
   D29       -3.10042   0.00138   0.00000   0.01995   0.01993  -3.08050
   D30       -1.07007   0.00453   0.00000  -0.03007  -0.03205  -1.10212
         Item               Value     Threshold  Converged?
 Maximum Force            0.015002     0.000450     NO 
 RMS     Force            0.005743     0.000300     NO 
 Maximum Displacement     0.478905     0.001800     NO 
 RMS     Displacement     0.178430     0.001200     NO 
 Predicted change in Energy=-6.275567D-03
 GradGradGradGradGradGradGradGradGradGradGradGradGradGradGradGradGradGrad

                          Input orientation:                          
 ---------------------------------------------------------------------
 Center     Atomic      Atomic             Coordinates (Angstroms)
 Number     Number       Type             X           Y           Z
 ---------------------------------------------------------------------
      1         14           0       -6.434106   -0.235121   -0.227742
      2          8           0       -4.789169   -0.234820    0.040642
      3          8           0       -6.798682    1.249232   -0.840685
      4          8           0       -7.284763   -0.466097    1.164969
      5          8           0       -6.754091   -1.482728   -1.244495
      6          1           0       -6.088722   -1.658834   -1.927678
      7          1           0       -7.605865   -1.364980    1.312692
      8          1           0       -7.707507    1.544848   -0.708642
      9         14           0       -3.343423   -2.969559   -1.436273
     10          8           0       -1.794160   -2.695451   -0.929899
     11          8           0       -4.300895   -3.391304   -0.159222
     12          8           0       -3.316112   -4.210329   -2.516194
     13          8           0       -3.944145   -1.611748   -2.172788
     14          1           0       -3.943427   -0.811439   -1.611727
     15          1           0       -4.176463   -4.541712   -2.801138
     16          1           0       -1.105134   -3.161972   -1.419081
     17          1           0       -4.429464   -2.685500    0.487158
     18          1           0       -4.456119    0.526576    0.537323
 ---------------------------------------------------------------------
                    Distance matrix (angstroms):
                    1          2          3          4          5
     1  Si   0.000000
     2  O    1.666688   0.000000
     3  O    1.646790   2.649016   0.000000
     4  O    1.648214   2.746923   2.683519   0.000000
     5  O    1.640946   2.658905   2.762002   2.668458   0.000000
     6  H    2.244111   2.755166   3.184721   3.523861   0.969777
     7  H    2.241101   3.290767   3.481764   0.965878   2.697886
     8  H    2.240782   3.499334   0.964773   2.780833   3.219062
     9  Si   4.300003   3.427865   5.485594   5.344898   3.725601
    10  O    5.298618   3.995840   6.372890   6.285317   5.115719
    11  O    3.810089   3.200274   5.313935   4.383353   3.292211
    12  O    5.546277   4.950958   6.688979   6.581825   4.569106
    13  O    3.446479   2.740305   4.255360   4.859307   2.962123
    14  H    2.907067   1.943732   3.604629   4.358190   2.912957
    15  H    5.501459   5.196195   6.652401   6.480908   4.292398
    16  H    6.195458   4.926574   7.225632   7.220310   5.895851
    17  H    3.245617   2.516863   4.781054   3.679390   3.138340
    18  H    2.253429   0.968162   2.812248   3.062771   3.534524
                    6          7          8          9         10
     6  H    0.000000
     7  H    3.589995   0.000000
     8  H    3.790791   3.544464   0.000000
     9  Si   3.081581   5.319764   6.320961   0.000000
    10  O    4.529172   6.369873   7.279888   1.652805   0.000000
    11  O    3.053721   4.146727   6.022663   1.650903   2.713277
    12  O    3.813639   6.415478   7.461479   1.645141   2.669743
    13  O    2.159052   5.061389   5.125497   1.657399   2.709542
    14  H    2.328131   4.719331   4.531661   2.246836   2.938323
    15  H    3.568004   6.227039   7.341187   2.242426   3.547616
    16  H    5.230128   7.276762   8.139423   2.246610   0.965245
    17  H    3.104611   3.537627   5.483735   2.227052   2.992152
    18  H    3.676634   3.755008   3.627786   4.166069   4.429472
                   11         12         13         14         15
    11  O    0.000000
    12  O    2.682521   0.000000
    13  O    2.710819   2.695362   0.000000
    14  H    2.982157   3.572680   0.977387   0.000000
    15  H    2.884205   0.964992   3.005575   3.922236   0.000000
    16  H    3.442779   2.681629   3.321333   3.690261   3.639618
    17  H    0.965659   3.547504   2.909260   2.855460   3.784497
    18  H    3.982343   5.749944   3.489878   2.582935   6.075447
                   16         17         18
    16  H    0.000000
    17  H    3.861599   0.000000
    18  H    5.353690   3.212578   0.000000
 Stoichiometry    H8O8Si2
 Framework group  C1[X(H8O8Si2)]
 Deg. of freedom    48
 Full point group                 C1      NOp   1
 Largest Abelian subgroup         C1      NOp   1
 Largest concise Abelian subgroup C1      NOp   1
                         Standard orientation:                         
 ---------------------------------------------------------------------
 Center     Atomic      Atomic             Coordinates (Angstroms)
 Number     Number       Type             X           Y           Z
 ---------------------------------------------------------------------
      1         14           0       -2.149960   -0.012437   -0.017735
      2          8           0       -1.049292    1.069137    0.612006
      3          8           0       -3.180385    0.872291   -0.949077
      4          8           0       -3.010944   -0.772721    1.164332
      5          8           0       -1.293521   -1.142015   -0.844336
      6          1           0       -0.509299   -0.822522   -1.316976
      7          1           0       -2.710907   -1.662269    1.391494
      8          1           0       -4.057114    0.491721   -1.080606
      9         14           0        2.149962   -0.002645    0.006761
     10          8           0        2.939637    1.217016    0.794546
     11          8           0        1.367083   -0.974594    1.087453
     12          8           0        3.268802   -0.896619   -0.802866
     13          8           0        1.066421    0.633380   -1.074158
     14          1           0        0.396702    1.224557   -0.677584
     15          1           0        2.945404   -1.708372   -1.212354
     16          1           0        3.870108    1.330592    0.564282
     17          1           0        0.640520   -0.541281    1.553117
     18          1           0       -1.437849    1.851711    1.029065
 ---------------------------------------------------------------------
 Rotational constants (GHZ):           1.9847080           0.4435010           0.4392168
 Standard basis: 6-31+G(d,p) (6D, 7F)
 There are   238 symmetry adapted cartesian basis functions of A   symmetry.
 There are   238 symmetry adapted basis functions of A   symmetry.
   238 basis functions,   424 primitive gaussians,   238 cartesian basis functions
    50 alpha electrons       50 beta electrons
       nuclear repulsion energy       839.4393082829 Hartrees.
 NAtoms=   18 NActive=   18 NUniq=   18 SFac= 1.00D+00 NAtFMM=   60 NAOKFM=F Big=F
 Integral buffers will be    131072 words long.
 Raffenetti 2 integral format.
 Two-electron integral symmetry is turned on.
 Nuclear repulsion after empirical dispersion term =      839.4234564309 Hartrees.
 One-electron integrals computed using PRISM.
 NBasis=   238 RedAO= T EigKep=  2.48D-04  NBF=   238
 NBsUse=   238 1.00D-06 EigRej= -1.00D+00 NBFU=   238
 Initial guess from the checkpoint file:  "/localscratch/sarashs.36560096.0/Gau-140724.chk"
 B after Tr=    -0.000000    0.000000   -0.000000
         Rot=    0.983920   -0.178471    0.005300   -0.004701 Ang= -20.58 deg.
 ExpMin= 3.31D-02 ExpMax= 1.61D+04 ExpMxC= 2.43D+03 IAcc=3 IRadAn=         5 AccDes= 0.00D+00
 Harris functional with IExCor=  402 and IRadAn=       5 diagonalized for initial guess.
 HarFok:  IExCor=  402 AccDes= 0.00D+00 IRadAn=         5 IDoV= 1 UseB2=F ITyADJ=14
 ICtDFT=  3500011 ScaDFX=  1.000000  1.000000  1.000000  1.000000
 FoFCou: FMM=F IPFlag=           0 FMFlag=      100000 FMFlg1=           0
         NFxFlg=           0 DoJE=T BraDBF=F KetDBF=T FulRan=T
         wScrn=  0.000000 ICntrl=       500 IOpCl=  0 I1Cent=   200000004 NGrid=           0
         NMat0=    1 NMatS0=      1 NMatT0=    0 NMatD0=    1 NMtDS0=    0 NMtDT0=    0
 Petite list used in FoFCou.
 Requested convergence on RMS density matrix=1.00D-08 within 128 cycles.
 Requested convergence on MAX density matrix=1.00D-06.
 Requested convergence on             energy=1.00D-06.
 No special actions if energy rises.
 SCF Done:  E(RB3LYP) =  -1186.05943163     A.U. after   11 cycles
            NFock= 11  Conv=0.30D-08     -V/T= 2.0066
 Calling FoFJK, ICntrl=      2127 FMM=F ISym2X=0 I1Cent= 0 IOpClX= 0 NMat=1 NMatS=1 NMatT=0.
 ***** Axes restored to original set *****
 -------------------------------------------------------------------
 Center     Atomic                   Forces (Hartrees/Bohr)
 Number     Number              X              Y              Z
 -------------------------------------------------------------------
      1       14          -0.005318492   -0.003706864   -0.004872349
      2        8           0.002760777    0.004595551    0.003186439
      3        8           0.000185529    0.001525714    0.004331133
      4        8          -0.002202851   -0.001252807   -0.001588046
      5        8          -0.000709431    0.002536896    0.002868010
      6        1           0.002095931   -0.000987689    0.000425176
      7        1           0.000325009    0.001018421    0.000603044
      8        1           0.000494198    0.000838874   -0.000851758
      9       14           0.004661816    0.000835375    0.001827409
     10        8           0.000094923   -0.002425496   -0.002268205
     11        8           0.001470601    0.000808121    0.000832753
     12        8          -0.003149580    0.000959500    0.000066683
     13        8          -0.002490290    0.003359150   -0.001860662
     14        1           0.001398687   -0.006181306   -0.002220394
     15        1           0.001742946   -0.001319015   -0.000718955
     16        1          -0.000191222    0.001243368    0.001187126
     17        1          -0.001479608    0.000045206    0.000313022
     18        1           0.000311055   -0.001892999   -0.001260425
 -------------------------------------------------------------------
 Cartesian Forces:  Max     0.006181306 RMS     0.002324060

 GradGradGradGradGradGradGradGradGradGradGradGradGradGradGradGradGradGrad
 Berny optimization.
 Using GEDIIS/GDIIS optimizer.
 FormGI is forming the generalized inverse of G from B-inverse, IUseBI=4.
 Internal  Forces:  Max     0.007095006 RMS     0.002116211
 Search for a local minimum.
 Step number   2 out of a maximum of   81
 All quantities printed in internal units (Hartrees-Bohrs-Radians)
 Mixed Optimization -- RFO/linear search
 Update second derivatives using D2CorX and points    1    2
 DE= -6.07D-03 DEPred=-6.28D-03 R= 9.67D-01
 TightC=F SS=  1.41D+00  RLast= 3.63D-01 DXNew= 5.0454D-01 1.0880D+00
 Trust test= 9.67D-01 RLast= 3.63D-01 DXMaxT set to 5.05D-01
 ITU=  1  0
 Use linear search instead of GDIIS.
     Eigenvalues ---    0.00589   0.03645   0.03764   0.03838   0.03844
     Eigenvalues ---    0.03850   0.03860   0.03866   0.03877   0.04076
     Eigenvalues ---    0.05079   0.07110   0.10734   0.11075   0.11719
     Eigenvalues ---    0.12148   0.12414   0.12568   0.13740   0.14468
     Eigenvalues ---    0.16000   0.16000   0.16000   0.16000   0.16000
     Eigenvalues ---    0.17204   0.17731   0.20542   0.20715   0.20863
     Eigenvalues ---    0.21072   0.40472   0.43761   0.44382   0.44616
     Eigenvalues ---    0.44684   0.44813   0.44964   0.46173   0.52042
     Eigenvalues ---    0.52987   0.53171   0.53356   0.53446   0.53467
     Eigenvalues ---    0.53640   0.537991000.000001000.000001000.00000
     Eigenvalues --- 1000.000001000.000001000.000001000.000001000.00000
     Eigenvalues --- 1000.000001000.000001000.000001000.000001000.00000
     Eigenvalues --- 1000.000001000.000001000.000001000.000001000.00000
     Eigenvalues --- 1000.000001000.000001000.000001000.000001000.00000
     Eigenvalues --- 1000.00000
 RFO step:  Lambda=-3.40353657D-03 EMin= 5.89286651D-03
 Quartic linear search produced a step of  0.11054.
 Iteration  1 RMS(Cart)=  0.15271066 RMS(Int)=  0.00618111
 Iteration  2 RMS(Cart)=  0.01429614 RMS(Int)=  0.00020840
 Iteration  3 RMS(Cart)=  0.00010029 RMS(Int)=  0.00020416
 Iteration  4 RMS(Cart)=  0.00000002 RMS(Int)=  0.00020416
 Iteration  1 RMS(Cart)=  0.00000867 RMS(Int)=  0.00000095
 Iteration  2 RMS(Cart)=  0.00000061 RMS(Int)=  0.00000098
 Variable       Old X    -DE/DX   Delta X   Delta X   Delta X     New X
                                 (Linear)    (Quad)   (Total)
    R1        3.14958   0.00401   0.00445   0.01473   0.01920   3.16878
    R2        3.11198   0.00069   0.00247   0.00724   0.00971   3.12169
    R3        3.11467   0.00017   0.00258   0.00623   0.00882   3.12349
    R4        3.10094  -0.00349   0.00122  -0.00589  -0.00467   3.09627
    R5        8.12583   0.00136  -0.00000   0.00000  -0.00000   8.12583
    R6        3.67312   0.00310   0.01486   0.04102   0.05590   3.72902
    R7        1.82956  -0.00203  -0.00067  -0.00577  -0.00644   1.82312
    R8        1.82316  -0.00033  -0.00089  -0.00270  -0.00359   1.81957
    R9        1.82524  -0.00096  -0.00083  -0.00389  -0.00472   1.82053
   R10        1.83261   0.00132  -0.00029   0.00211   0.00182   1.83443
   R11        3.12335  -0.00062   0.00321   0.00569   0.00890   3.13225
   R12        3.11975   0.00067   0.00270   0.00777   0.01047   3.13023
   R13        3.10887   0.00068   0.00172   0.00556   0.00728   3.11614
   R14        3.13203   0.00068   0.00346   0.00399   0.00748   3.13951
   R15        1.82405  -0.00134  -0.00089  -0.00480  -0.00569   1.81836
   R16        1.82483   0.00044  -0.00095  -0.00122  -0.00217   1.82266
   R17        1.82357  -0.00089  -0.00060  -0.00319  -0.00379   1.81978
   R18        1.84699  -0.00344   0.00098  -0.00979  -0.00879   1.83820
    A1        1.85279  -0.00355  -0.00525  -0.03409  -0.03885   1.81393
    A2        1.95339   0.00456   0.00465   0.03386   0.03844   1.99184
    A3        1.86750  -0.00189  -0.00435  -0.01902  -0.02289   1.84460
    A4        1.90346  -0.00195  -0.00072  -0.01428  -0.01475   1.88871
    A5        1.99491   0.00460   0.00726   0.04361   0.05055   2.04546
    A6        1.89270  -0.00150  -0.00149  -0.00826  -0.00964   1.88306
    A7        1.86763  -0.00347  -0.00497  -0.06503  -0.06977   1.79786
    A8        2.00674   0.00082   0.00523   0.03427   0.03955   2.04629
    A9        2.11734   0.00156   0.00019   0.01997   0.02052   2.13786
   A10        2.01949   0.00224   0.00296   0.02182   0.02478   2.04427
   A11        2.01665   0.00124   0.00336   0.01585   0.01920   2.03585
   A12        2.02726  -0.00103   0.00284  -0.00088   0.00196   2.02922
   A13        1.92731   0.00004   0.00117   0.00287   0.00393   1.93124
   A14        1.88665  -0.00050  -0.00249  -0.00829  -0.01078   1.87588
   A15        1.91774   0.00041   0.00099   0.00395   0.00483   1.92256
   A16        1.90153   0.00053  -0.00193  -0.00109  -0.00300   1.89853
   A17        1.92072  -0.00034   0.00345   0.00586   0.00924   1.92996
   A18        1.90942  -0.00014  -0.00123  -0.00368  -0.00488   1.90453
   A19        2.01938   0.00197   0.00502   0.02444   0.02945   2.04884
   A20        1.99137   0.00182   0.00091   0.01449   0.01541   2.00678
   A21        2.02420   0.00382   0.00429   0.03561   0.03989   2.06409
   A22        1.99924  -0.00710   0.00390  -0.07251  -0.06856   1.93068
   A23        2.38997  -0.00067   0.00500  -0.02158  -0.01653   2.37344
    D1       -1.53368  -0.00203  -0.00117  -0.03221  -0.03378  -1.56746
    D2        0.87326  -0.00252  -0.00085  -0.03676  -0.03824   0.83501
    D3        2.67454   0.00001   0.00024  -0.01252  -0.01206   2.66248
    D4       -1.20171  -0.00048   0.00057  -0.01707  -0.01653  -1.21824
    D5        0.60349   0.00042   0.00200  -0.00979  -0.00725   0.59624
    D6        3.01043  -0.00007   0.00233  -0.01434  -0.01171   2.99872
    D7       -2.71234  -0.00161  -0.00233  -0.01538  -0.01839  -2.73072
    D8       -0.60481   0.00072  -0.00024  -0.00245  -0.00247  -0.60729
    D9        1.51666   0.00048   0.00214   0.00605   0.00865   1.52531
   D10       -1.74207  -0.00059   0.00039  -0.00138  -0.00106  -1.74313
   D11        2.49638   0.00230   0.00448   0.02944   0.03384   2.53022
   D12        0.31398  -0.00116  -0.00308  -0.01000  -0.01293   0.30105
   D13       -0.63209   0.00320   0.00679   0.05369   0.06082  -0.57127
   D14        1.41367   0.00020   0.00182   0.02392   0.02533   1.43900
   D15       -2.74214  -0.00032   0.00460   0.02881   0.03347  -2.70867
   D16       -1.08132  -0.00357   0.02136  -0.12463  -0.10314  -1.18446
   D17        2.85154  -0.00245   0.01873  -0.12340  -0.10485   2.74669
   D18        2.25117   0.00027  -0.00263  -0.00214  -0.00479   2.24638
   D19        0.17256  -0.00010   0.00057   0.00255   0.00312   0.17567
   D20       -1.91007   0.00014   0.00298   0.00967   0.01268  -1.89739
   D21        1.15698   0.00078   0.00472   0.02632   0.03109   1.18806
   D22       -3.05665   0.00051   0.00118   0.01724   0.01843  -3.03822
   D23       -0.96320   0.00046   0.00061   0.01561   0.01617  -0.94703
   D24        3.00963  -0.00020  -0.00032  -0.00515  -0.00546   3.00417
   D25        0.91475  -0.00026   0.00093  -0.00313  -0.00223   0.91252
   D26       -1.18567  -0.00008  -0.00135  -0.00739  -0.00872  -1.19440
   D27       -1.01185  -0.00136  -0.00099  -0.03570  -0.03674  -1.04859
   D28        1.11403  -0.00126   0.00320  -0.02571  -0.02246   1.09157
   D29       -3.08050  -0.00090   0.00220  -0.02574  -0.02354  -3.10404
   D30       -1.10212  -0.00617  -0.00354  -0.02595  -0.02955  -1.13167
         Item               Value     Threshold  Converged?
 Maximum Force            0.007228     0.000450     NO 
 RMS     Force            0.002125     0.000300     NO 
 Maximum Displacement     0.404007     0.001800     NO 
 RMS     Displacement     0.160625     0.001200     NO 
 Predicted change in Energy=-1.881487D-03
 GradGradGradGradGradGradGradGradGradGradGradGradGradGradGradGradGradGrad

                          Input orientation:                          
 ---------------------------------------------------------------------
 Center     Atomic      Atomic             Coordinates (Angstroms)
 Number     Number       Type             X           Y           Z
 ---------------------------------------------------------------------
      1         14           0       -6.462156   -0.245853   -0.242107
      2          8           0       -4.821948   -0.338004    0.094121
      3          8           0       -6.680538    1.316583   -0.731975
      4          8           0       -7.436107   -0.518341    1.065251
      5          8           0       -6.755666   -1.423668   -1.342655
      6          1           0       -6.036945   -1.618467   -1.965412
      7          1           0       -7.819657   -1.398718    1.142261
      8          1           0       -7.565697    1.684963   -0.643000
      9         14           0       -3.337176   -2.952258   -1.425279
     10          8           0       -1.754657   -2.590399   -1.090543
     11          8           0       -4.154558   -3.337733   -0.037078
     12          8           0       -3.344570   -4.262272   -2.426767
     13          8           0       -4.066012   -1.673748   -2.196196
     14          1           0       -4.043351   -0.878335   -1.636717
     15          1           0       -4.189821   -4.677174   -2.628633
     16          1           0       -1.078695   -3.045937   -1.601866
     17          1           0       -4.282441   -2.605106    0.577077
     18          1           0       -4.442255    0.363528    0.636738
 ---------------------------------------------------------------------
                    Distance matrix (angstroms):
                    1          2          3          4          5
     1  Si   0.000000
     2  O    1.676849   0.000000
     3  O    1.651928   2.621917   0.000000
     4  O    1.652881   2.794537   2.677284   0.000000
     5  O    1.638475   2.642395   2.808478   2.660944   0.000000
     6  H    2.243803   2.712467   3.248091   3.514662   0.970739
     7  H    2.255744   3.348129   3.490446   0.963382   2.703240
     8  H    2.259772   3.487678   0.962874   2.790962   3.287743
     9  Si   4.300003   3.368597   5.466420   5.378468   3.745596
    10  O    5.327033   3.985597   6.297411   6.420260   5.141489
    11  O    3.863518   3.075874   5.340985   4.464601   3.483381
    12  O    5.533868   4.892586   6.717486   6.553768   4.568211
    13  O    3.405709   2.757028   4.233411   4.830066   2.832898
    14  H    2.862793   1.973315   3.548377   4.352127   2.782178
    15  H    5.522284   5.161528   6.762108   6.440422   4.338502
    16  H    6.218606   4.921506   7.153247   7.342951   5.909903
    17  H    3.314860   2.379930   4.779554   3.812939   3.346343
    18  H    2.285544   0.964752   2.791344   3.150312   3.530430
                    6          7          8          9         10
     6  H    0.000000
     7  H    3.589427   0.000000
     8  H    3.872791   3.572219   0.000000
     9  Si   3.059329   5.394292   6.324252   0.000000
    10  O    4.477503   6.571890   7.228222   1.657515   0.000000
    11  O    3.196519   4.310867   6.101680   1.656444   2.725403
    12  O    3.801504   6.400336   7.507952   1.648990   2.666173
    13  O    1.985168   5.030982   5.093245   1.661356   2.721228
    14  H    2.151802   4.717415   4.468209   2.201033   2.909912
    15  H    3.634201   6.176052   7.471015   2.269449   3.556737
    16  H    5.172434   7.462180   8.085915   2.267310   0.962233
    17  H    3.242837   3.779775   5.538326   2.241310   3.028344
    18  H    3.639028   3.842904   3.624888   4.058022   4.351133
                   11         12         13         14         15
    11  O    0.000000
    12  O    2.687278   0.000000
    13  O    2.727358   2.697054   0.000000
    14  H    2.935958   3.544503   0.972735   0.000000
    15  H    2.917448   0.962986   3.036923   3.928935   0.000000
    16  H    3.463328   2.700764   3.340688   3.672723   3.659822
    17  H    0.964512   3.556526   2.933482   2.817763   3.818196
    18  H    3.773080   5.655793   3.509639   2.621057   6.011243
                   16         17         18
    16  H    0.000000
    17  H    3.899502   0.000000
    18  H    5.286712   2.973531   0.000000
 Stoichiometry    H8O8Si2
 Framework group  C1[X(H8O8Si2)]
 Deg. of freedom    48
 Full point group                 C1      NOp   1
 Largest Abelian subgroup         C1      NOp   1
 Largest concise Abelian subgroup C1      NOp   1
                         Standard orientation:                         
 ---------------------------------------------------------------------
 Center     Atomic      Atomic             Coordinates (Angstroms)
 Number     Number       Type             X           Y           Z
 ---------------------------------------------------------------------
      1         14           0       -2.154832   -0.019086   -0.026843
      2          8           0       -1.007729    0.970538    0.691920
      3          8           0       -3.159646    1.036579   -0.804522
      4          8           0       -3.056786   -0.896619    1.044806
      5          8           0       -1.311398   -1.072585   -0.956014
      6          1           0       -0.492943   -0.734602   -1.353800
      7          1           0       -2.799962   -1.816039    1.174468
      8          1           0       -4.056468    0.736548   -0.985679
      9         14           0        2.144965   -0.001387    0.011237
     10          8           0        2.964318    1.294838    0.640380
     11          8           0        1.404442   -0.864786    1.215385
     12          8           0        3.250326   -0.971404   -0.734693
     13          8           0        1.030459    0.514234   -1.107742
     14          1           0        0.386209    1.116400   -0.697192
     15          1           0        2.959105   -1.831098   -1.056347
     16          1           0        3.884852    1.404215    0.382416
     17          1           0        0.675614   -0.409833    1.653689
     18          1           0       -1.330162    1.734663    1.184766
 ---------------------------------------------------------------------
 Rotational constants (GHZ):           1.9852161           0.4435647           0.4369223
 Standard basis: 6-31+G(d,p) (6D, 7F)
 There are   238 symmetry adapted cartesian basis functions of A   symmetry.
 There are   238 symmetry adapted basis functions of A   symmetry.
   238 basis functions,   424 primitive gaussians,   238 cartesian basis functions
    50 alpha electrons       50 beta electrons
       nuclear repulsion energy       838.7557021436 Hartrees.
 NAtoms=   18 NActive=   18 NUniq=   18 SFac= 1.00D+00 NAtFMM=   60 NAOKFM=F Big=F
 Integral buffers will be    131072 words long.
 Raffenetti 2 integral format.
 Two-electron integral symmetry is turned on.
 Nuclear repulsion after empirical dispersion term =      838.7400779494 Hartrees.
 One-electron integrals computed using PRISM.
 NBasis=   238 RedAO= T EigKep=  2.61D-04  NBF=   238
 NBsUse=   238 1.00D-06 EigRej= -1.00D+00 NBFU=   238
 Initial guess from the checkpoint file:  "/localscratch/sarashs.36560096.0/Gau-140724.chk"
 B after Tr=     0.000000    0.000000    0.000000
         Rot=    0.999990   -0.003897   -0.001245    0.001992 Ang=  -0.52 deg.
 ExpMin= 3.31D-02 ExpMax= 1.61D+04 ExpMxC= 2.43D+03 IAcc=3 IRadAn=         5 AccDes= 0.00D+00
 Harris functional with IExCor=  402 and IRadAn=       5 diagonalized for initial guess.
 HarFok:  IExCor=  402 AccDes= 0.00D+00 IRadAn=         5 IDoV= 1 UseB2=F ITyADJ=14
 ICtDFT=  3500011 ScaDFX=  1.000000  1.000000  1.000000  1.000000
 FoFCou: FMM=F IPFlag=           0 FMFlag=      100000 FMFlg1=           0
         NFxFlg=           0 DoJE=T BraDBF=F KetDBF=T FulRan=T
         wScrn=  0.000000 ICntrl=       500 IOpCl=  0 I1Cent=   200000004 NGrid=           0
         NMat0=    1 NMatS0=      1 NMatT0=    0 NMatD0=    1 NMtDS0=    0 NMtDT0=    0
 Petite list used in FoFCou.
 Requested convergence on RMS density matrix=1.00D-08 within 128 cycles.
 Requested convergence on MAX density matrix=1.00D-06.
 Requested convergence on             energy=1.00D-06.
 No special actions if energy rises.
 SCF Done:  E(RB3LYP) =  -1186.06110714     A.U. after   10 cycles
            NFock= 10  Conv=0.86D-08     -V/T= 2.0067
 Calling FoFJK, ICntrl=      2127 FMM=F ISym2X=0 I1Cent= 0 IOpClX= 0 NMat=1 NMatS=1 NMatT=0.
 ***** Axes restored to original set *****
 -------------------------------------------------------------------
 Center     Atomic                   Forces (Hartrees/Bohr)
 Number     Number              X              Y              Z
 -------------------------------------------------------------------
      1       14          -0.002455260   -0.000654218    0.000039991
      2        8          -0.001079424   -0.000780020    0.002814675
      3        8           0.001034735   -0.003190452    0.002347111
      4        8           0.002063138    0.002967057   -0.003037462
      5        8          -0.003984946    0.004786572    0.002856229
      6        1           0.003055951   -0.001949967   -0.000859573
      7        1           0.000493791   -0.001406147   -0.000130740
      8        1          -0.001214115    0.000334906   -0.000187688
      9       14           0.005549223   -0.008345822    0.001595684
     10        8          -0.006015495    0.000361169    0.000268343
     11        8           0.003803810    0.001073017   -0.004222619
     12        8          -0.000364494    0.003036537    0.001329341
     13        8           0.000169869    0.000412074   -0.000856158
     14        1           0.001555393    0.000652119   -0.001070606
     15        1          -0.000084270   -0.000424620    0.000117489
     16        1           0.000309807   -0.000531348   -0.001022025
     17        1          -0.001947317    0.001992296    0.000477658
     18        1          -0.000890396    0.001666847   -0.000459648
 -------------------------------------------------------------------
 Cartesian Forces:  Max     0.008345822 RMS     0.002442519

 GradGradGradGradGradGradGradGradGradGradGradGradGradGradGradGradGradGrad
 Berny optimization.
 Using GEDIIS/GDIIS optimizer.
 FormGI is forming the generalized inverse of G from B-inverse, IUseBI=4.
 Internal  Forces:  Max     0.005636388 RMS     0.001650225
 Search for a local minimum.
 Step number   3 out of a maximum of   81
 All quantities printed in internal units (Hartrees-Bohrs-Radians)
 Mixed Optimization -- RFO/linear search
 Update second derivatives using D2CorX and points    1    2    3
 DE= -1.68D-03 DEPred=-1.88D-03 R= 8.91D-01
 TightC=F SS=  1.41D+00  RLast= 2.52D-01 DXNew= 8.4853D-01 7.5625D-01
 Trust test= 8.91D-01 RLast= 2.52D-01 DXMaxT set to 7.56D-01
 ITU=  1  1  0
 Use linear search instead of GDIIS.
     Eigenvalues ---    0.00600   0.02831   0.03759   0.03844   0.03849
     Eigenvalues ---    0.03850   0.03862   0.03869   0.03878   0.04212
     Eigenvalues ---    0.04805   0.09035   0.10588   0.11289   0.11443
     Eigenvalues ---    0.12157   0.12635   0.12801   0.13436   0.14667
     Eigenvalues ---    0.15999   0.16000   0.16000   0.16000   0.16132
     Eigenvalues ---    0.17103   0.17682   0.20751   0.20816   0.20974
     Eigenvalues ---    0.21552   0.40039   0.43894   0.44569   0.44682
     Eigenvalues ---    0.44796   0.44957   0.44989   0.49759   0.52260
     Eigenvalues ---    0.52964   0.53236   0.53369   0.53445   0.53550
     Eigenvalues ---    0.53794   0.558011000.000001000.000001000.00000
     Eigenvalues --- 1000.000001000.000001000.000001000.000001000.00000
     Eigenvalues --- 1000.000001000.000001000.000001000.000001000.00000
     Eigenvalues --- 1000.000001000.000001000.000001000.000001000.00000
     Eigenvalues --- 1000.000001000.000001000.000001000.000001000.00000
     Eigenvalues --- 1000.00000
 RFO step:  Lambda=-9.27162849D-04 EMin= 5.99820322D-03
 Quartic linear search produced a step of -0.08003.
 Iteration  1 RMS(Cart)=  0.03425138 RMS(Int)=  0.00033711
 Iteration  2 RMS(Cart)=  0.00052026 RMS(Int)=  0.00002946
 Iteration  3 RMS(Cart)=  0.00000016 RMS(Int)=  0.00002946
 Iteration  1 RMS(Cart)=  0.00001024 RMS(Int)=  0.00000110
 Iteration  2 RMS(Cart)=  0.00000069 RMS(Int)=  0.00000113
 Variable       Old X    -DE/DX   Delta X   Delta X   Delta X     New X
                                 (Linear)    (Quad)   (Total)
    R1        3.16878  -0.00055  -0.00154   0.00653   0.00502   3.17380
    R2        3.12169  -0.00332  -0.00078  -0.00330  -0.00407   3.11762
    R3        3.12349  -0.00427  -0.00071  -0.00544  -0.00615   3.11735
    R4        3.09627  -0.00321   0.00037  -0.00743  -0.00706   3.08921
    R5        8.12583   0.00199   0.00000   0.00000  -0.00000   8.12583
    R6        3.72902   0.00323  -0.00447   0.08417   0.07972   3.80874
    R7        1.82312   0.00060   0.00052  -0.00095  -0.00044   1.82268
    R8        1.81957   0.00123   0.00029   0.00084   0.00112   1.82069
    R9        1.82053   0.00108   0.00038   0.00029   0.00067   1.82120
   R10        1.83443   0.00321  -0.00015   0.00585   0.00570   1.84014
   R11        3.13225  -0.00564  -0.00071  -0.00806  -0.00878   3.12347
   R12        3.13023  -0.00477  -0.00084  -0.00601  -0.00685   3.12337
   R13        3.11614  -0.00295  -0.00058  -0.00347  -0.00405   3.11209
   R14        3.13951   0.00071  -0.00060   0.00555   0.00497   3.14448
   R15        1.81836   0.00101   0.00046  -0.00011   0.00034   1.81870
   R16        1.82266   0.00208   0.00017   0.00266   0.00283   1.82549
   R17        1.81978   0.00023   0.00030  -0.00082  -0.00052   1.81926
   R18        1.83820   0.00197   0.00070   0.00207   0.00280   1.84100
    A1        1.81393  -0.00035   0.00311  -0.01368  -0.01062   1.80331
    A2        1.99184  -0.00029  -0.00308   0.01019   0.00708   1.99891
    A3        1.84460   0.00148   0.00183   0.00238   0.00419   1.84879
    A4        1.88871  -0.00064   0.00118  -0.01111  -0.00993   1.87878
    A5        2.04546   0.00022  -0.00405   0.01816   0.01415   2.05961
    A6        1.88306  -0.00037   0.00077  -0.00445  -0.00369   1.87938
    A7        1.79786   0.00212   0.00558  -0.00532   0.00026   1.79812
    A8        2.04629  -0.00187  -0.00317  -0.00556  -0.00878   2.03751
    A9        2.13786  -0.00047  -0.00164  -0.00025  -0.00198   2.13588
   A10        2.04427  -0.00006  -0.00198   0.00745   0.00547   2.04974
   A11        2.03585  -0.00132  -0.00154  -0.00107  -0.00261   2.03325
   A12        2.02922   0.00003  -0.00016   0.00140   0.00124   2.03046
   A13        1.93124   0.00051  -0.00031   0.00235   0.00197   1.93321
   A14        1.87588   0.00049   0.00086   0.00283   0.00368   1.87956
   A15        1.92256  -0.00082  -0.00039  -0.00503  -0.00544   1.91713
   A16        1.89853   0.00118   0.00024   0.00696   0.00719   1.90572
   A17        1.92996  -0.00238  -0.00074  -0.01099  -0.01174   1.91822
   A18        1.90453   0.00114   0.00039   0.00453   0.00494   1.90947
   A19        2.04884  -0.00101  -0.00236   0.00397   0.00161   2.05045
   A20        2.00678   0.00004  -0.00123   0.00483   0.00360   2.01038
   A21        2.06409   0.00032  -0.00319   0.01418   0.01098   2.07507
   A22        1.93068  -0.00101   0.00549  -0.01725  -0.01171   1.91897
   A23        2.37344  -0.00011   0.00132   0.00193   0.00332   2.37677
    D1       -1.56746  -0.00062   0.00270  -0.01305  -0.01034  -1.57780
    D2        0.83501  -0.00085   0.00306  -0.02388  -0.02076   0.81425
    D3        2.66248   0.00052   0.00097   0.00385   0.00480   2.66728
    D4       -1.21824   0.00030   0.00132  -0.00698  -0.00562  -1.22386
    D5        0.59624   0.00017   0.00058   0.00203   0.00255   0.59879
    D6        2.99872  -0.00005   0.00094  -0.00879  -0.00788   2.99084
    D7       -2.73072   0.00067   0.00147  -0.00401  -0.00256  -2.73328
    D8       -0.60729  -0.00018   0.00020  -0.00504  -0.00479  -0.61208
    D9        1.52531  -0.00104  -0.00069  -0.00707  -0.00780   1.51751
   D10       -1.74313  -0.00041   0.00008   0.00317   0.00325  -1.73987
   D11        2.53022   0.00061  -0.00271   0.02146   0.01878   2.54901
   D12        0.30105   0.00101   0.00103   0.00920   0.01020   0.31126
   D13       -0.57127   0.00090  -0.00487   0.04208   0.03715  -0.53412
   D14        1.43900   0.00161  -0.00203   0.03663   0.03465   1.47366
   D15       -2.70867   0.00061  -0.00268   0.03111   0.02843  -2.68024
   D16       -1.18446   0.00034   0.00825   0.01243   0.02063  -1.16383
   D17        2.74669   0.00125   0.00839   0.02713   0.03551   2.78220
   D18        2.24638   0.00191   0.00038   0.01393   0.01432   2.26070
   D19        0.17567  -0.00011  -0.00025   0.00249   0.00224   0.17791
   D20       -1.89739  -0.00131  -0.00101  -0.00181  -0.00283  -1.90022
   D21        1.18806  -0.00025  -0.00249   0.02413   0.02163   1.20970
   D22       -3.03822   0.00136  -0.00147   0.03316   0.03171  -3.00651
   D23       -0.94703   0.00206  -0.00129   0.03641   0.03510  -0.91193
   D24        3.00417   0.00036   0.00044  -0.00242  -0.00197   3.00219
   D25        0.91252  -0.00120   0.00018  -0.01072  -0.01055   0.90198
   D26       -1.19440   0.00030   0.00070  -0.00428  -0.00358  -1.19798
   D27       -1.04859   0.00070   0.00294  -0.00549  -0.00258  -1.05117
   D28        1.09157  -0.00081   0.00180  -0.01337  -0.01154   1.08003
   D29       -3.10404  -0.00009   0.00188  -0.00869  -0.00681  -3.11085
   D30       -1.13167   0.00193   0.00236   0.01205   0.01435  -1.11733
         Item               Value     Threshold  Converged?
 Maximum Force            0.005636     0.000450     NO 
 RMS     Force            0.001644     0.000300     NO 
 Maximum Displacement     0.108448     0.001800     NO 
 RMS     Displacement     0.034251     0.001200     NO 
 Predicted change in Energy=-4.798532D-04
 GradGradGradGradGradGradGradGradGradGradGradGradGradGradGradGradGradGrad

                          Input orientation:                          
 ---------------------------------------------------------------------
 Center     Atomic      Atomic             Coordinates (Angstroms)
 Number     Number       Type             X           Y           Z
 ---------------------------------------------------------------------
      1         14           0       -6.459828   -0.254009   -0.233326
      2          8           0       -4.815820   -0.326990    0.102306
      3          8           0       -6.681386    1.309669   -0.710370
      4          8           0       -7.437117   -0.523030    1.068139
      5          8           0       -6.748068   -1.437400   -1.323684
      6          1           0       -6.017194   -1.653886   -1.929621
      7          1           0       -7.810347   -1.407783    1.149976
      8          1           0       -7.567185    1.678805   -0.624523
      9         14           0       -3.337268   -2.953731   -1.437957
     10          8           0       -1.762998   -2.599491   -1.079945
     11          8           0       -4.187237   -3.299805   -0.063332
     12          8           0       -3.341670   -4.272992   -2.423675
     13          8           0       -4.039176   -1.669573   -2.229865
     14          1           0       -4.015615   -0.876977   -1.663885
     15          1           0       -4.182232   -4.690125   -2.638785
     16          1           0       -1.079890   -3.063129   -1.574559
     17          1           0       -4.339830   -2.549386    0.525532
     18          1           0       -4.449389    0.388892    0.634794
 ---------------------------------------------------------------------
                    Distance matrix (angstroms):
                    1          2          3          4          5
     1  Si   0.000000
[...]

                          Input orientation:                          
 ---------------------------------------------------------------------
 Center     Atomic      Atomic             Coordinates (Angstroms)
 Number     Number       Type             X           Y           Z
 ---------------------------------------------------------------------
      1         14           0       -6.593471   -0.513591   -0.225293
      2          8           0       -5.248041   -0.546501    0.759159
      3          8           0       -6.905216    1.083465   -0.475134
      4          8           0       -7.946402   -1.173680    0.440724
      5          8           0       -6.198155   -1.411816   -1.542576
      6          1           0       -5.349729   -1.220555   -1.995056
      7          1           0       -8.055485   -2.129484    0.382017
      8          1           0       -7.804324    1.319325   -0.731055
      9         14           0       -3.091800   -2.759475   -1.313563
     10          8           0       -1.657727   -3.445954   -1.714369
     11          8           0       -2.892231   -2.129304    0.183646
     12          8           0       -4.294647   -3.872519   -1.482287
     13          8           0       -3.552498   -1.519840   -2.364096
     14          1           0       -2.957401   -0.760732   -2.402179
     15          1           0       -5.192333   -3.517721   -1.549468
     16          1           0       -1.688011   -4.140625   -2.381377
     17          1           0       -3.633514   -1.583560    0.503384
     18          1           0       -5.211267    0.121628    1.454743
 ---------------------------------------------------------------------
                    Distance matrix (angstroms):
                    1          2          3          4          5
     1  Si   0.000000
     2  O    1.667456   0.000000
     3  O    1.646266   2.631824   0.000000
     4  O    1.646122   2.788531   2.649068   0.000000
     5  O    1.642655   2.636184   2.804602   2.654535   0.000000
     6  H    2.275687   2.837320   3.168313   3.560608   0.980380
     7  H    2.262172   3.244967   3.518646   0.963799   2.769257
     8  H    2.254228   3.498089   0.964117   2.758320   3.270700
     9  Si   4.300003   3.720591   5.478438   5.399947   3.393828
    10  O    5.931077   5.235983   7.041838   7.025318   4.978224
    11  O    4.059179   2.895914   5.182656   5.150141   3.797863
    12  O    4.259933   4.122552   5.691327   4.931229   3.111597
    13  O    3.851562   3.684694   4.646083   5.224292   2.772375
    14  H    4.245104   3.909857   4.764431   5.756974   3.415451
    15  H    3.569513   3.763111   5.025841   4.127989   2.333787
    16  H    6.470518   5.954368   7.625228   7.478935   5.337732
    17  H    3.230658   1.935874   4.332961   4.332774   3.285244
    18  H    2.266388   0.965188   2.742083   3.191711   3.508464
                    6          7          8          9         10
     6  H    0.000000
     7  H    3.714532   0.000000
     8  H    3.751496   3.632671   0.000000
     9  Si   2.816194   5.282997   6.259697   0.000000
    10  O    4.319962   6.859974   7.839352   1.639654   0.000000
    11  O    3.407619   5.167064   6.071110   1.636637   2.619166
    12  O    2.899836   4.545075   6.311690   1.647476   2.681263
    13  O    1.858978   5.309397   5.367094   1.688951   2.778888
    14  H    2.469902   5.967888   5.532807   2.279938   3.061479
    15  H    2.345271   3.722295   5.557816   2.245624   3.539178
    16  H    4.699386   7.226740   8.363247   2.240184   0.963528
    17  H    3.052764   4.457195   5.229363   2.231037   3.505805
    18  H    3.704287   3.782568   3.596685   4.522876   5.949669
                   11         12         13         14         15
    11  O    0.000000
    12  O    2.789428   0.000000
    13  O    2.701553   2.619823   0.000000
    14  H    2.926385   3.509650   0.965316   0.000000
    15  H    3.197164   0.967592   2.710019   3.650072   0.000000
    16  H    3.474896   2.770342   3.216384   3.610465   3.655182
    17  H    0.974458   3.101503   2.869331   3.094587   3.222591
    18  H    3.472795   5.041781   4.475429   4.553495   4.719163
                   16         17         18
    16  H    0.000000
    17  H    4.318033   0.000000
    18  H    6.730226   2.510389   0.000000
 Stoichiometry    H8O8Si2
 Framework group  C1[X(H8O8Si2)]
 Deg. of freedom    48
 Full point group                 C1      NOp   1
 Largest Abelian subgroup         C1      NOp   1
 Largest concise Abelian subgroup C1      NOp   1
                         Standard orientation:                         
 ---------------------------------------------------------------------
 Center     Atomic      Atomic             Coordinates (Angstroms)
 Number     Number       Type             X           Y           Z
 ---------------------------------------------------------------------
      1         14           0       -2.136481   -0.020219   -0.004170
      2          8           0       -1.289330    1.156210    0.819700
      3          8           0       -3.158036    0.802086   -0.999374
      4          8           0       -3.063875   -0.990961    0.948363
      5          8           0       -0.998129   -0.964756   -0.718538
      6          1           0       -0.290923   -0.525260   -1.236079
      7          1           0       -2.637018   -1.743241    1.373540
      8          1           0       -3.942280    0.332855   -1.306463
      9         14           0        2.163209    0.011873    0.036584
     10          8           0        3.790255    0.205867   -0.023023
     11          8           0        1.599498    1.193518    1.018687
     12          8           0        1.815019   -1.535402    0.482543
     13          8           0        1.419574    0.163373   -1.472260
     14          1           0        1.515006    1.022728   -1.901488
     15          1           0        0.919827   -1.842120    0.280581
     16          1           0        4.305313   -0.573781   -0.258077
     17          1           0        0.628890    1.272990    1.052939
     18          1           0       -1.792810    1.933188    1.092463
 ---------------------------------------------------------------------
 Rotational constants (GHZ):           1.9960081           0.4471175           0.4385936

 **********************************************************************

            Population analysis using the SCF Density.

 **********************************************************************

 Orbital symmetries:
       Occupied  (A) (A) (A) (A) (A) (A) (A) (A) (A) (A) (A) (A)
                 (A) (A) (A) (A) (A) (A) (A) (A) (A) (A) (A) (A)
                 (A) (A) (A) (A) (A) (A) (A) (A) (A) (A) (A) (A)
                 (A) (A) (A) (A) (A) (A) (A) (A) (A) (A) (A) (A)
                 (A) (A)
       Virtual   (A) (A) (A) (A) (A) (A) (A) (A) (A) (A) (A) (A)
                 (A) (A) (A) (A) (A) (A) (A) (A) (A) (A) (A) (A)
                 (A) (A) (A) (A) (A) (A) (A) (A) (A) (A) (A) (A)
                 (A) (A) (A) (A) (A) (A) (A) (A) (A) (A) (A) (A)
                 (A) (A) (A) (A) (A) (A) (A) (A) (A) (A) (A) (A)
                 (A) (A) (A) (A) (A) (A) (A) (A) (A) (A) (A) (A)
                 (A) (A) (A) (A) (A) (A) (A) (A) (A) (A) (A) (A)
                 (A) (A) (A) (A) (A) (A) (A) (A) (A) (A) (A) (A)
                 (A) (A) (A) (A) (A) (A) (A) (A) (A) (A) (A) (A)
                 (A) (A) (A) (A) (A) (A) (A) (A) (A) (A) (A) (A)
                 (A) (A) (A) (A) (A) (A) (A) (A) (A) (A) (A) (A)
                 (A) (A) (A) (A) (A) (A) (A) (A) (A) (A) (A) (A)
                 (A) (A) (A) (A) (A) (A) (A) (A) (A) (A) (A) (A)
                 (A) (A) (A) (A) (A) (A) (A) (A) (A) (A) (A) (A)
                 (A) (A) (A) (A) (A) (A) (A) (A) (A) (A) (A) (A)
                 (A) (A) (A) (A) (A) (A) (A) (A)
 The electronic state is 1-A.
 Alpha  occ. eigenvalues --  -66.23654 -66.21948 -19.19210 -19.18275 -19.18242
 Alpha  occ. eigenvalues --  -19.18126 -19.17499 -19.16832 -19.16277 -19.15244
 Alpha  occ. eigenvalues --   -5.36977  -5.35290  -3.72970  -3.72954  -3.72939
 Alpha  occ. eigenvalues --   -3.71317  -3.71283  -3.71196  -1.06124  -1.04571
 Alpha  occ. eigenvalues --   -1.02800  -1.02158  -1.01778  -1.01082  -1.00398
 Alpha  occ. eigenvalues --   -0.99580  -0.61339  -0.59593  -0.55495  -0.55351
 Alpha  occ. eigenvalues --   -0.54722  -0.53684  -0.52544  -0.49950  -0.42914
 Alpha  occ. eigenvalues --   -0.42318  -0.41165  -0.40112  -0.39635  -0.39144
 Alpha  occ. eigenvalues --   -0.38191  -0.37570  -0.37016  -0.36467  -0.35499
 Alpha  occ. eigenvalues --   -0.34615  -0.34426  -0.34033  -0.32985  -0.31464
 Alpha virt. eigenvalues --   -0.03791  -0.01136   0.00234   0.00935   0.01994
 Alpha virt. eigenvalues --    0.03760   0.05024   0.06275   0.09075   0.10251
 Alpha virt. eigenvalues --    0.10631   0.11059   0.12043   0.12468   0.12887
 Alpha virt. eigenvalues --    0.13625   0.14379   0.14718   0.14729   0.15591
 Alpha virt. eigenvalues --    0.15891   0.17052   0.17294   0.17428   0.18180
 Alpha virt. eigenvalues --    0.18331   0.19256   0.19550   0.20779   0.20977
 Alpha virt. eigenvalues --    0.21604   0.21905   0.22118   0.23306   0.24113
 Alpha virt. eigenvalues --    0.25120   0.25168   0.25779   0.26488   0.27452
 Alpha virt. eigenvalues --    0.27671   0.28350   0.28698   0.29303   0.30911
 Alpha virt. eigenvalues --    0.31897   0.32786   0.33742   0.36706   0.38128
 Alpha virt. eigenvalues --    0.38294   0.39166   0.39761   0.40662   0.42764
 Alpha virt. eigenvalues --    0.44606   0.45596   0.46394   0.48238   0.48549
 Alpha virt. eigenvalues --    0.51609   0.55321   0.60470   0.61647   0.62966
 Alpha virt. eigenvalues --    0.64459   0.66964   0.72139   0.92092   0.93325
 Alpha virt. eigenvalues --    0.93675   0.94941   0.95559   0.96856   0.98659
 Alpha virt. eigenvalues --    0.99546   1.01110   1.03206   1.03351   1.08790
 Alpha virt. eigenvalues --    1.12210   1.13967   1.15602   1.16111   1.16276
 Alpha virt. eigenvalues --    1.17264   1.18143   1.18727   1.19817   1.20115
 Alpha virt. eigenvalues --    1.20834   1.21155   1.22392   1.22972   1.23899
 Alpha virt. eigenvalues --    1.25109   1.25655   1.27023   1.27862   1.28774
 Alpha virt. eigenvalues --    1.30777   1.31578   1.33075   1.34582   1.35981
 Alpha virt. eigenvalues --    1.36865   1.48493   1.49542   1.51072   1.52415
 Alpha virt. eigenvalues --    1.56259   1.57209   1.57615   1.58940   1.60655
 Alpha virt. eigenvalues --    1.60912   1.62744   1.63814   1.66064   1.67816
 Alpha virt. eigenvalues --    1.68107   1.70979   1.72178   1.73400   1.74550
 Alpha virt. eigenvalues --    1.76237   1.78480   1.81899   1.85106   1.86957
 Alpha virt. eigenvalues --    1.89321   1.92063   1.95839   1.96555   2.02122
 Alpha virt. eigenvalues --    2.03632   2.10662   2.14204   2.34115   2.35613
 Alpha virt. eigenvalues --    2.37001   2.38307   2.39085   2.40611   2.41586
 Alpha virt. eigenvalues --    2.44016   2.45190   2.49543   2.57722   2.58385
 Alpha virt. eigenvalues --    2.59473   2.59917   2.60577   2.61253   2.62758
 Alpha virt. eigenvalues --    2.63036   2.63841   2.64218   2.65517   2.66657
 Alpha virt. eigenvalues --    2.67707   2.70366   2.72761   2.74946   2.77286
 Alpha virt. eigenvalues --    2.78947   2.79329   2.80995   2.82567   2.84938
 Alpha virt. eigenvalues --    2.99686   3.02506   3.41005   3.41922   3.42310
 Alpha virt. eigenvalues --    3.44405   3.46233   3.53223   3.55270   3.62189
 Alpha virt. eigenvalues --    4.12176   4.16235   4.19026   4.22944   4.26532
 Alpha virt. eigenvalues --    4.30214   4.34991   4.35970
          Condensed to atoms (all electrons):
               1          2          3          4          5          6
     1  Si  11.764836  -0.121475   0.052164   0.051886   0.058048   0.023260
     2  O   -0.121475   8.717937   0.079431   0.033715   0.066531  -0.004173
     3  O    0.052164   0.079431   8.488743   0.021560   0.005500  -0.007443
     4  O    0.051886   0.033715   0.021560   8.463086   0.058004   0.006086
     5  O    0.058048   0.066531   0.005500   0.058004   8.525428   0.248479
     6  H    0.023260  -0.004173  -0.007443   0.006086   0.248479   0.288040
     7  H    0.029656  -0.006302   0.006794   0.240699  -0.003514   0.000019
     8  H    0.030776   0.004600   0.240194  -0.002620  -0.006355   0.000048
     9  Si   0.045295  -0.001370  -0.003001  -0.004504   0.004152   0.003662
    10  O    0.002106  -0.001145  -0.000021  -0.000063   0.000156   0.000216
    11  O   -0.035551  -0.001677   0.000778   0.000716  -0.009791   0.000227
    12  O   -0.032674   0.004830  -0.000078   0.002515   0.024183  -0.006480
    13  O   -0.026327   0.006191   0.000460   0.000917  -0.010030   0.015137
    14  H    0.000853  -0.001283  -0.000040   0.000012   0.000722  -0.002160
    15  H    0.007412  -0.001492   0.000064  -0.000972   0.013371  -0.002228
    16  H    0.000037   0.000003   0.000000  -0.000000   0.000009  -0.000003
    17  H    0.007819   0.005398  -0.000188   0.000285  -0.001450  -0.000123
    18  H    0.029712   0.231316  -0.002074  -0.005523   0.006296  -0.000005
               7          8          9         10         11         12
     1  Si   0.029656   0.030776   0.045295   0.002106  -0.035551  -0.032674
     2  O   -0.006302   0.004600  -0.001370  -0.001145  -0.001677   0.004830
     3  O    0.006794   0.240194  -0.003001  -0.000021   0.000778  -0.000078
     4  O    0.240699  -0.002620  -0.004504  -0.000063   0.000716   0.002515
     5  O   -0.003514  -0.006355   0.004152   0.000156  -0.009791   0.024183
     6  H    0.000019   0.000048   0.003662   0.000216   0.000227  -0.006480
     7  H    0.359516   0.000051  -0.000034   0.000000   0.000005  -0.000198
     8  H    0.000051   0.355498   0.000019   0.000000  -0.000002  -0.000004
     9  Si  -0.000034   0.000019  11.522037   0.069009   0.113993   0.072099
    10  O    0.000000   0.000000   0.069009   8.531263   0.054694  -0.029924
    11  O    0.000005  -0.000002   0.113993   0.054694   8.484500  -0.002546
    12  O   -0.000198  -0.000004   0.072099  -0.029924  -0.002546   8.539030
    13  O    0.000027  -0.000020   0.068030  -0.034944   0.024274   0.105464
    14  H   -0.000000  -0.000000   0.023238  -0.005245  -0.008022   0.005994
    15  H    0.000038  -0.000000   0.027157   0.005845  -0.004973   0.228942
    16  H    0.000000  -0.000000   0.036695   0.232126   0.003816  -0.003219
    17  H    0.000007  -0.000001   0.030869   0.003703   0.220752  -0.005418
    18  H    0.000074   0.000057  -0.000485  -0.000001   0.000540  -0.000103
              13         14         15         16         17         18
     1  Si  -0.026327   0.000853   0.007412   0.000037   0.007819   0.029712
     2  O    0.006191  -0.001283  -0.001492   0.000003   0.005398   0.231316
     3  O    0.000460  -0.000040   0.000064   0.000000  -0.000188  -0.002074
     4  O    0.000917   0.000012  -0.000972  -0.000000   0.000285  -0.005523
     5  O   -0.010030   0.000722   0.013371   0.000009  -0.001450   0.006296
     6  H    0.015137  -0.002160  -0.002228  -0.000003  -0.000123  -0.000005
     7  H    0.000027  -0.000000   0.000038   0.000000   0.000007   0.000074
     8  H   -0.000020  -0.000000  -0.000000  -0.000000  -0.000001   0.000057
     9  Si   0.068030   0.023238   0.027157   0.036695   0.030869  -0.000485
    10  O   -0.034944  -0.005245   0.005845   0.232126   0.003703  -0.000001
    11  O    0.024274  -0.008022  -0.004973   0.003816   0.220752   0.000540
    12  O    0.105464   0.005994   0.228942  -0.003219  -0.005418  -0.000103
    13  O    8.584459   0.254808  -0.005607  -0.005302  -0.006274   0.000081
    14  H    0.254808   0.347558   0.000041   0.000054   0.000091  -0.000000
    15  H   -0.005607   0.000041   0.332479   0.000072   0.000197  -0.000006
    16  H   -0.005302   0.000054   0.000072   0.363846  -0.000064  -0.000000
    17  H   -0.006274   0.000091   0.000197  -0.000064   0.309334   0.000300
    18  H    0.000081  -0.000000  -0.000006  -0.000000   0.000300   0.340546
 Mulliken charges:
               1
     1  Si   2.112169
     2  O   -1.011034
     3  O   -0.882842
     4  O   -0.865797
     5  O   -0.979740
     6  H    0.437442
     7  H    0.373162
     8  H    0.377760
     9  Si   1.993138
    10  O   -0.827774
    11  O   -0.841734
    12  O   -0.902413
    13  O   -0.971345
    14  H    0.383379
    15  H    0.399661
    16  H    0.371930
    17  H    0.434762
    18  H    0.399277
 Sum of Mulliken charges =  -0.00000
 Mulliken charges with hydrogens summed into heavy atoms:
               1
     1  Si   2.112169
     2  O   -0.611758
     3  O   -0.505082
     4  O   -0.492635
     5  O   -0.542298
     9  Si   1.993138
    10  O   -0.455844
    11  O   -0.406972
    12  O   -0.502752
    13  O   -0.587966
 Electronic spatial extent (au):  <R**2>=           2550.1592
 Charge=              0.0000 electrons
 Dipole moment (field-independent basis, Debye):
    X=             -2.6100    Y=             -0.2699    Z=             -1.4579  Tot=              3.0017
 Quadrupole moment (field-independent basis, Debye-Ang):
   XX=            -69.9902   YY=            -69.5220   ZZ=            -71.3248
   XY=             -3.6722   XZ=             -5.8166   YZ=             -2.7038
 Traceless Quadrupole moment (field-independent basis, Debye-Ang):
   XX=              0.2888   YY=              0.7570   ZZ=             -1.0458
   XY=             -3.6722   XZ=             -5.8166   YZ=             -2.7038
 Octapole moment (field-independent basis, Debye-Ang**2):
  XXX=             -8.8233  YYY=              3.3940  ZZZ=             -5.6736  XYY=            -14.5268
  XXY=            -24.1558  XXZ=            -32.9397  XZZ=             -9.9928  YZZ=              3.1622
  YYZ=              7.1839  XYZ=             -8.3510
 Hexadecapole moment (field-independent basis, Debye-Ang**3):
 XXXX=          -2141.9990 YYYY=           -352.4083 ZZZZ=           -327.2704 XXXY=           -128.5454
 XXXZ=             46.2798 YYYX=              7.3234 YYYZ=             -5.2006 ZZZX=            -11.7428
 ZZZY=            -18.5315 XXYY=           -462.5778 XXZZ=           -432.1138 YYZZ=           -103.2244
 XXYZ=             14.0174 YYXZ=            -55.5913 ZZXY=             13.7917
 N-N= 8.386792977129D+02 E-N=-4.486881871029D+03  KE= 1.178193568846D+03
 1\1\GINC-GRA1215\FOpt\RB3LYP\6-31+G(d,p)\H8O8Si2\SARASHS\29-Jul-2020\0
 \\#n B3LYP/6-31+G(d,p) EmpiricalDispersion=GD3 Opt=modredundant\\Title
 \\0,1\Si,-6.5934707598,-0.5135908954,-0.2252933873\O,-5.2480408053,-0.
 5465014198,0.7591585393\O,-6.9052158342,1.0834647767,-0.4751336434\O,-
 7.9464017486,-1.1736796687,0.4407237265\O,-6.1981545505,-1.4118157536,
 -1.5425762354\H,-5.3497288077,-1.2205547387,-1.9950558334\H,-8.0554852
 009,-2.1294841219,0.3820174636\H,-7.8043235326,1.3193254083,-0.7310553
 97\Si,-3.0918000353,-2.7594746821,-1.3135631738\O,-1.6577265174,-3.445
 9538698,-1.7143686178\O,-2.8922308946,-2.1293038696,0.1836464783\O,-4.
 2946469642,-3.8725194839,-1.4822873199\O,-3.5524982989,-1.5198400849,-
 2.3640957671\H,-2.9574014023,-0.7607324844,-2.4021791782\H,-5.19233273
 09,-3.5177213835,-1.5494677604\H,-1.6880110323,-4.1406248365,-2.381377
 2075\H,-3.6335140291,-1.5835604002,0.503383856\H,-5.2112668554,0.12162
 75078,1.4547434573\\Version=ES64L-G16RevB.01\State=1-A\HF=-1186.069847
 \RMSD=7.362e-09\RMSF=5.280e-04\Dipole=-0.8739629,0.7465706,-0.2711638\
 Quadrupole=-1.9246523,1.2687041,0.6559482,1.7043021,-4.4648938,2.22887
 64\PG=C01 [X(H8O8Si2)]\\@


 VIRTUE IS LEARNED AT YOUR MOTHER'S KNEE,
 VICES ARE PICKED UP AT SOME OTHER JOINT.
 Job cpu time:       0 days  1 hours 57 minutes 32.1 seconds.
 Elapsed time:       0 days  0 hours  7 minutes 33.5 seconds.
 File lengths (MBytes):  RWF=     40 Int=      0 D2E=      0 Chk=      5 Scr=      1
 Normal termination of Gaussian 16 at Wed Jul 29 17:38:08 2020.
