LAMMPS (3 Mar 2020)
OMP_NUM_THREADS environment is not set. Defaulting to 1 thread. (src/comm.cpp:94)
  using 1 OpenMP thread(s) per MPI task
# 1.- Inizialization #######################
units real
  #mass = grams/mole
  #distance = Angstroms
  #time = femtoseconds
  #energy = kcal/mol
  #velocity = Angstroms/femtosecond
  #force = kcal/mol.Angstrom
  #torque = kcal/mole
  #temperature = degrees K
  #pressure = atmospheres (0.1013 GPa)
  #dynamic viscosity = Poise
  #charge = multiple of electron charge (+1.0 is a proton)
  #dipole = charge*Angstroms
  #electric field = volts/Angstrom
dimension 3
processors * * *
##
boundary p p p
atom_style charge

# 2.- Atom definition ######################

atom_modify map hash
read_data   Cl2_314.data
  orthogonal box = (0 0 0) to (100 100 100)
  1 by 1 by 1 MPI processor grid
  reading atoms ...
  2 atoms
  read_data CPU = 0.0007151 secs

# 3.- Force-Field ##########################

pair_style reax/c NULL
pair_coeff * * annealer_0.reax Cl
fix 99 all qeq/reax 1 0.0 10.0 1.0e-6 reax/c
neighbor        2.0 bin
neigh_modify    every 10 check yes

## 4.- MD & relax parameters ################

dump DUMP2 all custom 1000000 Cl2_314annealer_0.lammpstrj id type x y z q #this size
thermo_style custom step etotal ke pe temp press pxx pyy pzz
thermo 1000000
fix holdem all restrain bond 1 2 2000 2000 3.14
fix_modify holdem energy yes
min_style cg
minimize 1.0e-7 1.0e-9 20000 20000
WARNING: Using 'neigh_modify every 1 delay 0 check yes' setting during minimization (src/min.cpp:190)
Neighbor list info ...
  update every 1 steps, delay 0 steps, check yes
  max neighbors/atom: 2000, page size: 100000
  master list distance cutoff = 12
  ghost atom cutoff = 12
  binsize = 6, bins = 17 17 17
  2 neighbor lists, perpetual/occasional/extra = 2 0 0
  (1) pair reax/c, perpetual
      attributes: half, newton off, ghost
      pair build: half/bin/newtoff/ghost
      stencil: half/ghost/bin/3d/newtoff
      bin: standard
  (2) fix qeq/reax, perpetual, copy from (1)
      attributes: half, newton off, ghost
      pair build: copy
      stencil: none
      bin: none
Per MPI rank memory allocation (min/avg/max) = 9.757 | 9.757 | 9.757 Mbytes
Step TotEng KinEng PotEng Temp Press Pxx Pyy Pzz 
       0   -38.543777            0   -38.543777            0   -5.9399366            0            0    -17.81981 
       3   -39.431291            0   -39.431291            0   -6.0105062            0            0   -18.031519 
Loop time of 0.0003121 on 1 procs for 3 steps with 2 atoms

0.0% CPU use with 1 MPI tasks x 1 OpenMP threads

Minimization stats:
  Stopping criterion = energy tolerance
  Energy initial, next-to-last, final = 
        -38.5437765632     -39.4312910668     -39.4312910679
  Force two-norm initial, final = 118.06 7.07429e-07
  Force max component initial, final = 83.4807 5.00228e-07
  Final line search alpha, max atom move = 1 5.00228e-07
  Iterations, force evaluations = 3 6

MPI task timing breakdown:
Section |  min time  |  avg time  |  max time  |%varavg| %total
---------------------------------------------------------------
Pair    | 5.04e-05   | 5.04e-05   | 5.04e-05   |   0.0 | 16.15
Neigh   | 0          | 0          | 0          |   0.0 |  0.00
Comm    | 1.23e-05   | 1.23e-05   | 1.23e-05   |   0.0 |  3.94
Output  | 0          | 0          | 0          |   0.0 |  0.00
Modify  | 3.39e-05   | 3.39e-05   | 3.39e-05   |   0.0 | 10.86
Other   |            | 0.0002155  |            |       | 69.05

Nlocal:    2 ave 2 max 2 min
Histogram: 1 0 0 0 0 0 0 0 0 0
Nghost:    14 ave 14 max 14 min
Histogram: 1 0 0 0 0 0 0 0 0 0
Neighs:    2 ave 2 max 2 min
Histogram: 1 0 0 0 0 0 0 0 0 0

Total # of neighbors = 2
Ave neighs/atom = 1
Neighbor list builds = 0
Dangerous builds = 0
unundump DUMP2
WARNING: lammps_gather_atoms: unknown property name (src/library.cpp:850)

Please see the log.cite file for references relevant to this simulation

Total wall time: 15:51:03
