 Entering Gaussian System, Link 0=g16
 Initial command:
 /opt/software/gaussian/g16.b01/l1.exe "/localscratch/sarashs.37242645.0/Gau-27195.inp" -scrdir="/localscratch/sarashs.37242645.0/"
 Entering Link 1 = /opt/software/gaussian/g16.b01/l1.exe PID=     27196.
  
 Copyright (c) 1988-2017, Gaussian, Inc.  All Rights Reserved.
  
 This is part of the Gaussian(R) 16 program.  It is based on
 the Gaussian(R) 09 system (copyright 2009, Gaussian, Inc.),
 the Gaussian(R) 03 system (copyright 2003, Gaussian, Inc.),
 the Gaussian(R) 98 system (copyright 1998, Gaussian, Inc.),
 the Gaussian(R) 94 system (copyright 1995, Gaussian, Inc.),
 the Gaussian 92(TM) system (copyright 1992, Gaussian, Inc.),
 the Gaussian 90(TM) system (copyright 1990, Gaussian, Inc.),
 the Gaussian 88(TM) system (copyright 1988, Gaussian, Inc.),
 the Gaussian 86(TM) system (copyright 1986, Carnegie Mellon
 University), and the Gaussian 82(TM) system (copyright 1983,
 Carnegie Mellon University). Gaussian is a federally registered
 trademark of Gaussian, Inc.
  
 This software contains proprietary and confidential information,
 including trade secrets, belonging to Gaussian, Inc.
  
 This software is provided under written license and may be
 used, copied, transmitted, or stored only in accord with that
 written license.
  
 The following legend is applicable only to US Government
 contracts under FAR:
  
                    RESTRICTED RIGHTS LEGEND
  
 Use, reproduction and disclosure by the US Government is
 subject to restrictions as set forth in subparagraphs (a)
 and (c) of the Commercial Computer Software - Restricted
 Rights clause in FAR 52.227-19.
  
 Gaussian, Inc.
 340 Quinnipiac St., Bldg. 40, Wallingford CT 06492
  
  
 ---------------------------------------------------------------
 Warning -- This program may not be used in any manner that
 competes with the business of Gaussian, Inc. or will provide
 assistance to any competitor of Gaussian, Inc.  The licensee
 of this program is prohibited from giving any competitor of
 Gaussian, Inc. access to this program.  By using this program,
 the user acknowledges that Gaussian, Inc. is engaged in the
 business of creating and licensing software in the field of
 computational chemistry and represents and warrants to the
 licensee that it is not a competitor of Gaussian, Inc. and that
 it will not use this program in any manner prohibited above.
 ---------------------------------------------------------------
  

 Cite this work as:
 Gaussian 16, Revision B.01,
 M. J. Frisch, G. W. Trucks, H. B. Schlegel, G. E. Scuseria, 
 M. A. Robb, J. R. Cheeseman, G. Scalmani, V. Barone, 
 G. A. Petersson, H. Nakatsuji, X. Li, M. Caricato, A. V. Marenich, 
 J. Bloino, B. G. Janesko, R. Gomperts, B. Mennucci, H. P. Hratchian, 
 J. V. Ortiz, A. F. Izmaylov, J. L. Sonnenberg, D. Williams-Young, 
 F. Ding, F. Lipparini, F. Egidi, J. Goings, B. Peng, A. Petrone, 
 T. Henderson, D. Ranasinghe, V. G. Zakrzewski, J. Gao, N. Rega, 
 G. Zheng, W. Liang, M. Hada, M. Ehara, K. Toyota, R. Fukuda, 
 J. Hasegawa, M. Ishida, T. Nakajima, Y. Honda, O. Kitao, H. Nakai, 
 T. Vreven, K. Throssell, J. A. Montgomery, Jr., J. E. Peralta, 
 F. Ogliaro, M. J. Bearpark, J. J. Heyd, E. N. Brothers, K. N. Kudin, 
 V. N. Staroverov, T. A. Keith, R. Kobayashi, J. Normand, 
 K. Raghavachari, A. P. Rendell, J. C. Burant, S. S. Iyengar, 
 J. Tomasi, M. Cossi, J. M. Millam, M. Klene, C. Adamo, R. Cammi, 
 J. W. Ochterski, R. L. Martin, K. Morokuma, O. Farkas, 
 J. B. Foresman, and D. J. Fox, Gaussian, Inc., Wallingford CT, 2016.
 
 ******************************************
 Gaussian 16:  ES64L-G16RevB.01 20-Dec-2017
                14-Aug-2020 
 ******************************************
 %NProcShared=16
 Will use up to   16 processors via shared memory.
 ------------------------------------------------------------------
 #n B3LYP/Gen Pseudo=cards EmpiricalDispersion=GD3 Opt=modredundant
 ------------------------------------------------------------------
 1/18=120,19=15,26=3,38=1/1,3;
 2/9=110,12=2,17=6,18=5,40=1/2;
 3/5=7,11=2,16=1,17=8,25=1,30=1,71=1,74=-5,124=31/1,2,3;
 4//1;
 5/5=2,38=5/2;
 6/7=2,8=2,9=2,10=2,28=1/1;
 7//1,2,3,16;
 1/18=20,19=15,26=3/3(2);
 2/9=110/2;
 99//99;
 2/9=110/2;
 3/5=7,6=1,11=2,16=1,17=8,25=1,30=1,71=1,74=-5,82=7,124=31/1,2,3;
 4/5=5,16=3,69=1/1;
 5/5=2,38=5/2;
 7//1,2,3,16;
 1/18=20,19=15,26=3/3(-5);
 2/9=110/2;
 6/7=2,8=2,9=2,10=2,19=2,28=1/1;
 99/9=1/99;
 -----
 Title
 -----
 Symbolic Z-matrix:
 Charge =  0 Multiplicity = 1
 Zr                    0.659    -0.11822  -0.10475 
 O                    -0.23506  -0.79684   1.48432 
 O                     0.11194   1.74926  -0.27816 
 O                    -0.26019  -1.06348  -1.57955 
 O                     2.59206  -0.4363   -0.08284 
 Si                   -1.82204  -1.43344  -1.92388 
 Si                   -1.10252   2.8481   -0.31564 
 Si                   -1.74117  -0.99745   2.12607 
 Si                    4.21631  -0.26105   0.01252 
 O                     4.95566  -0.09972  -1.45475 
 O                     4.89877  -1.60704   0.69775 
 O                     4.44778   1.12944   0.86985 
 O                    -2.33961  -2.48998   1.79684 
 O                    -2.73304   0.18593   1.479 
 O                    -1.62516  -0.76183   3.74444 
 O                    -1.98229  -1.76227  -3.53164 
 O                    -2.81578  -0.24536  -1.35233 
 O                    -2.3459   -2.76209  -1.07084 
 O                    -2.02      2.36482  -1.64136 
 O                    -0.61511   4.38835  -0.62745 
 O                    -1.96217   2.85866   1.07737 
 H                     5.33501   1.50516   0.85865 
 H                     5.3042   -0.91111  -1.84112 
 H                     4.46373  -1.97795   1.47352 
 H                    -2.42048  -2.73502   0.85753 
 H                    -2.41346  -0.93041   4.27184 
 H                    -3.06367  -0.01795   0.58288 
 H                    -0.51006   4.96427   0.13842 
 H                    -2.27107   1.98713   1.40256 
 H                    -2.62335   3.0338   -1.9883 
 H                    -2.30571  -3.60815  -1.53087 
 H                    -1.24713  -1.50386  -4.09859 
 H                    -2.596     0.68146  -1.59842 
 
 The following ModRedundant input section has been read:
 A       1       5       9 F                                                   
 

 GradGradGradGradGradGradGradGradGradGradGradGradGradGradGradGradGradGrad
 Berny optimization.
 Initialization pass.
                           ----------------------------
                           !    Initial Parameters    !
                           ! (Angstroms and Degrees)  !
 --------------------------                            --------------------------
 ! Name  Definition              Value          Derivative Info.                !
 --------------------------------------------------------------------------------
 ! R1    R(1,2)                  1.9455         estimate D2E/DX2                !
 ! R2    R(1,3)                  1.9537         estimate D2E/DX2                !
 ! R3    R(1,4)                  1.9782         estimate D2E/DX2                !
 ! R4    R(1,5)                  1.9592         estimate D2E/DX2                !
 ! R5    R(2,8)                  1.6494         estimate D2E/DX2                !
 ! R6    R(3,7)                  1.6382         estimate D2E/DX2                !
 ! R7    R(4,6)                  1.6416         estimate D2E/DX2                !
 ! R8    R(5,9)                  1.6365         estimate D2E/DX2                !
 ! R9    R(6,16)                 1.6488         estimate D2E/DX2                !
 ! R10   R(6,17)                 1.651          estimate D2E/DX2                !
 ! R11   R(6,18)                 1.6636         estimate D2E/DX2                !
 ! R12   R(7,19)                 1.6831         estimate D2E/DX2                !
 ! R13   R(7,20)                 1.6453         estimate D2E/DX2                !
 ! R14   R(7,21)                 1.6369         estimate D2E/DX2                !
 ! R15   R(8,13)                 1.6414         estimate D2E/DX2                !
 ! R16   R(8,14)                 1.6742         estimate D2E/DX2                !
 ! R17   R(8,15)                 1.6395         estimate D2E/DX2                !
 ! R18   R(9,10)                 1.6509         estimate D2E/DX2                !
 ! R19   R(9,11)                 1.6574         estimate D2E/DX2                !
 ! R20   R(9,12)                 1.6499         estimate D2E/DX2                !
 ! R21   R(10,23)                0.9639         estimate D2E/DX2                !
 ! R22   R(11,24)                0.9637         estimate D2E/DX2                !
 ! R23   R(12,22)                0.9636         estimate D2E/DX2                !
 ! R24   R(13,25)                0.9741         estimate D2E/DX2                !
 ! R25   R(14,27)                0.9767         estimate D2E/DX2                !
 ! R26   R(15,26)                0.9633         estimate D2E/DX2                !
 ! R27   R(16,32)                0.9637         estimate D2E/DX2                !
 ! R28   R(17,33)                0.9838         estimate D2E/DX2                !
 ! R29   R(18,31)                0.9639         estimate D2E/DX2                !
 ! R30   R(19,30)                0.9654         estimate D2E/DX2                !
 ! R31   R(20,28)                0.964          estimate D2E/DX2                !
 ! R32   R(21,29)                0.9802         estimate D2E/DX2                !
 ! A1    A(2,1,3)              106.0957         estimate D2E/DX2                !
 ! A2    A(2,1,4)              103.2218         estimate D2E/DX2                !
 ! A3    A(2,1,5)              112.8089         estimate D2E/DX2                !
 ! A4    A(3,1,4)              105.0977         estimate D2E/DX2                !
 ! A5    A(3,1,5)              115.6243         estimate D2E/DX2                !
 ! A6    A(4,1,5)              112.9056         estimate D2E/DX2                !
 ! A7    A(1,2,8)              141.2476         estimate D2E/DX2                !
 ! A8    A(1,3,7)              148.2961         estimate D2E/DX2                !
 ! A9    A(1,4,6)              134.9217         estimate D2E/DX2                !
 ! A10   A(1,5,9)              164.275          Frozen                          !
 ! A11   A(4,6,16)             109.9951         estimate D2E/DX2                !
 ! A12   A(4,6,17)             109.7477         estimate D2E/DX2                !
 ! A13   A(4,6,18)             111.8419         estimate D2E/DX2                !
 ! A14   A(16,6,17)            114.9974         estimate D2E/DX2                !
 ! A15   A(16,6,18)            108.0663         estimate D2E/DX2                !
 ! A16   A(17,6,18)            101.9868         estimate D2E/DX2                !
 ! A17   A(3,7,19)             103.2694         estimate D2E/DX2                !
 ! A18   A(3,7,20)             114.3705         estimate D2E/DX2                !
 ! A19   A(3,7,21)             111.9731         estimate D2E/DX2                !
 ! A20   A(19,7,20)            106.3202         estimate D2E/DX2                !
 ! A21   A(19,7,21)            112.6978         estimate D2E/DX2                !
 ! A22   A(20,7,21)            108.1075         estimate D2E/DX2                !
 ! A23   A(2,8,13)             111.437          estimate D2E/DX2                !
 ! A24   A(2,8,14)             107.7362         estimate D2E/DX2                !
 ! A25   A(2,8,15)             107.576          estimate D2E/DX2                !
 ! A26   A(13,8,14)            110.4389         estimate D2E/DX2                !
 ! A27   A(13,8,15)            110.7606         estimate D2E/DX2                !
 ! A28   A(14,8,15)            108.7747         estimate D2E/DX2                !
 ! A29   A(5,9,10)             113.7768         estimate D2E/DX2                !
 ! A30   A(5,9,11)             110.2316         estimate D2E/DX2                !
 ! A31   A(5,9,12)             105.0573         estimate D2E/DX2                !
 ! A32   A(10,9,11)            105.2125         estimate D2E/DX2                !
 ! A33   A(10,9,12)            108.46           estimate D2E/DX2                !
 ! A34   A(11,9,12)            114.3199         estimate D2E/DX2                !
 ! A35   A(9,10,23)            115.8441         estimate D2E/DX2                !
 ! A36   A(9,11,24)            117.3556         estimate D2E/DX2                !
 ! A37   A(9,12,22)            116.857          estimate D2E/DX2                !
 ! A38   A(8,13,25)            116.8992         estimate D2E/DX2                !
 ! A39   A(8,14,27)            114.0557         estimate D2E/DX2                !
 ! A40   A(8,15,26)            117.2169         estimate D2E/DX2                !
 ! A41   A(6,16,32)            116.4899         estimate D2E/DX2                !
 ! A42   A(6,17,33)            117.1861         estimate D2E/DX2                !
 ! A43   A(6,18,31)            116.3076         estimate D2E/DX2                !
 ! A44   A(7,19,30)            115.1372         estimate D2E/DX2                !
 ! A45   A(7,20,28)            116.1672         estimate D2E/DX2                !
 ! A46   A(7,21,29)            116.2377         estimate D2E/DX2                !
 ! D1    D(3,1,2,8)             57.7298         estimate D2E/DX2                !
 ! D2    D(4,1,2,8)            -52.5295         estimate D2E/DX2                !
 ! D3    D(5,1,2,8)           -174.7064         estimate D2E/DX2                !
 ! D4    D(2,1,3,7)            -50.0988         estimate D2E/DX2                !
 ! D5    D(4,1,3,7)             58.8309         estimate D2E/DX2                !
 ! D6    D(5,1,3,7)           -175.9645         estimate D2E/DX2                !
 ! D7    D(2,1,4,6)             42.7681         estimate D2E/DX2                !
 ! D8    D(3,1,4,6)            -68.2312         estimate D2E/DX2                !
 ! D9    D(5,1,4,6)            164.8801         estimate D2E/DX2                !
 ! D10   D(2,1,5,9)           -106.9253         estimate D2E/DX2                !
 ! D11   D(3,1,5,9)             15.4374         estimate D2E/DX2                !
 ! D12   D(4,1,5,9)            136.5197         estimate D2E/DX2                !
 ! D13   D(1,2,8,13)            93.5301         estimate D2E/DX2                !
 ! D14   D(1,2,8,14)           -27.7662         estimate D2E/DX2                !
 ! D15   D(1,2,8,15)          -144.8805         estimate D2E/DX2                !
 ! D16   D(1,3,7,19)           -61.1008         estimate D2E/DX2                !
 ! D17   D(1,3,7,20)          -176.1745         estimate D2E/DX2                !
 ! D18   D(1,3,7,21)            60.41           estimate D2E/DX2                !
 ! D19   D(1,4,6,16)           160.1672         estimate D2E/DX2                !
 ! D20   D(1,4,6,17)            32.6926         estimate D2E/DX2                !
 ! D21   D(1,4,6,18)           -79.7415         estimate D2E/DX2                !
 ! D22   D(1,5,9,10)           -96.4777         estimate D2E/DX2                !
 ! D23   D(1,5,9,11)           145.62           estimate D2E/DX2                !
 ! D24   D(1,5,9,12)            22.0012         estimate D2E/DX2                !
 ! D25   D(4,6,16,32)          -14.1998         estimate D2E/DX2                !
 ! D26   D(17,6,16,32)         110.2979         estimate D2E/DX2                !
 ! D27   D(18,6,16,32)        -136.553          estimate D2E/DX2                !
 ! D28   D(4,6,17,33)           51.0097         estimate D2E/DX2                !
 ! D29   D(16,6,17,33)         -73.6177         estimate D2E/DX2                !
 ! D30   D(18,6,17,33)         169.7163         estimate D2E/DX2                !
 ! D31   D(4,6,18,31)          -96.443          estimate D2E/DX2                !
 ! D32   D(16,6,18,31)          24.771          estimate D2E/DX2                !
 ! D33   D(17,6,18,31)         146.3489         estimate D2E/DX2                !
 ! D34   D(3,7,19,30)         -162.1835         estimate D2E/DX2                !
 ! D35   D(20,7,19,30)         -41.4661         estimate D2E/DX2                !
 ! D36   D(21,7,19,30)          76.796          estimate D2E/DX2                !
 ! D37   D(3,7,20,28)          -98.4262         estimate D2E/DX2                !
 ! D38   D(19,7,20,28)         148.2953         estimate D2E/DX2                !
 ! D39   D(21,7,20,28)          27.0457         estimate D2E/DX2                !
 ! D40   D(3,7,21,29)          -49.9002         estimate D2E/DX2                !
 ! D41   D(19,7,21,29)          66.0155         estimate D2E/DX2                !
 ! D42   D(20,7,21,29)        -176.7756         estimate D2E/DX2                !
 ! D43   D(2,8,13,25)          -58.4675         estimate D2E/DX2                !
 ! D44   D(14,8,13,25)          61.2411         estimate D2E/DX2                !
 ! D45   D(15,8,13,25)        -178.1889         estimate D2E/DX2                !
 ! D46   D(2,8,14,27)           80.2922         estimate D2E/DX2                !
 ! D47   D(13,8,14,27)         -41.6248         estimate D2E/DX2                !
 ! D48   D(15,8,14,27)        -163.3752         estimate D2E/DX2                !
 ! D49   D(2,8,15,26)         -174.1992         estimate D2E/DX2                !
 ! D50   D(13,8,15,26)         -52.1889         estimate D2E/DX2                !
 ! D51   D(14,8,15,26)          69.3654         estimate D2E/DX2                !
 ! D52   D(5,9,10,23)          -94.8502         estimate D2E/DX2                !
 ! D53   D(11,9,10,23)          25.9079         estimate D2E/DX2                !
 ! D54   D(12,9,10,23)         148.64           estimate D2E/DX2                !
 ! D55   D(5,9,11,24)          -43.8205         estimate D2E/DX2                !
 ! D56   D(10,9,11,24)        -166.8799         estimate D2E/DX2                !
 ! D57   D(12,9,11,24)          74.2393         estimate D2E/DX2                !
 ! D58   D(5,9,12,22)         -166.4771         estimate D2E/DX2                !
 ! D59   D(10,9,12,22)         -44.4742         estimate D2E/DX2                !
 ! D60   D(11,9,12,22)          72.5545         estimate D2E/DX2                !
 --------------------------------------------------------------------------------
 Trust Radius=3.00D-01 FncErr=1.00D-07 GrdErr=1.00D-06 EigMax=2.50D+02 EigMin=1.00D-04
 Number of steps in this run=    148 maximum allowed number of steps=    198.
 GradGradGradGradGradGradGradGradGradGradGradGradGradGradGradGradGradGrad

                          Input orientation:                          
 ---------------------------------------------------------------------
 Center     Atomic      Atomic             Coordinates (Angstroms)
 Number     Number       Type             X           Y           Z
 ---------------------------------------------------------------------
      1         40           0        0.659000   -0.118220   -0.104750
      2          8           0       -0.235060   -0.796840    1.484320
      3          8           0        0.111940    1.749260   -0.278160
      4          8           0       -0.260190   -1.063480   -1.579550
      5          8           0        2.592060   -0.436300   -0.082840
      6         14           0       -1.822040   -1.433440   -1.923880
      7         14           0       -1.102520    2.848100   -0.315640
      8         14           0       -1.741170   -0.997450    2.126070
      9         14           0        4.216310   -0.261050    0.012520
     10          8           0        4.955660   -0.099720   -1.454750
     11          8           0        4.898770   -1.607040    0.697750
     12          8           0        4.447780    1.129440    0.869850
     13          8           0       -2.339610   -2.489980    1.796840
     14          8           0       -2.733040    0.185930    1.479000
     15          8           0       -1.625160   -0.761830    3.744440
     16          8           0       -1.982290   -1.762270   -3.531640
     17          8           0       -2.815780   -0.245360   -1.352330
     18          8           0       -2.345900   -2.762090   -1.070840
     19          8           0       -2.020000    2.364820   -1.641360
     20          8           0       -0.615110    4.388350   -0.627450
     21          8           0       -1.962170    2.858660    1.077370
     22          1           0        5.335010    1.505160    0.858650
     23          1           0        5.304200   -0.911110   -1.841120
     24          1           0        4.463730   -1.977950    1.473520
     25          1           0       -2.420480   -2.735020    0.857530
     26          1           0       -2.413460   -0.930410    4.271840
     27          1           0       -3.063670   -0.017950    0.582880
     28          1           0       -0.510060    4.964270    0.138420
     29          1           0       -2.271070    1.987130    1.402560
     30          1           0       -2.623350    3.033800   -1.988300
     31          1           0       -2.305710   -3.608150   -1.530870
     32          1           0       -1.247130   -1.503860   -4.098590
     33          1           0       -2.596000    0.681460   -1.598420
 ---------------------------------------------------------------------
                    Distance matrix (angstroms):
                    1          2          3          4          5
     1  Zr   0.000000
     2  O    1.945511   0.000000
     3  O    1.953670   3.115986   0.000000
     4  O    1.978247   3.075553   3.121474   0.000000
     5  O    1.959177   3.252474   3.311468   3.281589   0.000000
     6  Si   3.345833   3.813082   4.071640   1.641587   4.885488
     7  Si   3.456368   4.156673   1.638221   4.196123   4.948879
     8  Si   3.392701   1.649380   4.093746   3.991150   4.896024
     9  Si   3.562107   4.718894   4.579486   4.818468   1.636458
    10  O    4.503791   6.005638   5.316457   5.305610   2.753548
    11  O    4.564673   5.256551   5.927132   5.665370   2.702011
    12  O    4.106258   5.100698   4.527871   5.742250   2.608229
    13  O    4.270006   2.719103   5.318541   4.214131   5.663229
    14  O    3.755890   2.684356   3.691277   4.126832   5.584192
    15  O    4.521934   2.653629   5.050188   5.504453   5.704295
    16  O    4.628487   5.398585   5.225110   2.695291   5.880229
    17  O    3.694146   3.874381   3.701877   2.692952   5.558129
    18  O    4.117378   3.853141   5.198230   2.737562   5.546971
    19  O    3.962789   4.790822   2.604303   3.854088   5.616614
    20  O    4.712297   5.611613   2.759602   5.545711   5.818916
    21  O    4.138811   4.063397   2.714804   5.033800   5.739674
    22  H    5.042675   6.059402   5.350923   6.621857   3.489906
    23  H    5.022105   6.461812   6.039866   5.572618   3.266909
    24  H    4.519458   4.844973   5.991540   5.698501   2.881335
    25  H    4.154133   2.987552   5.273681   3.660636   5.594101
    26  H    5.408715   3.540273   5.853271   6.236429   6.653015
    27  H    3.786973   3.069250   3.734825   3.691712   5.710121
    28  H    5.220875   5.922623   3.301017   6.272769   6.232035
    29  H    3.910216   3.450002   2.925771   4.716232   5.632891
    30  H    4.925121   5.695333   3.472237   4.747558   6.547738
    31  H    4.796138   4.613288   6.009672   3.265251   6.012119
    32  H    4.637250   5.717783   5.198610   2.741085   5.657324
    33  H    3.669545   4.154840   3.196283   2.915678   5.519270
                    6          7          8          9         10
     6  Si   0.000000
     7  Si   4.629874   0.000000
     8  Si   4.074153   4.599791   0.000000
     9  Si   6.448706   6.169640   6.364035   0.000000
    10  O    6.923591   6.832917   7.646942   1.650923   0.000000
    11  O    7.216119   7.542593   6.819128   1.657402   2.628404
    12  O    7.326931   5.930009   6.663697   1.649865   2.678160
    13  O    3.902296   5.872654   1.641392   7.150665   8.337095
    14  O    3.877096   3.600900   1.674185   7.116447   8.234354
    15  O    5.711364   5.457930   1.639542   6.949876   8.412916
    16  O    1.648849   5.689654   5.714260   7.296395   7.430525
    17  O    1.650976   3.685035   3.717485   7.163334   7.773479
    18  O    1.663556   5.795736   3.701336   7.105735   7.781284
    19  O    3.813894   1.683111   5.057285   6.965779   7.400582
    20  O    6.085281   1.645346   6.152782   6.735659   7.201436
    21  O    5.239204   1.636944   4.002274   7.002864   7.938515
    22  H    8.221995   6.680138   7.611947   2.255421   2.841015
    23  H    7.145836   7.583193   8.085993   2.245454   0.963906
    24  H    7.165872   7.581226   6.315694   2.267925   3.513475
    25  H    3.128655   5.855303   2.256060   7.133131   8.166939
    26  H    6.244178   6.086105   2.249622   7.908457   9.369515
    27  H    3.135140   3.587156   2.256072   7.306334   8.274556
    28  H    6.848727   2.243960   6.403787   7.046871   7.619467
    29  H    4.792403   2.249220   3.116405   7.005185   8.046415
    30  H    4.538996   2.268303   5.827286   7.851132   8.218577
    31  H    2.262246   6.678893   4.528540   7.491454   8.064885
    32  H    2.250521   5.768117   6.264736   6.949459   6.887387
    33  H    2.275465   2.927514   4.173883   7.063358   7.593316
                   11         12         13         14         15
    11  O    0.000000
    12  O    2.778729   0.000000
    13  O    7.374397   7.747785   0.000000
    14  O    7.878427   7.268112   2.723289   0.000000
    15  O    7.249715   6.980027   2.700016   2.694043   0.000000
    16  O    8.078417   8.311492   5.389799   5.428225   7.353214
    17  O    8.097610   7.719292   3.896451   2.865185   5.259409
    18  O    7.546343   8.066249   2.880568   3.916935   5.263785
    19  O    8.313633   7.047306   5.957554   3.872032   6.240087
    20  O    8.252498   6.204455   7.494165   5.155879   6.830664
    21  O    8.195065   6.642343   5.409995   2.810522   4.509411
    22  H    3.146742   0.963570   8.702938   8.198697   7.868354
    23  H    2.663560   3.499523   8.611354   8.764926   8.901505
    24  H    0.963666   3.165524   6.830238   7.515045   6.611400
    25  H    7.407381   7.880812   0.974109   3.002643   3.586121
    26  H    8.167047   7.930519   2.926318   3.024616   0.963321
    27  H    8.120274   7.603995   2.847612   0.976685   3.552201
    28  H    8.529385   6.310395   7.852608   5.437953   6.858210
    29  H    8.051175   6.794289   4.494960   1.861070   3.668567
    30  H    9.237670   7.861074   6.702234   4.488270   6.947481
    31  H    7.802289   8.591731   3.510713   4.861787   6.032709
    32  H    7.796641   8.003228   6.076351   6.014385   7.887118
    33  H    8.165856   7.477157   4.653123   3.120071   5.618876
                   16         17         18         19         20
    16  O    0.000000
    17  O    2.783004   0.000000
    18  O    2.680931   2.575646   0.000000
    19  O    4.539543   2.744056   5.168840   0.000000
    20  O    6.937840   5.180701   7.370280   2.663907   0.000000
    21  O    6.526590   4.033241   6.029501   2.763823   2.657242
    22  H    9.137485   8.624855   8.996040   7.815705   6.776814
    23  H    7.528298   8.161876   7.908444   8.025928   8.037133
    24  H    8.163903   7.998660   7.311614   8.402433   8.410616
    25  H    4.516975   3.352335   1.930002   5.693259   7.497128
    26  H    7.859529   5.680004   5.648349   6.780803   7.451598
    27  H    4.597968   1.964231   3.283335   3.422584   5.184190
    28  H    7.802765   5.888881   8.033010   3.493519   0.963990
    29  H    6.203848   3.587498   5.355222   3.077521   3.553731
    30  H    5.078892   3.345800   5.874611   0.965367   2.778443
    31  H    2.741342   3.405937   0.963878   5.980820   8.223035
    32  H    0.963674   3.403884   3.457992   4.647794   6.867780
    33  H    3.175814   0.983798   3.492696   1.779697   4.313669
                   21         22         23         24         25
    21  O    0.000000
    22  H    7.424866   0.000000
    23  H    8.690735   3.623268   0.000000
    24  H    8.052448   3.642698   3.582091   0.000000
    25  H    5.616728   8.838934   8.383319   6.953053   0.000000
    26  H    4.976480   8.810258   9.845351   7.498245   3.861888
    27  H    3.119729   8.540125   8.757554   7.829214   2.805636
    28  H    2.724673   6.830009   8.499664   8.643813   7.965293
    29  H    0.980170   7.640719   8.735329   7.815653   4.755847
    30  H    3.141045   8.589375   8.856073   9.344974   6.435774
    31  H    6.981444   9.499281   8.079666   7.583484   2.545581
    32  H    6.806866   8.772286   6.954671   7.992940   5.239812
    33  H    3.507391   8.343656   8.062775   8.145494   4.211275
                   26         27         28         29         30
    26  H    0.000000
    27  H    3.855358   0.000000
    28  H    7.446835   5.616136   0.000000
    29  H    4.094519   2.306607   3.682739   0.000000
    30  H    7.412717   4.014726   3.565901   3.566168   0.000000
    31  H    6.391662   4.234617   8.916124   6.317703   6.665256
    32  H    8.470730   5.236784   7.767383   6.595310   5.190151
    33  H    6.090271   2.337939   5.070525   3.288804   2.384588
                   31         32         33
    31  H    0.000000
    32  H    3.484511   0.000000
    33  H    4.299952   3.584121   0.000000
 Stoichiometry    H12O16Si4Zr
 Framework group  C1[X(H12O16Si4Zr)]
 Deg. of freedom    93
 Full point group                 C1      NOp   1
 Largest Abelian subgroup         C1      NOp   1
 Largest concise Abelian subgroup C1      NOp   1
                         Standard orientation:                         
 ---------------------------------------------------------------------
 Center     Atomic      Atomic             Coordinates (Angstroms)
 Number     Number       Type             X           Y           Z
 ---------------------------------------------------------------------
      1         40           0        0.657774   -0.125260   -0.071129
      2          8           0       -0.223375   -0.903983    1.478767
      3          8           0        0.103362    1.747308   -0.125373
      4          8           0       -0.268115   -0.981127   -1.595493
      5          8           0        2.591984   -0.436873   -0.081409
      6         14           0       -1.830995   -1.334955   -1.951890
      7         14           0       -1.114967    2.841829   -0.087083
      8         14           0       -1.724483   -1.149432    2.116642
      9         14           0        4.216244   -0.261784    0.014074
     10          8           0        4.945221   -0.007456   -1.445192
     11          8           0        4.907743   -1.644941    0.610469
     12          8           0        4.448821    1.074001    0.954096
     13          8           0       -2.320148   -2.621021    1.699777
     14          8           0       -2.724587    0.067917    1.550297
     15          8           0       -1.598432   -1.013704    3.745687
     16          8           0       -2.000904   -1.564534   -3.575813
     17          8           0       -2.824833   -0.188127   -1.301664
     18          8           0       -2.344718   -2.715661   -1.179131
     19          8           0       -2.039684    2.437865   -1.434144
     20          8           0       -0.634776    4.400193   -0.306357
     21          8           0       -1.965309    2.763195    1.309456
     22          1           0        5.334703    1.453003    0.960371
     23          1           0        5.293863   -0.792149   -1.883164
     24          1           0        4.479137   -2.064639    1.364660
     25          1           0       -2.406485   -2.807926    0.747674
     26          1           0       -2.382622   -1.217449    4.266764
     27          1           0       -3.060525   -0.081504    0.645458
     28          1           0       -0.526519    4.928139    0.492911
     29          1           0       -2.269128    1.872112    1.582214
     30          1           0       -2.647562    3.124725   -1.735210
     31          1           0       -2.304795   -3.531563   -1.690766
     32          1           0       -1.270416   -1.268888   -4.130475
     33          1           0       -2.609786    0.752927   -1.491483
 ---------------------------------------------------------------------
 Rotational constants (GHZ):           0.2123991           0.1338376           0.1240750
 General basis read from cards:  (5D, 7F)
 ======================================================================================================
                                       Pseudopotential Parameters
 ======================================================================================================
  Center     Atomic      Valence      Angular      Power
  Number     Number     Electrons     Momentum     of R      Exponent        Coefficient   SO-Coeffient
 ======================================================================================================
    1         40           12
                                      G and up 
                                                     2        1.0000000        0.00000000    0.00000000
                                      S - G
                                                     2        8.6365280      150.24299400    0.00000000
                                                     2        3.7176390       18.78003600    0.00000000
                                      P - G
                                                     2        7.6267280       33.19279100    0.00000000
                                                     2        7.4532070       66.38903900    0.00000000
                                                     2        3.3583890        4.62072600    0.00000000
                                                     2        3.2297380        9.26027000    0.00000000
                                      D - G
                                                     2        5.9380860       13.99338300    0.00000000
                                                     2        5.8255440       20.99588200    0.00000000
                                                     2        2.2050190        2.28516600    0.00000000
                                                     2        2.2062920        3.44126000    0.00000000
                                      F - G
                                                     2        4.8002150       -5.23932000    0.00000000
                                                     2        4.7989920       -6.98742400    0.00000000
    2          8
                                   No pseudopotential on this center.
    3          8
                                   No pseudopotential on this center.
    4          8
                                   No pseudopotential on this center.
    5          8
                                   No pseudopotential on this center.
    6         14
                                   No pseudopotential on this center.
    7         14
                                   No pseudopotential on this center.
    8         14
                                   No pseudopotential on this center.
    9         14
                                   No pseudopotential on this center.
   10          8
                                   No pseudopotential on this center.
   11          8
                                   No pseudopotential on this center.
   12          8
                                   No pseudopotential on this center.
   13          8
                                   No pseudopotential on this center.
   14          8
                                   No pseudopotential on this center.
   15          8
                                   No pseudopotential on this center.
   16          8
                                   No pseudopotential on this center.
   17          8
                                   No pseudopotential on this center.
   18          8
                                   No pseudopotential on this center.
   19          8
                                   No pseudopotential on this center.
   20          8
                                   No pseudopotential on this center.
   21          8
                                   No pseudopotential on this center.
   22          1
                                   No pseudopotential on this center.
   23          1
                                   No pseudopotential on this center.
   24          1
                                   No pseudopotential on this center.
   25          1
                                   No pseudopotential on this center.
   26          1
                                   No pseudopotential on this center.
   27          1
                                   No pseudopotential on this center.
   28          1
                                   No pseudopotential on this center.
   29          1
                                   No pseudopotential on this center.
   30          1
                                   No pseudopotential on this center.
   31          1
                                   No pseudopotential on this center.
   32          1
                                   No pseudopotential on this center.
   33          1
                                   No pseudopotential on this center.
 ======================================================================================================
 There are   570 symmetry adapted cartesian basis functions of A   symmetry.
 There are   524 symmetry adapted basis functions of A   symmetry.
   524 basis functions,  1074 primitive gaussians,   570 cartesian basis functions
   104 alpha electrons      104 beta electrons
       nuclear repulsion energy      2832.8430437294 Hartrees.
 NAtoms=   33 NActive=   33 NUniq=   33 SFac= 1.00D+00 NAtFMM=   60 NAOKFM=F Big=F
 Integral buffers will be    131072 words long.
 Raffenetti 2 integral format.
 Two-electron integral symmetry is turned on.
 Nuclear repulsion after empirical dispersion term =     2832.8022455600 Hartrees.
 One-electron integrals computed using PRISM.
 PrsmSu:  requested number of processors reduced to:   4 ShMem   1 Linda.
   1 Symmetry operations used in ECPInt.
 ECPInt:  NShTT=   13203 NPrTT=   78401 LenC2=   11523 LenP2D=   44636.
 LDataN:  DoStor=T MaxTD1= 8 Len=  415
 Number of processors reduced to  13 by ecpmxn.
 NBasis=   524 RedAO= T EigKep=  3.17D-05  NBF=   524
 NBsUse=   524 1.00D-06 EigRej= -1.00D+00 NBFU=   524
 Defaulting to unpruned grid for atomic number  40.
 ExpMin= 1.01D-02 ExpMax= 1.61D+04 ExpMxC= 2.43D+03 IAcc=3 IRadAn=         5 AccDes= 0.00D+00
 Harris functional with IExCor=  402 and IRadAn=       5 diagonalized for initial guess.
 HarFok:  IExCor=  402 AccDes= 0.00D+00 IRadAn=         5 IDoV= 1 UseB2=F ITyADJ=14
 ICtDFT=  3500011 ScaDFX=  1.000000  1.000000  1.000000  1.000000
 Defaulting to unpruned grid for atomic number  40.
 FoFCou: FMM=F IPFlag=           0 FMFlag=      100000 FMFlg1=           0
         NFxFlg=           0 DoJE=T BraDBF=F KetDBF=T FulRan=T
         wScrn=  0.000000 ICntrl=       500 IOpCl=  0 I1Cent=   200000004 NGrid=           0
         NMat0=    1 NMatS0=      1 NMatT0=    0 NMatD0=    1 NMtDS0=    0 NMtDT0=    0
 Petite list used in FoFCou.
 Requested convergence on RMS density matrix=1.00D-08 within 128 cycles.
 Requested convergence on MAX density matrix=1.00D-06.
 Requested convergence on             energy=1.00D-06.
 No special actions if energy rises.
 Defaulting to unpruned grid for atomic number  40.
 Defaulting to unpruned grid for atomic number  40.
 Defaulting to unpruned grid for atomic number  40.
 Defaulting to unpruned grid for atomic number  40.
 Defaulting to unpruned grid for atomic number  40.
 Defaulting to unpruned grid for atomic number  40.
 Defaulting to unpruned grid for atomic number  40.
 Defaulting to unpruned grid for atomic number  40.
 Defaulting to unpruned grid for atomic number  40.
 Defaulting to unpruned grid for atomic number  40.
 Defaulting to unpruned grid for atomic number  40.
 Defaulting to unpruned grid for atomic number  40.
 Defaulting to unpruned grid for atomic number  40.
 Defaulting to unpruned grid for atomic number  40.
 Defaulting to unpruned grid for atomic number  40.
 Defaulting to unpruned grid for atomic number  40.
 SCF Done:  E(RB3LYP) =  -2416.94685190     A.U. after   14 cycles
            NFock= 14  Conv=0.25D-08     -V/T= 2.0185

 **********************************************************************

            Population analysis using the SCF Density.

 **********************************************************************

 Orbital symmetries:
       Occupied  (A) (A) (A) (A) (A) (A) (A) (A) (A) (A) (A) (A)
                 (A) (A) (A) (A) (A) (A) (A) (A) (A) (A) (A) (A)
                 (A) (A) (A) (A) (A) (A) (A) (A) (A) (A) (A) (A)
                 (A) (A) (A) (A) (A) (A) (A) (A) (A) (A) (A) (A)
                 (A) (A) (A) (A) (A) (A) (A) (A) (A) (A) (A) (A)
                 (A) (A) (A) (A) (A) (A) (A) (A) (A) (A) (A) (A)
                 (A) (A) (A) (A) (A) (A) (A) (A) (A) (A) (A) (A)
                 (A) (A) (A) (A) (A) (A) (A) (A) (A) (A) (A) (A)
                 (A) (A) (A) (A) (A) (A) (A) (A)
       Virtual   (A) (A) (A) (A) (A) (A) (A) (A) (A) (A) (A) (A)
                 (A) (A) (A) (A) (A) (A) (A) (A) (A) (A) (A) (A)
                 (A) (A) (A) (A) (A) (A) (A) (A) (A) (A) (A) (A)
                 (A) (A) (A) (A) (A) (A) (A) (A) (A) (A) (A) (A)
                 (A) (A) (A) (A) (A) (A) (A) (A) (A) (A) (A) (A)
                 (A) (A) (A) (A) (A) (A) (A) (A) (A) (A) (A) (A)
                 (A) (A) (A) (A) (A) (A) (A) (A) (A) (A) (A) (A)
                 (A) (A) (A) (A) (A) (A) (A) (A) (A) (A) (A) (A)
                 (A) (A) (A) (A) (A) (A) (A) (A) (A) (A) (A) (A)
                 (A) (A) (A) (A) (A) (A) (A) (A) (A) (A) (A) (A)
                 (A) (A) (A) (A) (A) (A) (A) (A) (A) (A) (A) (A)
                 (A) (A) (A) (A) (A) (A) (A) (A) (A) (A) (A) (A)
                 (A) (A) (A) (A) (A) (A) (A) (A) (A) (A) (A) (A)
                 (A) (A) (A) (A) (A) (A) (A) (A) (A) (A) (A) (A)
                 (A) (A) (A) (A) (A) (A) (A) (A) (A) (A) (A) (A)
                 (A) (A) (A) (A) (A) (A) (A) (A) (A) (A) (A) (A)
                 (A) (A) (A) (A) (A) (A) (A) (A) (A) (A) (A) (A)
                 (A) (A) (A) (A) (A) (A) (A) (A) (A) (A) (A) (A)
                 (A) (A) (A) (A) (A) (A) (A) (A) (A) (A) (A) (A)
                 (A) (A) (A) (A) (A) (A) (A) (A) (A) (A) (A) (A)
                 (A) (A) (A) (A) (A) (A) (A) (A) (A) (A) (A) (A)
                 (A) (A) (A) (A) (A) (A) (A) (A) (A) (A) (A) (A)
                 (A) (A) (A) (A) (A) (A) (A) (A) (A) (A) (A) (A)
                 (A) (A) (A) (A) (A) (A) (A) (A) (A) (A) (A) (A)
                 (A) (A) (A) (A) (A) (A) (A) (A) (A) (A) (A) (A)
                 (A) (A) (A) (A) (A) (A) (A) (A) (A) (A) (A) (A)
                 (A) (A) (A) (A) (A) (A) (A) (A) (A) (A) (A) (A)
                 (A) (A) (A) (A) (A) (A) (A) (A) (A) (A) (A) (A)
                 (A) (A) (A) (A) (A) (A) (A) (A) (A) (A) (A) (A)
                 (A) (A) (A) (A) (A) (A) (A) (A) (A) (A) (A) (A)
                 (A) (A) (A) (A) (A) (A) (A) (A) (A) (A) (A) (A)
                 (A) (A) (A) (A) (A) (A) (A) (A) (A) (A) (A) (A)
                 (A) (A) (A) (A) (A) (A) (A) (A) (A) (A) (A) (A)
                 (A) (A) (A) (A) (A) (A) (A) (A) (A) (A) (A) (A)
                 (A) (A) (A) (A) (A) (A) (A) (A) (A) (A) (A) (A)
 The electronic state is 1-A.
 Alpha  occ. eigenvalues --  -66.22809 -66.21755 -66.21492 -66.21028 -19.18593
 Alpha  occ. eigenvalues --  -19.18352 -19.17794 -19.17028 -19.16734 -19.16542
 Alpha  occ. eigenvalues --  -19.16446 -19.16217 -19.16178 -19.16016 -19.15983
 Alpha  occ. eigenvalues --  -19.15503 -19.15333 -19.15243 -19.14892 -19.14702
 Alpha  occ. eigenvalues --   -5.36869  -5.35836  -5.35567  -5.35088  -3.72853
 Alpha  occ. eigenvalues --   -3.72826  -3.72779  -3.71827  -3.71780  -3.71745
 Alpha  occ. eigenvalues --   -3.71537  -3.71528  -3.71488  -3.71053  -3.71044
 Alpha  occ. eigenvalues --   -3.71019  -2.13362  -1.29605  -1.29521  -1.29364
 Alpha  occ. eigenvalues --   -1.05684  -1.04777  -1.04154  -1.03489  -1.02570
 Alpha  occ. eigenvalues --   -1.02171  -1.01472  -1.00920  -1.00767  -1.00657
 Alpha  occ. eigenvalues --   -0.99827  -0.99301  -0.97372  -0.96284  -0.95724
 Alpha  occ. eigenvalues --   -0.95396  -0.60994  -0.59160  -0.58976  -0.58480
 Alpha  occ. eigenvalues --   -0.55546  -0.54532  -0.53868  -0.53038  -0.52992
 Alpha  occ. eigenvalues --   -0.52487  -0.52139  -0.51709  -0.48782  -0.47603
 Alpha  occ. eigenvalues --   -0.47203  -0.46711  -0.43377  -0.42647  -0.41864
 Alpha  occ. eigenvalues --   -0.41397  -0.41109  -0.40528  -0.39835  -0.39323
 Alpha  occ. eigenvalues --   -0.38812  -0.38683  -0.38649  -0.38142  -0.38012
 Alpha  occ. eigenvalues --   -0.37623  -0.37492  -0.37174  -0.36524  -0.36416
 Alpha  occ. eigenvalues --   -0.36098  -0.35640  -0.35457  -0.35085  -0.34907
 Alpha  occ. eigenvalues --   -0.34605  -0.33992  -0.33698  -0.33468  -0.33271
 Alpha  occ. eigenvalues --   -0.32804  -0.32179  -0.32051  -0.31298
 Alpha virt. eigenvalues --   -0.04331  -0.03155  -0.03033  -0.02756  -0.02095
 Alpha virt. eigenvalues --   -0.01170  -0.00559  -0.00143   0.00135   0.00289
 Alpha virt. eigenvalues --    0.00761   0.00938   0.01023   0.01950   0.02344
 Alpha virt. eigenvalues --    0.03220   0.03339   0.03848   0.03929   0.04073
 Alpha virt. eigenvalues --    0.04149   0.04761   0.05580   0.05839   0.06165
 Alpha virt. eigenvalues --    0.06481   0.07103   0.07439   0.07718   0.08661
 Alpha virt. eigenvalues --    0.08792   0.09031   0.09186   0.09682   0.09973
 Alpha virt. eigenvalues --    0.10395   0.10641   0.10844   0.11208   0.11696
 Alpha virt. eigenvalues --    0.11830   0.12547   0.13276   0.13331   0.13721
 Alpha virt. eigenvalues --    0.14046   0.14374   0.14877   0.15123   0.15319
 Alpha virt. eigenvalues --    0.15392   0.15750   0.16175   0.16709   0.16929
 Alpha virt. eigenvalues --    0.17396   0.17505   0.17677   0.18113   0.18348
 Alpha virt. eigenvalues --    0.18519   0.18752   0.19207   0.19658   0.19742
 Alpha virt. eigenvalues --    0.20104   0.20370   0.20652   0.21020   0.21194
 Alpha virt. eigenvalues --    0.21744   0.21892   0.22274   0.22482   0.22797
 Alpha virt. eigenvalues --    0.23375   0.23782   0.24027   0.24190   0.24471
 Alpha virt. eigenvalues --    0.24934   0.25123   0.25547   0.25804   0.26156
 Alpha virt. eigenvalues --    0.26534   0.26701   0.26895   0.27260   0.27396
 Alpha virt. eigenvalues --    0.27949   0.28222   0.28496   0.28866   0.29029
 Alpha virt. eigenvalues --    0.29464   0.29678   0.30004   0.30446   0.30608
 Alpha virt. eigenvalues --    0.30840   0.31338   0.31474   0.31534   0.32198
 Alpha virt. eigenvalues --    0.32357   0.32813   0.33093   0.33564   0.34029
 Alpha virt. eigenvalues --    0.34436   0.34639   0.35325   0.35749   0.36275
 Alpha virt. eigenvalues --    0.36986   0.37586   0.38009   0.38411   0.38843
 Alpha virt. eigenvalues --    0.39273   0.39939   0.40011   0.41159   0.41621
 Alpha virt. eigenvalues --    0.42536   0.43179   0.43891   0.44385   0.44942
 Alpha virt. eigenvalues --    0.45253   0.45731   0.45957   0.46697   0.47488
 Alpha virt. eigenvalues --    0.47844   0.48462   0.48928   0.49392   0.49589
 Alpha virt. eigenvalues --    0.49992   0.50757   0.51076   0.51353   0.53167
 Alpha virt. eigenvalues --    0.54110   0.54465   0.55168   0.56860   0.57299
 Alpha virt. eigenvalues --    0.58265   0.58760   0.59162   0.59450   0.60337
 Alpha virt. eigenvalues --    0.61245   0.61687   0.62112   0.63987   0.65901
 Alpha virt. eigenvalues --    0.66823   0.67860   0.68394   0.68956   0.69479
 Alpha virt. eigenvalues --    0.70172   0.70452   0.72924   0.74402   0.75154
 Alpha virt. eigenvalues --    0.75503   0.77437   0.78571   0.79014   0.80419
 Alpha virt. eigenvalues --    0.81142   0.81498   0.82592   0.84144   0.85458
 Alpha virt. eigenvalues --    0.86779   0.87658   0.89847   0.90621   0.91169
 Alpha virt. eigenvalues --    0.94305   0.95710   0.96312   0.96892   0.97488
 Alpha virt. eigenvalues --    0.98149   0.98844   0.99264   0.99813   1.00285
 Alpha virt. eigenvalues --    1.00689   1.01467   1.01993   1.03207   1.04053
 Alpha virt. eigenvalues --    1.04261   1.05596   1.06321   1.06707   1.07910
 Alpha virt. eigenvalues --    1.09754   1.12333   1.15230   1.16187   1.16444
 Alpha virt. eigenvalues --    1.18719   1.19065   1.19915   1.20606   1.21032
 Alpha virt. eigenvalues --    1.21378   1.21781   1.22316   1.22779   1.22964
 Alpha virt. eigenvalues --    1.23487   1.23996   1.24227   1.25228   1.25721
 Alpha virt. eigenvalues --    1.26005   1.27144   1.27577   1.28102   1.28431
 Alpha virt. eigenvalues --    1.28972   1.29812   1.30131   1.30940   1.31396
 Alpha virt. eigenvalues --    1.32430   1.32641   1.33022   1.33377   1.34469
 Alpha virt. eigenvalues --    1.35205   1.36091   1.36471   1.36873   1.37779
 Alpha virt. eigenvalues --    1.39179   1.39739   1.40195   1.41251   1.41534
 Alpha virt. eigenvalues --    1.42741   1.43666   1.44177   1.45183   1.46380
 Alpha virt. eigenvalues --    1.47006   1.48895   1.51215   1.51496   1.52808
 Alpha virt. eigenvalues --    1.56743   1.57351   1.57824   1.59309   1.59730
 Alpha virt. eigenvalues --    1.60059   1.61168   1.61953   1.62519   1.63025
 Alpha virt. eigenvalues --    1.63246   1.63805   1.65195   1.65402   1.66572
 Alpha virt. eigenvalues --    1.67456   1.68037   1.69231   1.69478   1.70080
 Alpha virt. eigenvalues --    1.71351   1.71491   1.71664   1.72706   1.73190
 Alpha virt. eigenvalues --    1.74055   1.74986   1.75665   1.76078   1.76562
 Alpha virt. eigenvalues --    1.77154   1.77318   1.78496   1.78837   1.79701
 Alpha virt. eigenvalues --    1.80512   1.81421   1.82187   1.82557   1.83051
 Alpha virt. eigenvalues --    1.83350   1.84803   1.85071   1.85899   1.86610
 Alpha virt. eigenvalues --    1.87213   1.88076   1.88735   1.89747   1.90473
 Alpha virt. eigenvalues --    1.91168   1.91466   1.92550   1.92777   1.93939
 Alpha virt. eigenvalues --    1.94722   1.94991   1.95904   1.97242   1.98368
 Alpha virt. eigenvalues --    1.98828   2.00478   2.01163   2.02675   2.03684
 Alpha virt. eigenvalues --    2.05861   2.06528   2.07633   2.09830   2.10412
 Alpha virt. eigenvalues --    2.11282   2.13014   2.14397   2.16147   2.16343
 Alpha virt. eigenvalues --    2.17755   2.18835   2.19133   2.20847   2.26547
 Alpha virt. eigenvalues --    2.32550   2.33460   2.35436   2.39474   2.40439
 Alpha virt. eigenvalues --    2.41154   2.41370   2.41675   2.42758   2.43758
 Alpha virt. eigenvalues --    2.44008   2.45656   2.46689   2.47590   2.49047
 Alpha virt. eigenvalues --    2.50212   2.50311   2.51667   2.52718   2.53320
 Alpha virt. eigenvalues --    2.55462   2.58386   2.59197   2.60061   2.60705
 Alpha virt. eigenvalues --    2.61122   2.61760   2.62086   2.62458   2.62790
 Alpha virt. eigenvalues --    2.63164   2.64035   2.64647   2.64990   2.65962
 Alpha virt. eigenvalues --    2.66279   2.66651   2.67333   2.67561   2.69376
 Alpha virt. eigenvalues --    2.69734   2.70310   2.71220   2.71674   2.72391
 Alpha virt. eigenvalues --    2.72896   2.74349   2.75562   2.76768   2.77478
 Alpha virt. eigenvalues --    2.78945   2.80577   2.81459   2.82457   2.83495
 Alpha virt. eigenvalues --    2.83733   2.84705   2.86679   2.87791   2.88143
 Alpha virt. eigenvalues --    3.14850   3.20561   3.35843   3.41132   3.46733
 Alpha virt. eigenvalues --    3.47834   3.48580   3.48618   3.51079   3.51105
 Alpha virt. eigenvalues --    3.52871   3.53999   3.60309   3.61072   3.62064
 Alpha virt. eigenvalues --    3.66195   4.33703   4.60386   7.91667  31.29256
          Condensed to atoms (all electrons):
               1          2          3          4          5          6
     1  Zr  15.084819  -0.116078  -0.002120  -0.130401  -0.193700  -0.614671
     2  O   -0.116078   9.057946   0.019656  -0.042336  -0.058006   0.086336
     3  O   -0.002120   0.019656   8.827753   0.016402  -0.044809  -0.003198
     4  O   -0.130401  -0.042336   0.016402   8.811843  -0.060137  -0.678169
     5  O   -0.193700  -0.058006  -0.044809  -0.060137   9.428356  -0.007928
     6  Si  -0.614671   0.086336  -0.003198  -0.678169  -0.007928  14.008188
     7  Si  -0.613992  -0.028347  -0.874619  -0.007906  -0.034124   0.083852
     8  Si  -0.607925  -0.996178  -0.019795   0.069689  -0.014788  -0.010094
     9  Si  -0.312232  -0.040375  -0.026030  -0.032752  -1.220624   0.039020
    10  O   -0.014297   0.001020  -0.001961   0.000827   0.127769  -0.002421
    11  O   -0.069152   0.003335   0.003042   0.001337   0.316707  -0.000638
    12  O    0.045609   0.000058   0.004685   0.002033   0.147089  -0.003104
    13  O   -0.032312   0.184795   0.001645  -0.015555  -0.000690   0.034565
    14  O   -0.014226   0.261487  -0.017622  -0.008703   0.001843   0.028160
    15  O   -0.084430   0.292773  -0.000669   0.001233   0.000602   0.000183
    16  O   -0.124082   0.004688  -0.000502   0.345759   0.003235  -0.426152
    17  O   -0.078932  -0.039874   0.008184   0.217224   0.001310  -0.452602
    18  O   -0.025887  -0.014514   0.003738   0.197819  -0.000648  -0.450852
    19  O    0.003131   0.008913   0.265717   0.010188   0.002114  -0.007909
    20  O   -0.145244  -0.000580   0.163465  -0.000843   0.001485   0.009029
    21  O    0.036692   0.010214   0.146318   0.003421   0.000196  -0.011932
    22  H   -0.009032  -0.000016  -0.000004  -0.000008   0.005885   0.000087
    23  H   -0.007947  -0.000012  -0.000004  -0.000055  -0.025105   0.000098
    24  H   -0.005690  -0.000164  -0.000011   0.000005  -0.005023   0.000090
    25  H    0.016778  -0.019929  -0.000111  -0.000336   0.000019   0.002749
    26  H    0.007185   0.000671   0.000014  -0.000011  -0.000004  -0.000146
    27  H    0.003375  -0.019001   0.000824  -0.001739   0.000012   0.009103
    28  H    0.005031  -0.000011  -0.018381  -0.000014  -0.000015  -0.000278
    29  H    0.003834  -0.007046  -0.020261  -0.000139  -0.000073   0.000180
    30  H    0.000616  -0.000012   0.000050  -0.000454  -0.000008  -0.000618
    31  H   -0.000120   0.000179  -0.000020  -0.018441  -0.000010   0.063730
    32  H    0.002154  -0.000024   0.000041   0.010447   0.000001   0.022731
    33  H   -0.015819   0.001025  -0.010110  -0.009596  -0.000099   0.053077
               7          8          9         10         11         12
     1  Zr  -0.613992  -0.607925  -0.312232  -0.014297  -0.069152   0.045609
     2  O   -0.028347  -0.996178  -0.040375   0.001020   0.003335   0.000058
     3  O   -0.874619  -0.019795  -0.026030  -0.001961   0.003042   0.004685
     4  O   -0.007906   0.069689  -0.032752   0.000827   0.001337   0.002033
     5  O   -0.034124  -0.014788  -1.220624   0.127769   0.316707   0.147089
     6  Si   0.083852  -0.010094   0.039020  -0.002421  -0.000638  -0.003104
     7  Si  13.795298   0.182981   0.019005  -0.000234  -0.000922   0.003930
     8  Si   0.182981  13.813450   0.026916  -0.001089   0.001220  -0.001052
     9  Si   0.019005   0.026916  14.224217  -0.065069  -0.182818  -0.202814
    10  O   -0.000234  -0.001089  -0.065069   8.522374   0.015153   0.031683
    11  O   -0.000922   0.001220  -0.182818   0.015153   8.520143  -0.052016
    12  O    0.003930  -0.001052  -0.202814   0.031683  -0.052016   8.599678
    13  O    0.007219  -0.095696   0.000206   0.000000   0.000018   0.000007
    14  O    0.009120  -0.366620  -0.001525  -0.000002   0.000002   0.000015
    15  O   -0.002473  -0.304511  -0.000614   0.000000  -0.000022  -0.000012
    16  O    0.003757  -0.010434  -0.001011   0.000005  -0.000004  -0.000001
    17  O   -0.001031   0.096307   0.002457  -0.000001   0.000003  -0.000006
    18  O   -0.000745   0.075164   0.004094  -0.000002   0.000001  -0.000001
    19  O   -0.411039  -0.016329   0.001028   0.000008  -0.000002  -0.000027
    20  O   -0.109094   0.009693   0.003108   0.000005  -0.000003  -0.000038
    21  O    0.024880  -0.040594  -0.001728   0.000001   0.000001   0.000020
    22  H   -0.000161   0.000092   0.047387  -0.006579  -0.005003   0.219597
    23  H    0.000063   0.000062   0.081034   0.228647  -0.006018   0.005806
    24  H    0.000049  -0.000050   0.036957   0.007286   0.242692  -0.007349
    25  H   -0.000457   0.057322  -0.000210   0.000000  -0.000000  -0.000000
    26  H   -0.000380   0.046205  -0.000042  -0.000000   0.000000  -0.000000
    27  H    0.001451   0.068520  -0.000003   0.000000  -0.000000  -0.000000
    28  H    0.056592  -0.000058  -0.000139  -0.000000  -0.000000  -0.000003
    29  H    0.048176   0.022113  -0.000057   0.000000   0.000000  -0.000001
    30  H    0.040356   0.000123   0.000022  -0.000000   0.000000   0.000000
    31  H    0.000154  -0.001997  -0.000050   0.000000  -0.000000   0.000000
    32  H   -0.000664   0.000052   0.000011  -0.000000   0.000000  -0.000000
    33  H    0.020633   0.000064   0.000075  -0.000000   0.000000   0.000000
              13         14         15         16         17         18
     1  Zr  -0.032312  -0.014226  -0.084430  -0.124082  -0.078932  -0.025887
     2  O    0.184795   0.261487   0.292773   0.004688  -0.039874  -0.014514
     3  O    0.001645  -0.017622  -0.000669  -0.000502   0.008184   0.003738
     4  O   -0.015555  -0.008703   0.001233   0.345759   0.217224   0.197819
     5  O   -0.000690   0.001843   0.000602   0.003235   0.001310  -0.000648
     6  Si   0.034565   0.028160   0.000183  -0.426152  -0.452602  -0.450852
     7  Si   0.007219   0.009120  -0.002473   0.003757  -0.001031  -0.000745
     8  Si  -0.095696  -0.366620  -0.304511  -0.010434   0.096307   0.075164
     9  Si   0.000206  -0.001525  -0.000614  -0.001011   0.002457   0.004094
    10  O    0.000000  -0.000002   0.000000   0.000005  -0.000001  -0.000002
    11  O    0.000018   0.000002  -0.000022  -0.000004   0.000003   0.000001
    12  O    0.000007   0.000015  -0.000012  -0.000001  -0.000006  -0.000001
    13  O    8.627578   0.086756  -0.090365   0.003741  -0.030910  -0.045634
    14  O    0.086756   8.672980   0.055561   0.003669  -0.035914  -0.026903
    15  O   -0.090365   0.055561   8.777300  -0.000174   0.003598   0.001676
    16  O    0.003741   0.003669  -0.000174   8.903207  -0.091760  -0.114904
    17  O   -0.030910  -0.035914   0.003598  -0.091760   8.935355   0.227201
    18  O   -0.045634  -0.026903   0.001676  -0.114904   0.227201   9.012432
    19  O    0.000177  -0.000489   0.000141  -0.001542  -0.030113   0.000156
    20  O    0.000008  -0.000261   0.000038   0.000066  -0.000980   0.000015
    21  O   -0.000261   0.015990  -0.000605  -0.000213  -0.005556   0.000478
    22  H   -0.000000  -0.000000   0.000000   0.000000   0.000000  -0.000000
    23  H    0.000000   0.000000  -0.000000  -0.000000   0.000000  -0.000000
    24  H   -0.000000   0.000000   0.000002   0.000000  -0.000000  -0.000000
    25  H    0.218421  -0.011917   0.008911  -0.000056   0.000635   0.014946
    26  H   -0.005115  -0.010108   0.216929   0.000000  -0.000003   0.000006
    27  H   -0.009681   0.219457   0.004634   0.000183   0.017938  -0.000250
    28  H    0.000000  -0.000006  -0.000001  -0.000000   0.000004  -0.000000
    29  H    0.000800   0.017555  -0.002574  -0.000004  -0.000393   0.000006
    30  H    0.000001   0.000003   0.000000   0.000114  -0.000400  -0.000007
    31  H    0.002362   0.000168  -0.000018   0.003766  -0.000738   0.218168
    32  H   -0.000008  -0.000006   0.000000   0.233429  -0.003637   0.003877
    33  H    0.000229   0.002097  -0.000035  -0.000105   0.231016   0.002105
              19         20         21         22         23         24
     1  Zr   0.003131  -0.145244   0.036692  -0.009032  -0.007947  -0.005690
     2  O    0.008913  -0.000580   0.010214  -0.000016  -0.000012  -0.000164
     3  O    0.265717   0.163465   0.146318  -0.000004  -0.000004  -0.000011
     4  O    0.010188  -0.000843   0.003421  -0.000008  -0.000055   0.000005
     5  O    0.002114   0.001485   0.000196   0.005885  -0.025105  -0.005023
     6  Si  -0.007909   0.009029  -0.011932   0.000087   0.000098   0.000090
     7  Si  -0.411039  -0.109094   0.024880  -0.000161   0.000063   0.000049
     8  Si  -0.016329   0.009693  -0.040594   0.000092   0.000062  -0.000050
     9  Si   0.001028   0.003108  -0.001728   0.047387   0.081034   0.036957
    10  O    0.000008   0.000005   0.000001  -0.006579   0.228647   0.007286
    11  O   -0.000002  -0.000003   0.000001  -0.005003  -0.006018   0.242692
    12  O   -0.000027  -0.000038   0.000020   0.219597   0.005806  -0.007349
    13  O    0.000177   0.000008  -0.000261  -0.000000   0.000000  -0.000000
    14  O   -0.000489  -0.000261   0.015990  -0.000000   0.000000   0.000000
    15  O    0.000141   0.000038  -0.000605   0.000000  -0.000000   0.000002
    16  O   -0.001542   0.000066  -0.000213   0.000000  -0.000000   0.000000
    17  O   -0.030113  -0.000980  -0.005556   0.000000   0.000000  -0.000000
    18  O    0.000156   0.000015   0.000478  -0.000000  -0.000000  -0.000000
    19  O    8.873393   0.032241   0.023382  -0.000000   0.000000  -0.000000
    20  O    0.032241   8.657222  -0.050477   0.000000   0.000000  -0.000000
    21  O    0.023382  -0.050477   8.485036  -0.000000   0.000000   0.000000
    22  H   -0.000000   0.000000  -0.000000   0.362099   0.000059   0.000122
    23  H    0.000000   0.000000   0.000000   0.000059   0.351146   0.000016
    24  H   -0.000000  -0.000000   0.000000   0.000122   0.000016   0.365216
    25  H   -0.000024   0.000000  -0.000019   0.000000   0.000000   0.000000
    26  H    0.000001  -0.000000   0.000040  -0.000000  -0.000000  -0.000000
    27  H    0.000037   0.000192  -0.004018  -0.000000  -0.000000   0.000000
    28  H    0.004625   0.229593  -0.002054  -0.000000   0.000000  -0.000000
    29  H   -0.008569   0.007669   0.206467   0.000000   0.000000  -0.000000
    30  H    0.224147  -0.001474  -0.007146   0.000000   0.000000  -0.000000
    31  H    0.000004  -0.000000  -0.000000  -0.000000  -0.000000   0.000000
    32  H    0.000097  -0.000000   0.000001  -0.000000  -0.000000  -0.000000
    33  H    0.014830  -0.000081   0.001473  -0.000000  -0.000000  -0.000000
              25         26         27         28         29         30
     1  Zr   0.016778   0.007185   0.003375   0.005031   0.003834   0.000616
     2  O   -0.019929   0.000671  -0.019001  -0.000011  -0.007046  -0.000012
     3  O   -0.000111   0.000014   0.000824  -0.018381  -0.020261   0.000050
     4  O   -0.000336  -0.000011  -0.001739  -0.000014  -0.000139  -0.000454
     5  O    0.000019  -0.000004   0.000012  -0.000015  -0.000073  -0.000008
     6  Si   0.002749  -0.000146   0.009103  -0.000278   0.000180  -0.000618
     7  Si  -0.000457  -0.000380   0.001451   0.056592   0.048176   0.040356
     8  Si   0.057322   0.046205   0.068520  -0.000058   0.022113   0.000123
     9  Si  -0.000210  -0.000042  -0.000003  -0.000139  -0.000057   0.000022
    10  O    0.000000  -0.000000   0.000000  -0.000000   0.000000  -0.000000
    11  O   -0.000000   0.000000  -0.000000  -0.000000   0.000000   0.000000
    12  O   -0.000000  -0.000000  -0.000000  -0.000003  -0.000001   0.000000
    13  O    0.218421  -0.005115  -0.009681   0.000000   0.000800   0.000001
    14  O   -0.011917  -0.010108   0.219457  -0.000006   0.017555   0.000003
    15  O    0.008911   0.216929   0.004634  -0.000001  -0.002574   0.000000
    16  O   -0.000056   0.000000   0.000183  -0.000000  -0.000004   0.000114
    17  O    0.000635  -0.000003   0.017938   0.000004  -0.000393  -0.000400
    18  O    0.014946   0.000006  -0.000250  -0.000000   0.000006  -0.000007
    19  O   -0.000024   0.000001   0.000037   0.004625  -0.008569   0.224147
    20  O    0.000000  -0.000000   0.000192   0.229593   0.007669  -0.001474
    21  O   -0.000019   0.000040  -0.004018  -0.002054   0.206467  -0.007146
    22  H    0.000000  -0.000000  -0.000000  -0.000000   0.000000   0.000000
    23  H    0.000000  -0.000000  -0.000000   0.000000   0.000000   0.000000
    24  H    0.000000  -0.000000   0.000000  -0.000000  -0.000000  -0.000000
    25  H    0.298927  -0.000012   0.000111   0.000000   0.000001   0.000000
    26  H   -0.000012   0.366075   0.000035   0.000000   0.000021  -0.000000
    27  H    0.000111   0.000035   0.283389  -0.000000  -0.001494   0.000009
    28  H    0.000000   0.000000  -0.000000   0.349152  -0.000017  -0.000016
    29  H    0.000001   0.000021  -0.001494  -0.000017   0.285926   0.000156
    30  H    0.000000  -0.000000   0.000009  -0.000016   0.000156   0.334270
    31  H   -0.000495   0.000000   0.000013  -0.000000   0.000000  -0.000000
    32  H   -0.000001   0.000000  -0.000000   0.000000  -0.000000  -0.000000
    33  H    0.000006  -0.000000  -0.002411  -0.000002   0.000099  -0.001159
              31         32         33
     1  Zr  -0.000120   0.002154  -0.015819
     2  O    0.000179  -0.000024   0.001025
     3  O   -0.000020   0.000041  -0.010110
     4  O   -0.018441   0.010447  -0.009596
     5  O   -0.000010   0.000001  -0.000099
     6  Si   0.063730   0.022731   0.053077
     7  Si   0.000154  -0.000664   0.020633
     8  Si  -0.001997   0.000052   0.000064
     9  Si  -0.000050   0.000011   0.000075
    10  O    0.000000  -0.000000  -0.000000
    11  O   -0.000000   0.000000   0.000000
    12  O    0.000000  -0.000000   0.000000
    13  O    0.002362  -0.000008   0.000229
    14  O    0.000168  -0.000006   0.002097
    15  O   -0.000018   0.000000  -0.000035
    16  O    0.003766   0.233429  -0.000105
    17  O   -0.000738  -0.003637   0.231016
    18  O    0.218168   0.003877   0.002105
    19  O    0.000004   0.000097   0.014830
    20  O   -0.000000  -0.000000  -0.000081
    21  O   -0.000000   0.000001   0.001473
    22  H   -0.000000  -0.000000  -0.000000
    23  H   -0.000000  -0.000000  -0.000000
    24  H    0.000000  -0.000000  -0.000000
    25  H   -0.000495  -0.000001   0.000006
    26  H    0.000000   0.000000  -0.000000
    27  H    0.000013  -0.000000  -0.002411
    28  H   -0.000000   0.000000  -0.000002
    29  H    0.000000  -0.000000   0.000099
    30  H   -0.000000  -0.000000  -0.001159
    31  H    0.331419   0.000001  -0.000038
    32  H    0.000001   0.350035   0.000157
    33  H   -0.000038   0.000157   0.269283
 Mulliken charges:
               1
     1  Zr   0.009062
     2  O   -0.550592
     3  O   -0.421307
     4  O   -0.680631
     5  O   -0.370833
     6  Si   2.229534
     7  Si   1.788676
     8  Si   2.017239
     9  Si   1.602553
    10  O   -0.843122
    11  O   -0.787058
    12  O   -0.793785
    13  O   -0.842299
    14  O   -0.880562
    15  O   -0.877076
    16  O   -0.734675
    17  O   -0.968380
    18  O   -1.081536
    19  O   -0.988285
    20  O   -0.804755
    21  O   -0.830003
    22  H    0.385473
    23  H    0.372209
    24  H    0.365854
    25  H    0.414740
    26  H    0.378639
    27  H    0.429312
    28  H    0.375996
    29  H    0.447626
    30  H    0.411428
    31  H    0.401962
    32  H    0.381308
    33  H    0.443288
 Sum of Mulliken charges =  -0.00000
 Mulliken charges with hydrogens summed into heavy atoms:
               1
     1  Zr   0.009062
     2  O   -0.550592
     3  O   -0.421307
     4  O   -0.680631
     5  O   -0.370833
     6  Si   2.229534
     7  Si   1.788676
     8  Si   2.017239
     9  Si   1.602553
    10  O   -0.470913
    11  O   -0.421204
    12  O   -0.408312
    13  O   -0.427560
    14  O   -0.451250
    15  O   -0.498437
    16  O   -0.353366
    17  O   -0.525092
    18  O   -0.679574
    19  O   -0.576857
    20  O   -0.428760
    21  O   -0.382377
 Electronic spatial extent (au):  <R**2>=           9869.0968
 Charge=             -0.0000 electrons
 Dipole moment (field-independent basis, Debye):
    X=              1.0876    Y=             -0.8135    Z=             -2.4928  Tot=              2.8388
 Quadrupole moment (field-independent basis, Debye-Ang):
   XX=           -160.1643   YY=           -154.6342   ZZ=           -157.7790
   XY=             -5.0437   XZ=              2.0501   YZ=              5.6560
 Traceless Quadrupole moment (field-independent basis, Debye-Ang):
   XX=             -2.6385   YY=              2.8917   ZZ=             -0.2532
   XY=             -5.0437   XZ=              2.0501   YZ=              5.6560
 Octapole moment (field-independent basis, Debye-Ang**2):
  XXX=             74.3874  YYY=              5.9744  ZZZ=            -21.0423  XYY=             -2.8945
  XXY=             19.9138  XXZ=             19.4527  XZZ=              6.4035  YZZ=            -16.8771
  YYZ=            -14.0406  XYZ=             27.6617
 Hexadecapole moment (field-independent basis, Debye-Ang**3):
 XXXX=          -6032.7826 YYYY=          -2830.5858 ZZZZ=          -2261.5739 XXXY=             57.2557
 XXXZ=            -16.5617 YYYX=              2.1114 YYYZ=            214.0485 ZZZX=           -195.2302
 ZZZY=            -52.5716 XXYY=          -1491.4578 XXZZ=          -1352.3293 YYZZ=           -926.6022
 XXYZ=            -10.0774 YYXZ=            138.9463 ZZXY=            -59.0619
 N-N= 2.832802245560D+03 E-N=-1.137820810175D+04  KE= 2.373154977361D+03
 PrsmSu:  requested number of processors reduced to:   2 ShMem   1 Linda.
 PrsmSu:  requested number of processors reduced to:  10 ShMem   1 Linda.
   1 Symmetry operations used in ECPInt.
 ECPInt:  NShTT=   13203 NPrTT=   78401 LenC2=   11523 LenP2D=   44636.
 LDataN:  DoStor=T MaxTD1= 9 Len=  602
 Number of processors reduced to  14 by ecpmxn.
 Calling FoFJK, ICntrl=      2127 FMM=F ISym2X=0 I1Cent= 0 IOpClX= 0 NMat=1 NMatS=1 NMatT=0.
 CoulSu:  requested number of processors reduced to:  10 ShMem   1 Linda.
 Defaulting to unpruned grid for atomic number  40.
 Defaulting to unpruned grid for atomic number  40.
 Defaulting to unpruned grid for atomic number  40.
 Defaulting to unpruned grid for atomic number  40.
 Defaulting to unpruned grid for atomic number  40.
 Defaulting to unpruned grid for atomic number  40.
 Defaulting to unpruned grid for atomic number  40.
 Defaulting to unpruned grid for atomic number  40.
 Defaulting to unpruned grid for atomic number  40.
 Defaulting to unpruned grid for atomic number  40.
 Defaulting to unpruned grid for atomic number  40.
 Defaulting to unpruned grid for atomic number  40.
 Defaulting to unpruned grid for atomic number  40.
 Defaulting to unpruned grid for atomic number  40.
 Defaulting to unpruned grid for atomic number  40.
 Defaulting to unpruned grid for atomic number  40.
 ***** Axes restored to original set *****
 -------------------------------------------------------------------
 Center     Atomic                   Forces (Hartrees/Bohr)
 Number     Number              X              Y              Z
 -------------------------------------------------------------------
      1       40          -0.000006035    0.000001668    0.000269702
      2        8          -0.000028956   -0.000010600   -0.000100078
      3        8           0.000032936    0.000024714   -0.000033666
      4        8           0.000004616   -0.000031164   -0.000041985
      5        8           0.000042297   -0.000031465   -0.000184621
      6       14          -0.000027871    0.000029306    0.000033552
      7       14          -0.000011065   -0.000003858    0.000034134
      8       14           0.000042798    0.000029008    0.000060612
      9       14          -0.000044335    0.000077724    0.000162631
     10        8           0.000009354   -0.000015613   -0.000045447
     11        8           0.000004539   -0.000058574   -0.000024847
     12        8          -0.000016999   -0.000020359   -0.000042797
     13        8          -0.000012951   -0.000023171   -0.000025896
     14        8          -0.000015922    0.000001468   -0.000027610
     15        8          -0.000021057   -0.000011314   -0.000028622
     16        8           0.000006238   -0.000007632   -0.000012106
     17        8           0.000018674   -0.000010577   -0.000021709
     18        8          -0.000001170   -0.000006822   -0.000009641
     19        8           0.000002634   -0.000001183   -0.000009083
     20        8           0.000012211   -0.000000491   -0.000003174
     21        8          -0.000005554    0.000002370   -0.000020474
     22        1           0.000004288    0.000000154    0.000000275
     23        1           0.000005653   -0.000004888    0.000002499
     24        1           0.000004141    0.000042156    0.000010473
     25        1           0.000000991    0.000007965    0.000015182
     26        1           0.000002426    0.000005145    0.000003777
     27        1           0.000001900    0.000004777    0.000018300
     28        1          -0.000001780    0.000000955    0.000003022
     29        1           0.000008944    0.000000261    0.000007759
     30        1          -0.000000733    0.000002780    0.000001239
     31        1           0.000000539    0.000001989    0.000001325
     32        1          -0.000008134    0.000003669    0.000000087
     33        1          -0.000002616    0.000001604    0.000007188
 -------------------------------------------------------------------
 Cartesian Forces:  Max     0.000269702 RMS     0.000043677

 GradGradGradGradGradGradGradGradGradGradGradGradGradGradGradGradGradGrad
 Berny optimization.
 FormGI is forming the generalized inverse of G from B-inverse, IUseBI=4.
 Internal  Forces:  Max     0.000131957 RMS     0.000025753
 Search for a local minimum.
 Step number   1 out of a maximum of  148
 All quantities printed in internal units (Hartrees-Bohrs-Radians)
 Mixed Optimization -- En-DIIS/RFO-DIIS
 Second derivative matrix not updated -- first step.
 ITU=  0
     Eigenvalues ---    0.00230   0.00230   0.00230   0.00230   0.03240
     Eigenvalues ---    0.03358   0.03498   0.03580   0.03665   0.03666
     Eigenvalues ---    0.03680   0.03686   0.03693   0.03739   0.03789
     Eigenvalues ---    0.03792   0.03816   0.03834   0.03850   0.03857
     Eigenvalues ---    0.08405   0.09407   0.11077   0.11224   0.11819
     Eigenvalues ---    0.11833   0.11884   0.12136   0.12177   0.12239
     Eigenvalues ---    0.12563   0.12783   0.12895   0.13099   0.13313
     Eigenvalues ---    0.16000   0.16000   0.16000   0.16000   0.16000
     Eigenvalues ---    0.16000   0.16000   0.16000   0.16000   0.16000
     Eigenvalues ---    0.16000   0.16000   0.19174   0.19893   0.20028
     Eigenvalues ---    0.20179   0.20203   0.20204   0.20208   0.20515
     Eigenvalues ---    0.20653   0.20795   0.20988   0.21175   0.21186
     Eigenvalues ---    0.21263   0.25000   0.25000   0.25000   0.38002
     Eigenvalues ---    0.39186   0.40660   0.41547   0.42502   0.42510
     Eigenvalues ---    0.42670   0.42743   0.42824   0.43362   0.43949
     Eigenvalues ---    0.43980   0.44274   0.44485   0.44690   0.44768
     Eigenvalues ---    0.50654   0.51352   0.52034   0.52546   0.54335
     Eigenvalues ---    0.54624   0.54642   0.54648   0.54691   0.54692
     Eigenvalues ---    0.54712   0.547651000.000001000.000001000.00000
     Eigenvalues --- 1000.000001000.000001000.000001000.000001000.00000
     Eigenvalues --- 1000.000001000.000001000.000001000.000001000.00000
     Eigenvalues --- 1000.000001000.000001000.000001000.000001000.00000
     Eigenvalues --- 1000.000001000.000001000.000001000.000001000.00000
     Eigenvalues --- 1000.000001000.000001000.000001000.000001000.00000
     Eigenvalues --- 1000.000001000.000001000.000001000.000001000.00000
     Eigenvalues --- 1000.000001000.000001000.000001000.000001000.00000
     Eigenvalues --- 1000.000001000.000001000.000001000.000001000.00000
     Eigenvalues --- 1000.000001000.000001000.00000
 RFO step:  Lambda=-3.12942810D-06 EMin= 2.30000000D-03
 Linear search not attempted -- first point.
 Iteration  1 RMS(Cart)=  0.01413447 RMS(Int)=  0.00007843
 Iteration  2 RMS(Cart)=  0.00012430 RMS(Int)=  0.00000004
 Iteration  3 RMS(Cart)=  0.00000001 RMS(Int)=  0.00000004
 Iteration  1 RMS(Cart)=  0.00000000 RMS(Int)=  0.00000000
 Variable       Old X    -DE/DX   Delta X   Delta X   Delta X     New X
                                 (Linear)    (Quad)   (Total)
    R1        3.67648  -0.00006   0.00000  -0.00026  -0.00026   3.67622
    R2        3.69190   0.00001   0.00000   0.00007   0.00007   3.69197
    R3        3.73835   0.00005   0.00000   0.00024   0.00024   3.73859
    R4        3.70231   0.00001   0.00000   0.00004   0.00004   3.70235
    R5        3.11688   0.00000   0.00000   0.00001   0.00001   3.11689
    R6        3.09579   0.00000   0.00000   0.00000   0.00000   3.09579
    R7        3.10215   0.00001   0.00000   0.00002   0.00002   3.10217
    R8        3.09246  -0.00002   0.00000  -0.00006  -0.00006   3.09240
    R9        3.11587   0.00001   0.00000   0.00003   0.00003   3.11590
   R10        3.11989  -0.00002   0.00000  -0.00005  -0.00005   3.11984
   R11        3.14366   0.00000   0.00000   0.00000   0.00000   3.14367
   R12        3.18062   0.00001   0.00000   0.00002   0.00002   3.18064
   R13        3.10925   0.00000   0.00000   0.00001   0.00001   3.10926
   R14        3.09338  -0.00001   0.00000  -0.00003  -0.00003   3.09335
   R15        3.10178   0.00002   0.00000   0.00005   0.00005   3.10183
   R16        3.16375   0.00001   0.00000   0.00004   0.00004   3.16379
   R17        3.09828  -0.00003   0.00000  -0.00006  -0.00006   3.09822
   R18        3.11979   0.00004   0.00000   0.00010   0.00010   3.11990
   R19        3.13204   0.00001   0.00000   0.00002   0.00002   3.13206
   R20        3.11779  -0.00004   0.00000  -0.00009  -0.00009   3.11771
   R21        1.82152   0.00000   0.00000   0.00001   0.00001   1.82153
   R22        1.82107  -0.00001   0.00000  -0.00002  -0.00002   1.82105
   R23        1.82088   0.00000   0.00000   0.00001   0.00001   1.82089
   R24        1.84080  -0.00002   0.00000  -0.00003  -0.00003   1.84077
   R25        1.84567  -0.00002   0.00000  -0.00004  -0.00004   1.84563
   R26        1.82041  -0.00000   0.00000  -0.00000  -0.00000   1.82041
   R27        1.82108  -0.00001   0.00000  -0.00001  -0.00001   1.82107
   R28        1.85911  -0.00000   0.00000  -0.00000  -0.00000   1.85911
   R29        1.82147  -0.00000   0.00000  -0.00000  -0.00000   1.82146
   R30        1.82428   0.00000   0.00000   0.00000   0.00000   1.82428
   R31        1.82168   0.00000   0.00000   0.00000   0.00000   1.82168
   R32        1.85225   0.00000   0.00000   0.00000   0.00000   1.85225
    A1        1.85172   0.00002   0.00000   0.00031   0.00031   1.85203
    A2        1.80156  -0.00005   0.00000  -0.00019  -0.00019   1.80137
    A3        1.96889   0.00012   0.00000   0.00085   0.00085   1.96973
    A4        1.83430   0.00003   0.00000  -0.00016  -0.00016   1.83414
    A5        2.01802  -0.00007   0.00000  -0.00037  -0.00037   2.01766
    A6        1.97058  -0.00005   0.00000  -0.00045  -0.00045   1.97013
    A7        2.46524   0.00000   0.00000   0.00002   0.00002   2.46525
    A8        2.58826  -0.00001   0.00000  -0.00006  -0.00006   2.58820
    A9        2.35483   0.00000   0.00000   0.00001   0.00001   2.35484
   A10        2.86714  -0.00013   0.00000   0.00000   0.00000   2.86714
   A11        1.91978  -0.00000   0.00000  -0.00002  -0.00002   1.91976
   A12        1.91546   0.00000   0.00000   0.00003   0.00003   1.91549
   A13        1.95201   0.00000   0.00000   0.00000   0.00000   1.95201
   A14        2.00708  -0.00000   0.00000  -0.00001  -0.00001   2.00707
   A15        1.88611  -0.00001   0.00000  -0.00006  -0.00006   1.88606
   A16        1.78000   0.00001   0.00000   0.00006   0.00006   1.78007
   A17        1.80239  -0.00000   0.00000  -0.00003  -0.00003   1.80236
   A18        1.99614  -0.00001   0.00000  -0.00004  -0.00004   1.99610
[...]
 Alpha virt. eigenvalues --    3.14703   3.20410   3.35829   3.41106   3.46712
 Alpha virt. eigenvalues --    3.47849   3.48578   3.48613   3.51076   3.51100
 Alpha virt. eigenvalues --    3.52874   3.54120   3.60307   3.61070   3.62063
 Alpha virt. eigenvalues --    3.66209   4.32088   4.60068   7.90281  31.29198
          Condensed to atoms (all electrons):
               1          2          3          4          5          6
     1  Zr  15.093656  -0.132390  -0.001747  -0.134125  -0.198022  -0.597199
     2  O   -0.132390   9.065009   0.019878  -0.042403  -0.058231   0.089764
     3  O   -0.001747   0.019878   8.828387   0.015615  -0.043868  -0.004209
     4  O   -0.134125  -0.042403   0.015615   8.812677  -0.059199  -0.677548
     5  O   -0.198022  -0.058231  -0.043868  -0.059199   9.434957  -0.007247
     6  Si  -0.597199   0.089764  -0.004209  -0.677548  -0.007247  13.989265
     7  Si  -0.616414  -0.027405  -0.875630  -0.007119  -0.033746   0.084514
     8  Si  -0.584313  -0.996359  -0.020377   0.070946  -0.014244  -0.018052
     9  Si  -0.315588  -0.040552  -0.026227  -0.033878  -1.237329   0.038495
    10  O   -0.012280   0.001005  -0.002071   0.000969   0.128739  -0.002547
    11  O   -0.066169   0.003508   0.003001   0.001258   0.316433  -0.000727
    12  O    0.041973  -0.000000   0.004751   0.002116   0.154136  -0.002970
    13  O   -0.039578   0.186932   0.001676  -0.015700  -0.000684   0.036446
    14  O   -0.020444   0.263368  -0.017418  -0.008793   0.001936   0.029668
    15  O   -0.082566   0.292285  -0.000696   0.001248   0.000575  -0.000330
    16  O   -0.125468   0.004686  -0.000487   0.345152   0.003225  -0.423671
    17  O   -0.078185  -0.040118   0.007707   0.218867   0.001249  -0.454539
    18  O   -0.027322  -0.014254   0.003720   0.198546  -0.000628  -0.450342
    19  O    0.000458   0.009075   0.264614   0.009999   0.002094  -0.007230
    20  O   -0.145437  -0.000572   0.163510  -0.000866   0.001464   0.008936
    21  O    0.036044   0.010528   0.146551   0.003368   0.000222  -0.011695
    22  H   -0.008932  -0.000017  -0.000009  -0.000009   0.005801   0.000086
    23  H   -0.007841  -0.000012  -0.000005  -0.000055  -0.025099   0.000088
    24  H   -0.005633  -0.000177  -0.000011   0.000004  -0.005283   0.000073
    25  H    0.017527  -0.020096  -0.000112  -0.000288   0.000019   0.002444
    26  H    0.007221   0.000601   0.000015  -0.000011  -0.000003  -0.000136
    27  H    0.004749  -0.019208   0.000828  -0.001738   0.000011   0.008691
    28  H    0.005093  -0.000011  -0.018411  -0.000014  -0.000015  -0.000280
    29  H    0.004174  -0.007104  -0.020275  -0.000141  -0.000073   0.000151
    30  H    0.000707  -0.000012   0.000081  -0.000451  -0.000008  -0.000660
    31  H   -0.000112   0.000174  -0.000019  -0.018436  -0.000009   0.063669
    32  H    0.002080  -0.000024   0.000040   0.010403   0.000000   0.022902
    33  H   -0.016058   0.001023  -0.010075  -0.009561  -0.000100   0.053211
               7          8          9         10         11         12
     1  Zr  -0.616414  -0.584313  -0.315588  -0.012280  -0.066169   0.041973
     2  O   -0.027405  -0.996359  -0.040552   0.001005   0.003508  -0.000000
     3  O   -0.875630  -0.020377  -0.026227  -0.002071   0.003001   0.004751
     4  O   -0.007119   0.070946  -0.033878   0.000969   0.001258   0.002116
     5  O   -0.033746  -0.014244  -1.237329   0.128739   0.316433   0.154136
     6  Si   0.084514  -0.018052   0.038495  -0.002547  -0.000727  -0.002970
     7  Si  13.795273   0.181970   0.019580  -0.000294  -0.000855   0.004145
     8  Si   0.181970  13.796860   0.026301  -0.001004   0.001139  -0.000783
     9  Si   0.019580   0.026301  14.265496  -0.069483  -0.185933  -0.211855
    10  O   -0.000294  -0.001004  -0.069483   8.523459   0.015621   0.032512
    11  O   -0.000855   0.001139  -0.185933   0.015621   8.520139  -0.052011
    12  O    0.004145  -0.000783  -0.211855   0.032512  -0.052011   8.601520
    13  O    0.007443  -0.094687   0.000299   0.000000   0.000017   0.000009
    14  O    0.009627  -0.366784  -0.001470  -0.000002   0.000002   0.000016
    15  O   -0.002619  -0.304430  -0.000682   0.000000  -0.000023  -0.000015
    16  O    0.003761  -0.010131  -0.000979   0.000005  -0.000003  -0.000001
    17  O   -0.000839   0.096402   0.002439  -0.000002   0.000002  -0.000006
    18  O   -0.000642   0.074525   0.004164  -0.000003   0.000000  -0.000001
    19  O   -0.407772  -0.015986   0.001051   0.000008  -0.000002  -0.000022
    20  O   -0.108553   0.009743   0.003177   0.000002  -0.000002  -0.000033
    21  O    0.024399  -0.040701  -0.001810   0.000001   0.000001   0.000024
    22  H   -0.000183   0.000087   0.047355  -0.006677  -0.005042   0.219835
    23  H    0.000064   0.000063   0.080969   0.228580  -0.006102   0.005835
    24  H    0.000053  -0.000069   0.037455   0.007304   0.242518  -0.007422
    25  H   -0.000471   0.057320  -0.000214   0.000000  -0.000000  -0.000000
    26  H   -0.000377   0.046170  -0.000041  -0.000000   0.000000  -0.000000
    27  H    0.001304   0.068279  -0.000010   0.000000  -0.000000  -0.000000
    28  H    0.056585  -0.000072  -0.000135  -0.000000  -0.000000  -0.000004
    29  H    0.048106   0.021988  -0.000056   0.000000   0.000000  -0.000001
    30  H    0.040216   0.000113   0.000024  -0.000000  -0.000000   0.000000
    31  H    0.000153  -0.001966  -0.000049   0.000000  -0.000000   0.000000
    32  H   -0.000661   0.000050   0.000005  -0.000000   0.000000  -0.000000
    33  H    0.020600   0.000108   0.000076  -0.000000   0.000000   0.000000
              13         14         15         16         17         18
     1  Zr  -0.039578  -0.020444  -0.082566  -0.125468  -0.078185  -0.027322
     2  O    0.186932   0.263368   0.292285   0.004686  -0.040118  -0.014254
     3  O    0.001676  -0.017418  -0.000696  -0.000487   0.007707   0.003720
     4  O   -0.015700  -0.008793   0.001248   0.345152   0.218867   0.198546
     5  O   -0.000684   0.001936   0.000575   0.003225   0.001249  -0.000628
     6  Si   0.036446   0.029668  -0.000330  -0.423671  -0.454539  -0.450342
     7  Si   0.007443   0.009627  -0.002619   0.003761  -0.000839  -0.000642
     8  Si  -0.094687  -0.366784  -0.304430  -0.010131   0.096402   0.074525
     9  Si   0.000299  -0.001470  -0.000682  -0.000979   0.002439   0.004164
    10  O    0.000000  -0.000002   0.000000   0.000005  -0.000002  -0.000003
    11  O    0.000017   0.000002  -0.000023  -0.000003   0.000002   0.000000
    12  O    0.000009   0.000016  -0.000015  -0.000001  -0.000006  -0.000001
    13  O    8.629161   0.087023  -0.090720   0.003724  -0.030902  -0.045472
    14  O    0.087023   8.674912   0.055406   0.003680  -0.035987  -0.026892
    15  O   -0.090720   0.055406   8.776767  -0.000174   0.003588   0.001669
    16  O    0.003724   0.003680  -0.000174   8.902739  -0.091634  -0.115125
    17  O   -0.030902  -0.035987   0.003588  -0.091634   8.935427   0.227281
    18  O   -0.045472  -0.026892   0.001669  -0.115125   0.227281   9.012923
    19  O    0.000189  -0.000417   0.000137  -0.001579  -0.030235   0.000168
    20  O    0.000008  -0.000244   0.000038   0.000065  -0.000994   0.000014
    21  O   -0.000259   0.016190  -0.000591  -0.000214  -0.005535   0.000477
    22  H   -0.000000  -0.000000  -0.000000   0.000000   0.000000  -0.000000
    23  H    0.000000   0.000000  -0.000000  -0.000000   0.000000  -0.000000
    24  H   -0.000000   0.000000   0.000002   0.000000  -0.000000  -0.000000
    25  H    0.218167  -0.011955   0.008916  -0.000051   0.000634   0.014884
    26  H   -0.005141  -0.010092   0.217058   0.000000  -0.000003   0.000006
    27  H   -0.009747   0.219229   0.004629   0.000184   0.017907  -0.000264
    28  H   -0.000000  -0.000005  -0.000001  -0.000000   0.000004  -0.000000
    29  H    0.000798   0.017551  -0.002575  -0.000004  -0.000394   0.000006
    30  H    0.000001   0.000002   0.000000   0.000115  -0.000396  -0.000007
    31  H    0.002358   0.000167  -0.000018   0.003794  -0.000745   0.218168
    32  H   -0.000008  -0.000006   0.000000   0.233373  -0.003643   0.003885
    33  H    0.000229   0.002087  -0.000035  -0.000123   0.231061   0.002109
              19         20         21         22         23         24
     1  Zr   0.000458  -0.145437   0.036044  -0.008932  -0.007841  -0.005633
     2  O    0.009075  -0.000572   0.010528  -0.000017  -0.000012  -0.000177
     3  O    0.264614   0.163510   0.146551  -0.000009  -0.000005  -0.000011
     4  O    0.009999  -0.000866   0.003368  -0.000009  -0.000055   0.000004
     5  O    0.002094   0.001464   0.000222   0.005801  -0.025099  -0.005283
     6  Si  -0.007230   0.008936  -0.011695   0.000086   0.000088   0.000073
     7  Si  -0.407772  -0.108553   0.024399  -0.000183   0.000064   0.000053
     8  Si  -0.015986   0.009743  -0.040701   0.000087   0.000063  -0.000069
     9  Si   0.001051   0.003177  -0.001810   0.047355   0.080969   0.037455
    10  O    0.000008   0.000002   0.000001  -0.006677   0.228580   0.007304
    11  O   -0.000002  -0.000002   0.000001  -0.005042  -0.006102   0.242518
    12  O   -0.000022  -0.000033   0.000024   0.219835   0.005835  -0.007422
    13  O    0.000189   0.000008  -0.000259  -0.000000   0.000000  -0.000000
    14  O   -0.000417  -0.000244   0.016190  -0.000000   0.000000   0.000000
    15  O    0.000137   0.000038  -0.000591  -0.000000  -0.000000   0.000002
    16  O   -0.001579   0.000065  -0.000214   0.000000  -0.000000   0.000000
    17  O   -0.030235  -0.000994  -0.005535   0.000000   0.000000  -0.000000
    18  O    0.000168   0.000014   0.000477  -0.000000  -0.000000  -0.000000
    19  O    8.872718   0.032077   0.023512  -0.000000   0.000000  -0.000000
    20  O    0.032077   8.656716  -0.050421   0.000000   0.000000  -0.000000
    21  O    0.023512  -0.050421   8.485326  -0.000000   0.000000   0.000000
    22  H   -0.000000   0.000000  -0.000000   0.361891   0.000059   0.000122
    23  H    0.000000   0.000000   0.000000   0.000059   0.351157   0.000015
    24  H   -0.000000  -0.000000   0.000000   0.000122   0.000015   0.365159
    25  H   -0.000024   0.000000  -0.000019   0.000000   0.000000   0.000000
    26  H    0.000001  -0.000000   0.000039  -0.000000  -0.000000  -0.000000
    27  H    0.000026   0.000192  -0.004040  -0.000000  -0.000000   0.000000
    28  H    0.004618   0.229609  -0.002066  -0.000000   0.000000  -0.000000
    29  H   -0.008560   0.007665   0.206445   0.000000   0.000000  -0.000000
    30  H    0.224228  -0.001468  -0.007143   0.000000   0.000000  -0.000000
    31  H    0.000004  -0.000000  -0.000000  -0.000000  -0.000000   0.000000
    32  H    0.000097  -0.000000   0.000001  -0.000000  -0.000000  -0.000000
    33  H    0.014866  -0.000079   0.001468  -0.000000  -0.000000  -0.000000
              25         26         27         28         29         30
     1  Zr   0.017527   0.007221   0.004749   0.005093   0.004174   0.000707
     2  O   -0.020096   0.000601  -0.019208  -0.000011  -0.007104  -0.000012
     3  O   -0.000112   0.000015   0.000828  -0.018411  -0.020275   0.000081
     4  O   -0.000288  -0.000011  -0.001738  -0.000014  -0.000141  -0.000451
     5  O    0.000019  -0.000003   0.000011  -0.000015  -0.000073  -0.000008
     6  Si   0.002444  -0.000136   0.008691  -0.000280   0.000151  -0.000660
     7  Si  -0.000471  -0.000377   0.001304   0.056585   0.048106   0.040216
     8  Si   0.057320   0.046170   0.068279  -0.000072   0.021988   0.000113
     9  Si  -0.000214  -0.000041  -0.000010  -0.000135  -0.000056   0.000024
    10  O    0.000000  -0.000000   0.000000  -0.000000   0.000000  -0.000000
    11  O   -0.000000   0.000000  -0.000000  -0.000000   0.000000  -0.000000
    12  O   -0.000000  -0.000000  -0.000000  -0.000004  -0.000001   0.000000
    13  O    0.218167  -0.005141  -0.009747  -0.000000   0.000798   0.000001
    14  O   -0.011955  -0.010092   0.219229  -0.000005   0.017551   0.000002
    15  O    0.008916   0.217058   0.004629  -0.000001  -0.002575   0.000000
    16  O   -0.000051   0.000000   0.000184  -0.000000  -0.000004   0.000115
    17  O    0.000634  -0.000003   0.017907   0.000004  -0.000394  -0.000396
    18  O    0.014884   0.000006  -0.000264  -0.000000   0.000006  -0.000007
    19  O   -0.000024   0.000001   0.000026   0.004618  -0.008560   0.224228
    20  O    0.000000  -0.000000   0.000192   0.229609   0.007665  -0.001468
    21  O   -0.000019   0.000039  -0.004040  -0.002066   0.206445  -0.007143
    22  H    0.000000  -0.000000  -0.000000  -0.000000   0.000000   0.000000
    23  H    0.000000  -0.000000  -0.000000   0.000000   0.000000   0.000000
    24  H    0.000000  -0.000000   0.000000  -0.000000  -0.000000  -0.000000
    25  H    0.298964  -0.000012   0.000113   0.000000   0.000001   0.000000
    26  H   -0.000012   0.365998   0.000036   0.000000   0.000021  -0.000000
    27  H    0.000113   0.000036   0.283399  -0.000000  -0.001490   0.000009
    28  H    0.000000   0.000000  -0.000000   0.349185  -0.000017  -0.000016
    29  H    0.000001   0.000021  -0.001490  -0.000017   0.285910   0.000155
    30  H    0.000000  -0.000000   0.000009  -0.000016   0.000155   0.334263
    31  H   -0.000497   0.000000   0.000013  -0.000000   0.000000  -0.000000
    32  H   -0.000001   0.000000  -0.000000   0.000000  -0.000000  -0.000000
    33  H    0.000006  -0.000000  -0.002411  -0.000002   0.000099  -0.001156
              31         32         33
     1  Zr  -0.000112   0.002080  -0.016058
     2  O    0.000174  -0.000024   0.001023
     3  O   -0.000019   0.000040  -0.010075
     4  O   -0.018436   0.010403  -0.009561
     5  O   -0.000009   0.000000  -0.000100
     6  Si   0.063669   0.022902   0.053211
     7  Si   0.000153  -0.000661   0.020600
     8  Si  -0.001966   0.000050   0.000108
     9  Si  -0.000049   0.000005   0.000076
    10  O    0.000000  -0.000000  -0.000000
    11  O   -0.000000   0.000000   0.000000
    12  O    0.000000  -0.000000   0.000000
    13  O    0.002358  -0.000008   0.000229
    14  O    0.000167  -0.000006   0.002087
    15  O   -0.000018   0.000000  -0.000035
    16  O    0.003794   0.233373  -0.000123
    17  O   -0.000745  -0.003643   0.231061
    18  O    0.218168   0.003885   0.002109
    19  O    0.000004   0.000097   0.014866
    20  O   -0.000000  -0.000000  -0.000079
    21  O   -0.000000   0.000001   0.001468
    22  H   -0.000000  -0.000000  -0.000000
    23  H   -0.000000  -0.000000  -0.000000
    24  H    0.000000  -0.000000  -0.000000
    25  H   -0.000497  -0.000001   0.000006
    26  H    0.000000   0.000000  -0.000000
    27  H    0.000013  -0.000000  -0.002411
    28  H   -0.000000   0.000000  -0.000002
    29  H    0.000000  -0.000000   0.000099
    30  H   -0.000000  -0.000000  -0.001156
    31  H    0.331423   0.000001  -0.000038
    32  H    0.000001   0.349999   0.000157
    33  H   -0.000038   0.000157   0.269250
 Mulliken charges:
               1
     1  Zr   0.002139
     2  O   -0.548892
     3  O   -0.418725
     4  O   -0.680833
     5  O   -0.367073
     6  Si   2.230979
     7  Si   1.785787
     8  Si   2.017892
     9  Si   1.599405
    10  O   -0.843843
    11  O   -0.786771
    12  O   -0.791748
    13  O   -0.841583
    14  O   -0.880353
    15  O   -0.876840
    16  O   -0.734860
    17  O   -0.968411
    18  O   -1.081597
    19  O   -0.988113
    20  O   -0.804548
    21  O   -0.830104
    22  H    0.385632
    23  H    0.372285
    24  H    0.365888
    25  H    0.414744
    26  H    0.378650
    27  H    0.429311
    28  H    0.375953
    29  H    0.447618
    30  H    0.411402
    31  H    0.401966
    32  H    0.381349
    33  H    0.443291
 Sum of Mulliken charges =  -0.00000
 Mulliken charges with hydrogens summed into heavy atoms:
               1
     1  Zr   0.002139
     2  O   -0.548892
     3  O   -0.418725
     4  O   -0.680833
     5  O   -0.367073
     6  Si   2.230979
     7  Si   1.785787
     8  Si   2.017892
     9  Si   1.599405
    10  O   -0.471558
    11  O   -0.420883
    12  O   -0.406116
    13  O   -0.426839
    14  O   -0.451042
    15  O   -0.498190
    16  O   -0.353510
    17  O   -0.525119
    18  O   -0.679630
    19  O   -0.576711
    20  O   -0.428594
    21  O   -0.382485
 Electronic spatial extent (au):  <R**2>=           9869.8655
 Charge=              0.0000 electrons
 Dipole moment (field-independent basis, Debye):
    X=              1.1082    Y=             -0.7839    Z=             -2.4126  Tot=              2.7683
 Quadrupole moment (field-independent basis, Debye-Ang):
   XX=           -160.1723   YY=           -154.6081   ZZ=           -157.8452
   XY=             -4.9319   XZ=              2.1932   YZ=              5.6712
 Traceless Quadrupole moment (field-independent basis, Debye-Ang):
   XX=             -2.6304   YY=              2.9338   ZZ=             -0.3033
   XY=             -4.9319   XZ=              2.1932   YZ=              5.6712
 Octapole moment (field-independent basis, Debye-Ang**2):
  XXX=             74.3509  YYY=              6.5951  ZZZ=            -18.5167  XYY=             -1.8642
  XXY=             20.0119  XXZ=             19.5199  XZZ=              5.6641  YZZ=            -16.9742
  YYZ=            -15.8306  XYZ=             27.8220
 Hexadecapole moment (field-independent basis, Debye-Ang**3):
 XXXX=          -6032.9552 YYYY=          -2832.0071 ZZZZ=          -2266.5877 XXXY=             61.0275
 XXXZ=            -25.3455 YYYX=              4.2588 YYYZ=            215.8968 ZZZX=           -184.8175
 ZZZY=            -54.2710 XXYY=          -1484.4092 XXZZ=          -1359.5472 YYZZ=           -924.1972
 XXYZ=             -9.3192 YYXZ=            131.4877 ZZXY=            -62.7267
 N-N= 2.832789657829D+03 E-N=-1.137818207341D+04  KE= 2.373154698308D+03
 1\1\GINC-GRA389\FOpt\RB3LYP\Gen\H12O16Si4Zr1\SARASHS\14-Aug-2020\0\\#n
  B3LYP/Gen Pseudo=cards EmpiricalDispersion=GD3 Opt=modredundant\\Titl
 e\\0,1\Zr,0.6585641906,-0.121077859,-0.0958575442\O,-0.2407897113,-0.8
 071776584,1.4870379955\O,0.1132255621,1.747534262,-0.262145862\O,-0.25
 66568393,-1.0585539153,-1.5780315687\O,2.5916838255,-0.4391148339,-0.0
 716185415\Si,-1.8176276204,-1.4253276604,-1.9296896657\Si,-1.100264238
 7,2.8475311233,-0.2980071727\Si,-1.7492450777,-1.0096823708,2.12266565
 19\Si,4.2165985919,-0.2605081741,0.0033050257\O,4.945941114,-0.1814900
 905,-1.47578928\O,4.9028288029,-1.5673629862,0.7571442847\O,4.45504086
 64,1.1749967807,0.7807076821\O,-2.3478784862,-2.5000059427,1.784004331
 4\O,-2.737918346,0.1777147119,1.4779560023\O,-1.6386523109,-0.78196573
 93,3.7425275616\O,-1.9724389217,-1.7462202903,-3.5395900106\O,-2.81234
 24024,-0.2392018154,-1.3559130635\O,-2.3456931164,-2.7576941827,-1.085
 0366819\O,-2.0136702771,2.3717950996,-1.629269185\O,-0.6105414367,4.38
 89453003,-0.6002773701\O,-1.9646535758,2.851728987,1.0920938902\H,5.34
 24846296,1.548452099,0.7426377341\H,5.2913361453,-1.0134727221,-1.8187
 749301\H,4.473394739,-1.8933519398,1.5558856607\H,-2.4257966393,-2.740
 2419918,0.8432044747\H,-2.4289251581,-0.952224604,4.2664216735\H,-3.06
 58861975,-0.0215149837,0.5798206544\H,-0.507746471,4.9608751655,0.1688
 799662\H,-2.2750708434,1.9787641513,1.4120073402\H,-2.6153007163,3.043
 0516429,-1.9748049643\H,-2.3043351637,-3.601537703,-1.5490197861\H,-1.
 2351811688,-1.4854556729,-4.1027294932\H,-2.590993749,0.6886538128,-1.
 5966748095\\Version=ES64L-G16RevB.01\State=1-A\HF=-2416.9468563\RMSD=8
 .212e-09\RMSF=8.840e-06\Dipole=0.4380881,-0.3618809,-0.9291643\Quadrup
 ole=-1.9835069,2.6597082,-0.6762012,-3.572085,1.8378548,4.0408199\PG=C
 01 [X(H12O16Si4Zr1)]\\@


  THE LARGE PRINT GIVETH,
  AND THE SMALL PRINT TAKETH AWAY.

                     -- TOM WAITS
 Job cpu time:       0 days 18 hours 11 minutes 34.6 seconds.
 Elapsed time:       0 days  1 hours 20 minutes 21.2 seconds.
 File lengths (MBytes):  RWF=    167 Int=      0 D2E=      0 Chk=     21 Scr=      1
 Normal termination of Gaussian 16 at Fri Aug 14 04:38:14 2020.
