 Entering Gaussian System, Link 0=g16
 Initial command:
 /opt/software/gaussian/g16.b01/l1.exe "/localscratch/sarashs.37242643.0/Gau-229336.inp" -scrdir="/localscratch/sarashs.37242643.0/"
 Entering Link 1 = /opt/software/gaussian/g16.b01/l1.exe PID=    229341.
  
 Copyright (c) 1988-2017, Gaussian, Inc.  All Rights Reserved.
  
 This is part of the Gaussian(R) 16 program.  It is based on
 the Gaussian(R) 09 system (copyright 2009, Gaussian, Inc.),
 the Gaussian(R) 03 system (copyright 2003, Gaussian, Inc.),
 the Gaussian(R) 98 system (copyright 1998, Gaussian, Inc.),
 the Gaussian(R) 94 system (copyright 1995, Gaussian, Inc.),
 the Gaussian 92(TM) system (copyright 1992, Gaussian, Inc.),
 the Gaussian 90(TM) system (copyright 1990, Gaussian, Inc.),
 the Gaussian 88(TM) system (copyright 1988, Gaussian, Inc.),
 the Gaussian 86(TM) system (copyright 1986, Carnegie Mellon
 University), and the Gaussian 82(TM) system (copyright 1983,
 Carnegie Mellon University). Gaussian is a federally registered
 trademark of Gaussian, Inc.
  
 This software contains proprietary and confidential information,
 including trade secrets, belonging to Gaussian, Inc.
  
 This software is provided under written license and may be
 used, copied, transmitted, or stored only in accord with that
 written license.
  
 The following legend is applicable only to US Government
 contracts under FAR:
  
                    RESTRICTED RIGHTS LEGEND
  
 Use, reproduction and disclosure by the US Government is
 subject to restrictions as set forth in subparagraphs (a)
 and (c) of the Commercial Computer Software - Restricted
 Rights clause in FAR 52.227-19.
  
 Gaussian, Inc.
 340 Quinnipiac St., Bldg. 40, Wallingford CT 06492
  
  
 ---------------------------------------------------------------
 Warning -- This program may not be used in any manner that
 competes with the business of Gaussian, Inc. or will provide
 assistance to any competitor of Gaussian, Inc.  The licensee
 of this program is prohibited from giving any competitor of
 Gaussian, Inc. access to this program.  By using this program,
 the user acknowledges that Gaussian, Inc. is engaged in the
 business of creating and licensing software in the field of
 computational chemistry and represents and warrants to the
 licensee that it is not a competitor of Gaussian, Inc. and that
 it will not use this program in any manner prohibited above.
 ---------------------------------------------------------------
  

 Cite this work as:
 Gaussian 16, Revision B.01,
 M. J. Frisch, G. W. Trucks, H. B. Schlegel, G. E. Scuseria, 
 M. A. Robb, J. R. Cheeseman, G. Scalmani, V. Barone, 
 G. A. Petersson, H. Nakatsuji, X. Li, M. Caricato, A. V. Marenich, 
 J. Bloino, B. G. Janesko, R. Gomperts, B. Mennucci, H. P. Hratchian, 
 J. V. Ortiz, A. F. Izmaylov, J. L. Sonnenberg, D. Williams-Young, 
 F. Ding, F. Lipparini, F. Egidi, J. Goings, B. Peng, A. Petrone, 
 T. Henderson, D. Ranasinghe, V. G. Zakrzewski, J. Gao, N. Rega, 
 G. Zheng, W. Liang, M. Hada, M. Ehara, K. Toyota, R. Fukuda, 
 J. Hasegawa, M. Ishida, T. Nakajima, Y. Honda, O. Kitao, H. Nakai, 
 T. Vreven, K. Throssell, J. A. Montgomery, Jr., J. E. Peralta, 
 F. Ogliaro, M. J. Bearpark, J. J. Heyd, E. N. Brothers, K. N. Kudin, 
 V. N. Staroverov, T. A. Keith, R. Kobayashi, J. Normand, 
 K. Raghavachari, A. P. Rendell, J. C. Burant, S. S. Iyengar, 
 J. Tomasi, M. Cossi, J. M. Millam, M. Klene, C. Adamo, R. Cammi, 
 J. W. Ochterski, R. L. Martin, K. Morokuma, O. Farkas, 
 J. B. Foresman, and D. J. Fox, Gaussian, Inc., Wallingford CT, 2016.
 
 ******************************************
 Gaussian 16:  ES64L-G16RevB.01 20-Dec-2017
                14-Aug-2020 
 ******************************************
 %NProcShared=16
 Will use up to   16 processors via shared memory.
 ------------------------------------------------------------------
 #n B3LYP/Gen Pseudo=cards EmpiricalDispersion=GD3 Opt=modredundant
 ------------------------------------------------------------------
 1/18=120,19=15,26=3,38=1/1,3;
 2/9=110,12=2,17=6,18=5,40=1/2;
 3/5=7,11=2,16=1,17=8,25=1,30=1,71=1,74=-5,124=31/1,2,3;
 4//1;
 5/5=2,38=5/2;
 6/7=2,8=2,9=2,10=2,28=1/1;
 7//1,2,3,16;
 1/18=20,19=15,26=3/3(2);
 2/9=110/2;
 99//99;
 2/9=110/2;
 3/5=7,6=1,11=2,16=1,17=8,25=1,30=1,71=1,74=-5,82=7,124=31/1,2,3;
 4/5=5,16=3,69=1/1;
 5/5=2,38=5/2;
 7//1,2,3,16;
 1/18=20,19=15,26=3/3(-5);
 2/9=110/2;
 6/7=2,8=2,9=2,10=2,19=2,28=1/1;
 99/9=1/99;
 -----
 Title
 -----
 Symbolic Z-matrix:
 Charge =  0 Multiplicity = 1
 Zr                    0.65561  -0.16342   0.03593 
 O                    -0.17936  -1.26845   1.40221 
 O                     0.08106   1.66891   0.39549 
 O                    -0.29859  -0.68792  -1.6157 
 O                     2.59206  -0.4363   -0.08284 
 Si                   -1.86606  -0.98111  -2.00543 
 Si                   -1.14702   2.7114    0.69347 
 Si                   -1.66182  -1.66719   2.00534 
 Si                    4.21631  -0.26105   0.01252 
 O                     4.95566  -0.09972  -1.45475 
 O                     4.89877  -1.60704   0.69775 
 O                     4.44778   1.12944   0.86985 
 O                    -2.25254  -3.02465   1.29645 
 O                    -2.6878   -0.37228   1.73434 
 O                    -1.49729  -1.88062   3.62258 
 O                    -2.07335  -0.86112  -3.63679 
 O                    -2.85526  -0.0148   -1.10352 
 O                    -2.34666  -2.50262  -1.53486 
 O                    -2.1003    2.59048  -0.68837 
 O                    -0.68819   4.28773   0.80216 
 O                    -1.96206   2.32345   2.05905 
 H                     5.33501   1.50516   0.85865 
 H                     5.3042   -0.91111  -1.84112 
 H                     4.46373  -1.97795   1.47352 
 H                    -2.36027  -3.00519   0.32852 
 H                    -2.26637  -2.20281   4.10497 
 H                    -3.04426  -0.33007   0.82601 
 H                    -0.56576   4.63438   1.6933 
 H                    -2.25004   1.39017   2.14146 
 H                    -2.72232   3.3165   -0.82228 
 H                    -2.31099  -3.18973  -2.20989 
 H                    -1.35971  -0.4428   -4.13116 
 H                    -2.6545    0.94823  -1.09232 
 
 The following ModRedundant input section has been read:
 A       1       5       9 F                                                   
 

 GradGradGradGradGradGradGradGradGradGradGradGradGradGradGradGradGradGrad
 Berny optimization.
 Initialization pass.
                           ----------------------------
                           !    Initial Parameters    !
                           ! (Angstroms and Degrees)  !
 --------------------------                            --------------------------
 ! Name  Definition              Value          Derivative Info.                !
 --------------------------------------------------------------------------------
 ! R1    R(1,2)                  1.9455         estimate D2E/DX2                !
 ! R2    R(1,3)                  1.9537         estimate D2E/DX2                !
 ! R3    R(1,4)                  1.9783         estimate D2E/DX2                !
 ! R4    R(1,5)                  1.9592         estimate D2E/DX2                !
 ! R5    R(2,8)                  1.6494         estimate D2E/DX2                !
 ! R6    R(3,7)                  1.6382         estimate D2E/DX2                !
 ! R7    R(4,6)                  1.6416         estimate D2E/DX2                !
 ! R8    R(5,9)                  1.6365         estimate D2E/DX2                !
 ! R9    R(6,16)                 1.6488         estimate D2E/DX2                !
 ! R10   R(6,17)                 1.651          estimate D2E/DX2                !
 ! R11   R(6,18)                 1.6636         estimate D2E/DX2                !
 ! R12   R(7,19)                 1.6831         estimate D2E/DX2                !
 ! R13   R(7,20)                 1.6453         estimate D2E/DX2                !
 ! R14   R(7,21)                 1.6369         estimate D2E/DX2                !
 ! R15   R(8,13)                 1.6414         estimate D2E/DX2                !
 ! R16   R(8,14)                 1.6742         estimate D2E/DX2                !
 ! R17   R(8,15)                 1.6395         estimate D2E/DX2                !
 ! R18   R(9,10)                 1.6509         estimate D2E/DX2                !
 ! R19   R(9,11)                 1.6574         estimate D2E/DX2                !
 ! R20   R(9,12)                 1.6499         estimate D2E/DX2                !
 ! R21   R(10,23)                0.9639         estimate D2E/DX2                !
 ! R22   R(11,24)                0.9637         estimate D2E/DX2                !
 ! R23   R(12,22)                0.9636         estimate D2E/DX2                !
 ! R24   R(13,25)                0.9741         estimate D2E/DX2                !
 ! R25   R(14,27)                0.9767         estimate D2E/DX2                !
 ! R26   R(15,26)                0.9633         estimate D2E/DX2                !
 ! R27   R(16,32)                0.9637         estimate D2E/DX2                !
 ! R28   R(17,33)                0.9838         estimate D2E/DX2                !
 ! R29   R(18,31)                0.9639         estimate D2E/DX2                !
 ! R30   R(19,30)                0.9654         estimate D2E/DX2                !
 ! R31   R(20,28)                0.964          estimate D2E/DX2                !
 ! R32   R(21,29)                0.9802         estimate D2E/DX2                !
 ! A1    A(2,1,3)              106.0961         estimate D2E/DX2                !
 ! A2    A(2,1,4)              103.2217         estimate D2E/DX2                !
 ! A3    A(2,1,5)              112.809          estimate D2E/DX2                !
 ! A4    A(3,1,4)              105.098          estimate D2E/DX2                !
 ! A5    A(3,1,5)              115.624          estimate D2E/DX2                !
 ! A6    A(4,1,5)              112.9051         estimate D2E/DX2                !
 ! A7    A(1,2,8)              141.2478         estimate D2E/DX2                !
 ! A8    A(1,3,7)              148.2955         estimate D2E/DX2                !
 ! A9    A(1,4,6)              134.9211         estimate D2E/DX2                !
 ! A10   A(1,5,9)              164.275          Frozen                          !
 ! A11   A(4,6,16)             109.9949         estimate D2E/DX2                !
 ! A12   A(4,6,17)             109.7477         estimate D2E/DX2                !
 ! A13   A(4,6,18)             111.8422         estimate D2E/DX2                !
 ! A14   A(16,6,17)            114.9974         estimate D2E/DX2                !
 ! A15   A(16,6,18)            108.0658         estimate D2E/DX2                !
 ! A16   A(17,6,18)            101.9873         estimate D2E/DX2                !
 ! A17   A(3,7,19)             103.2695         estimate D2E/DX2                !
 ! A18   A(3,7,20)             114.3702         estimate D2E/DX2                !
 ! A19   A(3,7,21)             111.9733         estimate D2E/DX2                !
 ! A20   A(19,7,20)            106.3205         estimate D2E/DX2                !
 ! A21   A(19,7,21)            112.6979         estimate D2E/DX2                !
 ! A22   A(20,7,21)            108.1071         estimate D2E/DX2                !
 ! A23   A(2,8,13)             111.4368         estimate D2E/DX2                !
 ! A24   A(2,8,14)             107.736          estimate D2E/DX2                !
 ! A25   A(2,8,15)             107.5761         estimate D2E/DX2                !
 ! A26   A(13,8,14)            110.4388         estimate D2E/DX2                !
 ! A27   A(13,8,15)            110.7607         estimate D2E/DX2                !
 ! A28   A(14,8,15)            108.7751         estimate D2E/DX2                !
 ! A29   A(5,9,10)             113.7768         estimate D2E/DX2                !
 ! A30   A(5,9,11)             110.2316         estimate D2E/DX2                !
 ! A31   A(5,9,12)             105.0573         estimate D2E/DX2                !
 ! A32   A(10,9,11)            105.2125         estimate D2E/DX2                !
 ! A33   A(10,9,12)            108.46           estimate D2E/DX2                !
 ! A34   A(11,9,12)            114.3199         estimate D2E/DX2                !
 ! A35   A(9,10,23)            115.8441         estimate D2E/DX2                !
 ! A36   A(9,11,24)            117.3556         estimate D2E/DX2                !
 ! A37   A(9,12,22)            116.857          estimate D2E/DX2                !
 ! A38   A(8,13,25)            116.8995         estimate D2E/DX2                !
 ! A39   A(8,14,27)            114.0562         estimate D2E/DX2                !
 ! A40   A(8,15,26)            117.2174         estimate D2E/DX2                !
 ! A41   A(6,16,32)            116.4907         estimate D2E/DX2                !
 ! A42   A(6,17,33)            117.1868         estimate D2E/DX2                !
 ! A43   A(6,18,31)            116.3082         estimate D2E/DX2                !
 ! A44   A(7,19,30)            115.1374         estimate D2E/DX2                !
 ! A45   A(7,20,28)            116.1676         estimate D2E/DX2                !
 ! A46   A(7,21,29)            116.2369         estimate D2E/DX2                !
 ! D1    D(3,1,2,8)             57.7297         estimate D2E/DX2                !
 ! D2    D(4,1,2,8)            -52.5301         estimate D2E/DX2                !
 ! D3    D(5,1,2,8)           -174.7064         estimate D2E/DX2                !
 ! D4    D(2,1,3,7)            -50.0986         estimate D2E/DX2                !
 ! D5    D(4,1,3,7)             58.8314         estimate D2E/DX2                !
 ! D6    D(5,1,3,7)           -175.9646         estimate D2E/DX2                !
 ! D7    D(2,1,4,6)             42.7685         estimate D2E/DX2                !
 ! D8    D(3,1,4,6)            -68.2313         estimate D2E/DX2                !
 ! D9    D(5,1,4,6)            164.8804         estimate D2E/DX2                !
 ! D10   D(2,1,5,9)           -106.9249         estimate D2E/DX2                !
 ! D11   D(3,1,5,9)             15.4383         estimate D2E/DX2                !
 ! D12   D(4,1,5,9)            136.5205         estimate D2E/DX2                !
 ! D13   D(1,2,8,13)            93.5301         estimate D2E/DX2                !
 ! D14   D(1,2,8,14)           -27.7658         estimate D2E/DX2                !
 ! D15   D(1,2,8,15)          -144.8804         estimate D2E/DX2                !
 ! D16   D(1,3,7,19)           -61.101          estimate D2E/DX2                !
 ! D17   D(1,3,7,20)          -176.1749         estimate D2E/DX2                !
 ! D18   D(1,3,7,21)            60.4102         estimate D2E/DX2                !
 ! D19   D(1,4,6,16)           160.167          estimate D2E/DX2                !
 ! D20   D(1,4,6,17)            32.6926         estimate D2E/DX2                !
 ! D21   D(1,4,6,18)           -79.7423         estimate D2E/DX2                !
 ! D22   D(1,5,9,10)          -112.4784         estimate D2E/DX2                !
 ! D23   D(1,5,9,11)           129.6194         estimate D2E/DX2                !
 ! D24   D(1,5,9,12)             6.0005         estimate D2E/DX2                !
 ! D25   D(4,6,16,32)          -14.2            estimate D2E/DX2                !
 ! D26   D(17,6,16,32)         110.2974         estimate D2E/DX2                !
 ! D27   D(18,6,16,32)        -136.5532         estimate D2E/DX2                !
 ! D28   D(4,6,17,33)           51.0098         estimate D2E/DX2                !
 ! D29   D(16,6,17,33)         -73.6173         estimate D2E/DX2                !
 ! D30   D(18,6,17,33)         169.717          estimate D2E/DX2                !
 ! D31   D(4,6,18,31)          -96.4419         estimate D2E/DX2                !
 ! D32   D(16,6,18,31)          24.7717         estimate D2E/DX2                !
 ! D33   D(17,6,18,31)         146.3496         estimate D2E/DX2                !
 ! D34   D(3,7,19,30)         -162.1835         estimate D2E/DX2                !
 ! D35   D(20,7,19,30)         -41.4662         estimate D2E/DX2                !
 ! D36   D(21,7,19,30)          76.7956         estimate D2E/DX2                !
 ! D37   D(3,7,20,28)          -98.4265         estimate D2E/DX2                !
 ! D38   D(19,7,20,28)         148.2949         estimate D2E/DX2                !
 ! D39   D(21,7,20,28)          27.0452         estimate D2E/DX2                !
 ! D40   D(3,7,21,29)          -49.9005         estimate D2E/DX2                !
 ! D41   D(19,7,21,29)          66.0155         estimate D2E/DX2                !
 ! D42   D(20,7,21,29)        -176.7755         estimate D2E/DX2                !
 ! D43   D(2,8,13,25)          -58.4674         estimate D2E/DX2                !
 ! D44   D(14,8,13,25)          61.2406         estimate D2E/DX2                !
 ! D45   D(15,8,13,25)        -178.1888         estimate D2E/DX2                !
 ! D46   D(2,8,14,27)           80.2915         estimate D2E/DX2                !
 ! D47   D(13,8,14,27)         -41.625          estimate D2E/DX2                !
 ! D48   D(15,8,14,27)        -163.3758         estimate D2E/DX2                !
 ! D49   D(2,8,15,26)         -174.1995         estimate D2E/DX2                !
 ! D50   D(13,8,15,26)         -52.1893         estimate D2E/DX2                !
 ! D51   D(14,8,15,26)          69.3651         estimate D2E/DX2                !
 ! D52   D(5,9,10,23)          -94.8502         estimate D2E/DX2                !
 ! D53   D(11,9,10,23)          25.9079         estimate D2E/DX2                !
 ! D54   D(12,9,10,23)         148.64           estimate D2E/DX2                !
 ! D55   D(5,9,11,24)          -43.8205         estimate D2E/DX2                !
 ! D56   D(10,9,11,24)        -166.8799         estimate D2E/DX2                !
 ! D57   D(12,9,11,24)          74.2393         estimate D2E/DX2                !
 ! D58   D(5,9,12,22)         -166.4771         estimate D2E/DX2                !
 ! D59   D(10,9,12,22)         -44.4742         estimate D2E/DX2                !
 ! D60   D(11,9,12,22)          72.5545         estimate D2E/DX2                !
 --------------------------------------------------------------------------------
 Trust Radius=3.00D-01 FncErr=1.00D-07 GrdErr=1.00D-06 EigMax=2.50D+02 EigMin=1.00D-04
 Number of steps in this run=    148 maximum allowed number of steps=    198.
 GradGradGradGradGradGradGradGradGradGradGradGradGradGradGradGradGradGrad

                          Input orientation:                          
 ---------------------------------------------------------------------
 Center     Atomic      Atomic             Coordinates (Angstroms)
 Number     Number       Type             X           Y           Z
 ---------------------------------------------------------------------
      1         40           0        0.655610   -0.163420    0.035930
      2          8           0       -0.179360   -1.268450    1.402210
      3          8           0        0.081060    1.668910    0.395490
      4          8           0       -0.298590   -0.687920   -1.615700
      5          8           0        2.592060   -0.436300   -0.082840
      6         14           0       -1.866060   -0.981110   -2.005430
      7         14           0       -1.147020    2.711400    0.693470
      8         14           0       -1.661820   -1.667190    2.005340
      9         14           0        4.216310   -0.261050    0.012520
     10          8           0        4.955660   -0.099720   -1.454750
     11          8           0        4.898770   -1.607040    0.697750
     12          8           0        4.447780    1.129440    0.869850
     13          8           0       -2.252540   -3.024650    1.296450
     14          8           0       -2.687800   -0.372280    1.734340
     15          8           0       -1.497290   -1.880620    3.622580
     16          8           0       -2.073350   -0.861120   -3.636790
     17          8           0       -2.855260   -0.014800   -1.103520
     18          8           0       -2.346660   -2.502620   -1.534860
     19          8           0       -2.100300    2.590480   -0.688370
     20          8           0       -0.688190    4.287730    0.802160
     21          8           0       -1.962060    2.323450    2.059050
     22          1           0        5.335010    1.505160    0.858650
     23          1           0        5.304200   -0.911110   -1.841120
     24          1           0        4.463730   -1.977950    1.473520
     25          1           0       -2.360270   -3.005190    0.328520
     26          1           0       -2.266370   -2.202810    4.104970
     27          1           0       -3.044260   -0.330070    0.826010
     28          1           0       -0.565760    4.634380    1.693300
     29          1           0       -2.250040    1.390170    2.141460
     30          1           0       -2.722320    3.316500   -0.822280
     31          1           0       -2.310990   -3.189730   -2.209890
     32          1           0       -1.359710   -0.442800   -4.131160
     33          1           0       -2.654500    0.948230   -1.092320
 ---------------------------------------------------------------------
                    Distance matrix (angstroms):
                    1          2          3          4          5
     1  Zr   0.000000
     2  O    1.945504   0.000000
     3  O    1.953669   3.115989   0.000000
     4  O    1.978252   3.075551   3.121485   0.000000
     5  O    1.959186   3.252478   3.311469   3.281590   0.000000
     6  Si   3.345831   3.813074   4.071646   1.641588   4.885489
     7  Si   3.456360   4.156667   1.638218   4.196126   4.948878
     8  Si   3.392695   1.649378   4.093753   3.991152   4.896027
     9  Si   3.562115   4.718899   4.579487   4.818469   1.636458
    10  O    4.551551   5.991376   5.505739   5.289521   2.753548
    11  O    4.530613   5.137929   5.833827   5.762758   2.702011
    12  O    4.092366   5.238674   4.425414   5.657631   2.608229
    13  O    4.269998   2.719099   5.318545   4.214125   5.663228
    14  O    3.755877   2.684344   3.691282   4.126829   5.584189
    15  O    4.521926   2.653627   5.050194   5.504452   5.704295
    16  O    4.628486   5.398577   5.225114   2.695288   5.880228
    17  O    3.694136   3.874372   3.701876   2.692950   5.558124
    18  O    4.117385   3.853147   5.198244   2.737565   5.546981
    19  O    3.962779   4.790812   2.604299   3.854090   5.616610
    20  O    4.712286   5.611604   2.759591   5.545713   5.818911
    21  O    4.138808   4.063398   2.714810   5.033813   5.739680
    22  H    5.035654   6.196503   5.276867   6.532186   3.489906
    23  H    5.068703   6.380933   6.240202   5.611763   3.266909
    24  H    4.456564   4.697527   5.802545   5.821267   2.881335
    25  H    4.154130   2.987548   5.273688   3.660636   5.594103
    26  H    5.408712   3.540276   5.853280   6.236434   6.653018
    27  H    3.786956   3.069237   3.734822   3.691708   5.710114
    28  H    5.220872   5.922621   3.301015   6.272778   6.232038
    29  H    3.910205   3.449995   2.925771   4.716234   5.632889
    30  H    4.925117   5.695329   3.472241   4.747564   6.547741
    31  H    4.796142   4.613288   6.009683   3.265252   6.012123
    32  H    4.637263   5.717789   5.198625   2.741094   5.657334
    33  H    3.669542   4.154837   3.196286   2.915686   5.519272
                    6          7          8          9         10
     6  Si   0.000000
     7  Si   4.629871   0.000000
     8  Si   4.074150   4.599790   0.000000
     9  Si   6.448708   6.169640   6.364038   0.000000
    10  O    6.900432   7.054073   7.630218   1.650923   0.000000
    11  O    7.311764   7.429705   6.689899   1.657402   2.628404
    12  O    7.251636   5.816829   6.814520   1.649865   2.678160
    13  O    3.902286   5.872651   1.641394   7.150663   8.251210
    14  O    3.877088   3.600902   1.674177   7.116444   8.286559
    15  O    5.711358   5.457932   1.639539   6.949875   8.401872
    16  O    1.648849   5.689652   5.714257   7.296394   7.399190
    17  O    1.650973   3.685027   3.717486   7.163329   7.819274
    18  O    1.663552   5.795739   3.701346   7.105744   7.687927
    19  O    3.813892   1.683106   5.057281   6.965776   7.590197
    20  O    6.085278   1.645343   6.152777   6.735655   7.496426
    21  O    5.239211   1.636950   4.002279   7.002869   8.128554
    22  H    8.138790   6.595378   7.767518   2.255421   2.841015
    23  H    7.172484   7.820803   7.993269   2.245454   0.963906
    24  H    7.291298   7.353842   6.156441   2.267925   3.513475
    25  H    3.128652   5.855302   2.256059   7.133131   8.071223
    26  H    6.244180   6.086110   2.249626   7.908459   9.353673
    27  H    3.135133   3.587147   2.256069   7.306326   8.321878
    28  H    6.848731   2.243964   6.403788   7.046875   7.925150
    29  H    4.792401   2.249217   3.116405   7.005183   8.189909
    30  H    4.538995   2.268306   5.827286   7.851136   8.427452
    31  H    2.262249   6.678897   4.528544   7.491456   7.932377
    32  H    2.250532   5.768125   6.264745   6.949469   6.867661
    33  H    2.275469   2.927509   4.173887   7.063360   7.690519
                   11         12         13         14         15
    11  O    0.000000
    12  O    2.778729   0.000000
    13  O    7.315005   7.895109   0.000000
    14  O    7.755978   7.342956   2.723282   0.000000
    15  O    7.038399   7.209843   2.700016   2.694040   0.000000
    16  O    8.243488   8.172960   5.389789   5.428218   7.353209
    17  O    8.118176   7.651004   3.896450   2.865185   5.259409
    18  O    7.634322   8.070868   2.880571   3.916937   5.263791
    19  O    8.278133   6.887673   5.957548   3.872031   6.240084
    20  O    8.122397   6.029724   7.494159   5.155879   6.830663
    21  O    8.023271   6.627662   5.410001   2.810533   4.509417
    22  H    3.146742   0.963570   8.847698   8.285958   8.110681
    23  H    2.663560   3.499523   8.450782   8.771905   8.777940
    24  H    0.963666   3.165524   6.799648   7.334206   6.337325
    25  H    7.401677   7.983592   0.974101   3.002636   3.586115
    26  H    7.956338   8.163927   2.926328   3.024621   0.963323
    27  H    8.046044   7.633004   2.847612   0.976683   3.552200
    28  H    8.355090   6.172379   7.852608   5.437958   6.858214
    29  H    7.884989   6.822446   4.494962   1.861078   3.668571
    30  H    9.199606   7.684847   6.702230   4.488273   6.947484
    31  H    7.933468   8.591915   3.510710   4.861786   6.032709
    32  H    7.990144   7.823617   6.076351   6.014390   7.887125
    33  H    8.172248   7.370572   4.653125   3.120074   5.618880
                   16         17         18         19         20
    16  O    0.000000
    17  O    2.783002   0.000000
    18  O    2.680920   2.575651   0.000000
    19  O    4.539543   2.744048   5.168840   0.000000
    20  O    6.937838   5.180692   7.370281   2.663905   0.000000
    21  O    6.526597   4.033245   6.029516   2.763826   2.657238
    22  H    8.982876   8.558090   8.988840   7.671703   6.635121
    23  H    7.593100   8.241615   7.820637   8.271432   8.362034
    24  H    8.372335   8.003918   7.463715   8.284371   8.139518
    25  H    4.516973   3.352340   1.930012   5.693257   7.497124
    26  H    7.859532   5.680013   5.648364   6.780805   7.451598
    27  H    4.597963   1.964231   3.283341   3.422575   5.184179
    28  H    7.802769   5.888878   8.033019   3.493521   0.963995
    29  H    6.203846   3.587496   5.355229   3.077516   3.553724
    30  H    5.078891   3.345793   5.874610   0.965373   2.778449
    31  H    2.741339   3.405946   0.963877   5.980823   8.223037
    32  H    0.963678   3.403889   3.457991   4.647802   6.867787
    33  H    3.175816   0.983797   3.492703   1.779691   4.313663
                   21         22         23         24         25
    21  O    0.000000
    22  H    7.440282   0.000000
    23  H    8.858456   3.623268   0.000000
    24  H    7.754719   3.642698   3.582091   0.000000
    25  H    5.616735   8.935414   8.236298   6.995229   0.000000
    26  H    4.976487   9.059173   9.712775   7.229754   3.861891
    27  H    3.119730   8.577954   8.783392   7.713928   2.805638
    28  H    2.724670   6.731103   8.814818   8.310655   7.965295
    29  H    0.980171   7.693621   8.844398   7.540894   4.755848
    30  H    3.141052   8.427754   9.128841   9.216356   6.435774
    31  H    6.981458   9.482576   7.957337   7.805943   2.545586
    32  H    6.806884   8.573916   7.061961   8.226881   5.239820
    33  H    3.507397   8.243102   8.207238   8.112661   4.211281
                   26         27         28         29         30
    26  H    0.000000
    27  H    3.855366   0.000000
    28  H    7.446838   5.616130   0.000000
    29  H    4.094526   2.306604   3.682736   0.000000
    30  H    7.412723   4.014720   3.565908   3.566167   0.000000
    31  H    6.391671   4.234623   8.916132   6.317709   6.665259
    32  H    8.470744   5.236788   7.767396   6.595319   5.190157
    33  H    6.090281   2.337938   5.070524   3.288804   2.384580
                   31         32         33
    31  H    0.000000
    32  H    3.484514   0.000000
    33  H    4.299962   3.584131   0.000000
 Stoichiometry    H12O16Si4Zr
 Framework group  C1[X(H12O16Si4Zr)]
 Deg. of freedom    93
 Full point group                 C1      NOp   1
 Largest Abelian subgroup         C1      NOp   1
 Largest concise Abelian subgroup C1      NOp   1
                         Standard orientation:                         
 ---------------------------------------------------------------------
 Center     Atomic      Atomic             Coordinates (Angstroms)
 Number     Number       Type             X           Y           Z
 ---------------------------------------------------------------------
      1         40           0        0.657838   -0.124532   -0.073451
      2          8           0       -0.221104   -0.914587    1.471949
      3          8           0        0.102146    1.748000   -0.114093
      4          8           0       -0.269143   -0.970419   -1.602719
      5          8           0        2.592248   -0.434782   -0.088004
      6         14           0       -1.832182   -1.322800   -1.959861
      7         14           0       -1.116864    2.841410   -0.066878
      8         14           0       -1.721348   -1.165460    2.109740
      9         14           0        4.216496   -0.259281    0.006927
     10          8           0        4.988477   -0.412417   -1.444328
     11          8           0        4.865246   -1.440740    0.971427
     12          8           0        4.449889    1.276294    0.563337
     13          8           0       -2.316496   -2.634516    1.683307
     14          8           0       -2.722866    0.055119    1.552949
     15          8           0       -1.593605   -1.040969    3.739548
     16          8           0       -2.003711   -1.541212   -3.585154
     17          8           0       -2.826055   -0.181170   -1.300611
     18          8           0       -2.344156   -2.709182   -1.196163
     19          8           0       -2.042783    2.446193   -1.415701
     20          8           0       -0.637936    4.401575   -0.275843
     21          8           0       -1.965629    2.752523    1.330012
     22          1           0        5.342434    1.632965    0.495387
     23          1           0        5.333368   -1.289553   -1.646312
     24          1           0        4.408889   -1.638756    1.796764
     25          1           0       -2.403752   -2.814863    0.730032
     26          1           0       -2.377089   -1.248846    4.260058
     27          1           0       -3.059689   -0.088228    0.647459
     28          1           0       -0.529158    4.924038    0.526956
     29          1           0       -2.268560    1.859360    1.596898
     30          1           0       -2.651448    3.134723   -1.711333
     31          1           0       -2.304248   -3.521487   -1.713488
     32          1           0       -1.274028   -1.241238   -4.138555
     33          1           0       -2.611841    0.761322   -1.484125
 ---------------------------------------------------------------------
 Rotational constants (GHZ):           0.2124161           0.1338527           0.1240596
 General basis read from cards:  (5D, 7F)
 ======================================================================================================
                                       Pseudopotential Parameters
 ======================================================================================================
  Center     Atomic      Valence      Angular      Power
  Number     Number     Electrons     Momentum     of R      Exponent        Coefficient   SO-Coeffient
 ======================================================================================================
    1         40           12
                                      G and up 
                                                     2        1.0000000        0.00000000    0.00000000
                                      S - G
                                                     2        8.6365280      150.24299400    0.00000000
                                                     2        3.7176390       18.78003600    0.00000000
                                      P - G
                                                     2        7.6267280       33.19279100    0.00000000
                                                     2        7.4532070       66.38903900    0.00000000
                                                     2        3.3583890        4.62072600    0.00000000
                                                     2        3.2297380        9.26027000    0.00000000
                                      D - G
                                                     2        5.9380860       13.99338300    0.00000000
                                                     2        5.8255440       20.99588200    0.00000000
                                                     2        2.2050190        2.28516600    0.00000000
                                                     2        2.2062920        3.44126000    0.00000000
                                      F - G
                                                     2        4.8002150       -5.23932000    0.00000000
                                                     2        4.7989920       -6.98742400    0.00000000
    2          8
                                   No pseudopotential on this center.
    3          8
                                   No pseudopotential on this center.
    4          8
                                   No pseudopotential on this center.
    5          8
                                   No pseudopotential on this center.
    6         14
                                   No pseudopotential on this center.
    7         14
                                   No pseudopotential on this center.
    8         14
                                   No pseudopotential on this center.
    9         14
                                   No pseudopotential on this center.
   10          8
                                   No pseudopotential on this center.
   11          8
                                   No pseudopotential on this center.
   12          8
                                   No pseudopotential on this center.
   13          8
                                   No pseudopotential on this center.
   14          8
                                   No pseudopotential on this center.
   15          8
                                   No pseudopotential on this center.
   16          8
                                   No pseudopotential on this center.
   17          8
                                   No pseudopotential on this center.
   18          8
                                   No pseudopotential on this center.
   19          8
                                   No pseudopotential on this center.
   20          8
                                   No pseudopotential on this center.
   21          8
                                   No pseudopotential on this center.
   22          1
                                   No pseudopotential on this center.
   23          1
                                   No pseudopotential on this center.
   24          1
                                   No pseudopotential on this center.
   25          1
                                   No pseudopotential on this center.
   26          1
                                   No pseudopotential on this center.
   27          1
                                   No pseudopotential on this center.
   28          1
                                   No pseudopotential on this center.
   29          1
                                   No pseudopotential on this center.
   30          1
                                   No pseudopotential on this center.
   31          1
                                   No pseudopotential on this center.
   32          1
                                   No pseudopotential on this center.
   33          1
                                   No pseudopotential on this center.
 ======================================================================================================
 There are   570 symmetry adapted cartesian basis functions of A   symmetry.
 There are   524 symmetry adapted basis functions of A   symmetry.
   524 basis functions,  1074 primitive gaussians,   570 cartesian basis functions
   104 alpha electrons      104 beta electrons
       nuclear repulsion energy      2833.0643050732 Hartrees.
 NAtoms=   33 NActive=   33 NUniq=   33 SFac= 1.00D+00 NAtFMM=   60 NAOKFM=F Big=F
 Integral buffers will be    131072 words long.
 Raffenetti 2 integral format.
 Two-electron integral symmetry is turned on.
 Nuclear repulsion after empirical dispersion term =     2833.0234826697 Hartrees.
 One-electron integrals computed using PRISM.
 PrsmSu:  requested number of processors reduced to:   4 ShMem   1 Linda.
   1 Symmetry operations used in ECPInt.
 ECPInt:  NShTT=   13203 NPrTT=   78401 LenC2=   11531 LenP2D=   44644.
 LDataN:  DoStor=T MaxTD1= 8 Len=  415
 Number of processors reduced to  13 by ecpmxn.
 NBasis=   524 RedAO= T EigKep=  3.11D-05  NBF=   524
 NBsUse=   524 1.00D-06 EigRej= -1.00D+00 NBFU=   524
 Defaulting to unpruned grid for atomic number  40.
 ExpMin= 1.01D-02 ExpMax= 1.61D+04 ExpMxC= 2.43D+03 IAcc=3 IRadAn=         5 AccDes= 0.00D+00
 Harris functional with IExCor=  402 and IRadAn=       5 diagonalized for initial guess.
 HarFok:  IExCor=  402 AccDes= 0.00D+00 IRadAn=         5 IDoV= 1 UseB2=F ITyADJ=14
 ICtDFT=  3500011 ScaDFX=  1.000000  1.000000  1.000000  1.000000
 Defaulting to unpruned grid for atomic number  40.
 FoFCou: FMM=F IPFlag=           0 FMFlag=      100000 FMFlg1=           0
         NFxFlg=           0 DoJE=T BraDBF=F KetDBF=T FulRan=T
         wScrn=  0.000000 ICntrl=       500 IOpCl=  0 I1Cent=   200000004 NGrid=           0
         NMat0=    1 NMatS0=      1 NMatT0=    0 NMatD0=    1 NMtDS0=    0 NMtDT0=    0
 Petite list used in FoFCou.
 Requested convergence on RMS density matrix=1.00D-08 within 128 cycles.
 Requested convergence on MAX density matrix=1.00D-06.
 Requested convergence on             energy=1.00D-06.
 No special actions if energy rises.
 Defaulting to unpruned grid for atomic number  40.
 Defaulting to unpruned grid for atomic number  40.
 Defaulting to unpruned grid for atomic number  40.
 Defaulting to unpruned grid for atomic number  40.
 Defaulting to unpruned grid for atomic number  40.
 Defaulting to unpruned grid for atomic number  40.
 Defaulting to unpruned grid for atomic number  40.
 Defaulting to unpruned grid for atomic number  40.
 Defaulting to unpruned grid for atomic number  40.
 Defaulting to unpruned grid for atomic number  40.
 Defaulting to unpruned grid for atomic number  40.
 Defaulting to unpruned grid for atomic number  40.
 Defaulting to unpruned grid for atomic number  40.
 Defaulting to unpruned grid for atomic number  40.
 Defaulting to unpruned grid for atomic number  40.
 Defaulting to unpruned grid for atomic number  40.
 SCF Done:  E(RB3LYP) =  -2416.94679822     A.U. after   14 cycles
            NFock= 14  Conv=0.25D-08     -V/T= 2.0185

 **********************************************************************

            Population analysis using the SCF Density.

 **********************************************************************

 Orbital symmetries:
       Occupied  (A) (A) (A) (A) (A) (A) (A) (A) (A) (A) (A) (A)
                 (A) (A) (A) (A) (A) (A) (A) (A) (A) (A) (A) (A)
                 (A) (A) (A) (A) (A) (A) (A) (A) (A) (A) (A) (A)
                 (A) (A) (A) (A) (A) (A) (A) (A) (A) (A) (A) (A)
                 (A) (A) (A) (A) (A) (A) (A) (A) (A) (A) (A) (A)
                 (A) (A) (A) (A) (A) (A) (A) (A) (A) (A) (A) (A)
                 (A) (A) (A) (A) (A) (A) (A) (A) (A) (A) (A) (A)
                 (A) (A) (A) (A) (A) (A) (A) (A) (A) (A) (A) (A)
                 (A) (A) (A) (A) (A) (A) (A) (A)
       Virtual   (A) (A) (A) (A) (A) (A) (A) (A) (A) (A) (A) (A)
                 (A) (A) (A) (A) (A) (A) (A) (A) (A) (A) (A) (A)
                 (A) (A) (A) (A) (A) (A) (A) (A) (A) (A) (A) (A)
                 (A) (A) (A) (A) (A) (A) (A) (A) (A) (A) (A) (A)
                 (A) (A) (A) (A) (A) (A) (A) (A) (A) (A) (A) (A)
                 (A) (A) (A) (A) (A) (A) (A) (A) (A) (A) (A) (A)
                 (A) (A) (A) (A) (A) (A) (A) (A) (A) (A) (A) (A)
                 (A) (A) (A) (A) (A) (A) (A) (A) (A) (A) (A) (A)
                 (A) (A) (A) (A) (A) (A) (A) (A) (A) (A) (A) (A)
                 (A) (A) (A) (A) (A) (A) (A) (A) (A) (A) (A) (A)
                 (A) (A) (A) (A) (A) (A) (A) (A) (A) (A) (A) (A)
                 (A) (A) (A) (A) (A) (A) (A) (A) (A) (A) (A) (A)
                 (A) (A) (A) (A) (A) (A) (A) (A) (A) (A) (A) (A)
                 (A) (A) (A) (A) (A) (A) (A) (A) (A) (A) (A) (A)
                 (A) (A) (A) (A) (A) (A) (A) (A) (A) (A) (A) (A)
                 (A) (A) (A) (A) (A) (A) (A) (A) (A) (A) (A) (A)
                 (A) (A) (A) (A) (A) (A) (A) (A) (A) (A) (A) (A)
                 (A) (A) (A) (A) (A) (A) (A) (A) (A) (A) (A) (A)
                 (A) (A) (A) (A) (A) (A) (A) (A) (A) (A) (A) (A)
                 (A) (A) (A) (A) (A) (A) (A) (A) (A) (A) (A) (A)
                 (A) (A) (A) (A) (A) (A) (A) (A) (A) (A) (A) (A)
                 (A) (A) (A) (A) (A) (A) (A) (A) (A) (A) (A) (A)
                 (A) (A) (A) (A) (A) (A) (A) (A) (A) (A) (A) (A)
                 (A) (A) (A) (A) (A) (A) (A) (A) (A) (A) (A) (A)
                 (A) (A) (A) (A) (A) (A) (A) (A) (A) (A) (A) (A)
                 (A) (A) (A) (A) (A) (A) (A) (A) (A) (A) (A) (A)
                 (A) (A) (A) (A) (A) (A) (A) (A) (A) (A) (A) (A)
                 (A) (A) (A) (A) (A) (A) (A) (A) (A) (A) (A) (A)
                 (A) (A) (A) (A) (A) (A) (A) (A) (A) (A) (A) (A)
                 (A) (A) (A) (A) (A) (A) (A) (A) (A) (A) (A) (A)
                 (A) (A) (A) (A) (A) (A) (A) (A) (A) (A) (A) (A)
                 (A) (A) (A) (A) (A) (A) (A) (A) (A) (A) (A) (A)
                 (A) (A) (A) (A) (A) (A) (A) (A) (A) (A) (A) (A)
                 (A) (A) (A) (A) (A) (A) (A) (A) (A) (A) (A) (A)
                 (A) (A) (A) (A) (A) (A) (A) (A) (A) (A) (A) (A)
 The electronic state is 1-A.
 Alpha  occ. eigenvalues --  -66.22795 -66.21762 -66.21485 -66.21066 -19.18581
 Alpha  occ. eigenvalues --  -19.18354 -19.17769 -19.17023 -19.16737 -19.16524
 Alpha  occ. eigenvalues --  -19.16421 -19.16231 -19.16205 -19.16041 -19.16003
 Alpha  occ. eigenvalues --  -19.15506 -19.15339 -19.15287 -19.14914 -19.14721
 Alpha  occ. eigenvalues --   -5.36855  -5.35843  -5.35562  -5.35126  -3.72839
 Alpha  occ. eigenvalues --   -3.72812  -3.72765  -3.71834  -3.71787  -3.71753
 Alpha  occ. eigenvalues --   -3.71531  -3.71522  -3.71483  -3.71091  -3.71082
 Alpha  occ. eigenvalues --   -3.71056  -2.13373  -1.29615  -1.29531  -1.29377
 Alpha  occ. eigenvalues --   -1.05672  -1.04779  -1.04144  -1.03524  -1.02552
 Alpha  occ. eigenvalues --   -1.02170  -1.01475  -1.00921  -1.00748  -1.00691
 Alpha  occ. eigenvalues --   -0.99851  -0.99321  -0.97372  -0.96280  -0.95735
 Alpha  occ. eigenvalues --   -0.95425  -0.60982  -0.59165  -0.58969  -0.58519
 Alpha  occ. eigenvalues --   -0.55528  -0.54535  -0.53860  -0.53055  -0.52979
 Alpha  occ. eigenvalues --   -0.52508  -0.52176  -0.51708  -0.48770  -0.47601
 Alpha  occ. eigenvalues --   -0.47209  -0.46749  -0.43376  -0.42665  -0.41859
 Alpha  occ. eigenvalues --   -0.41402  -0.41107  -0.40524  -0.39821  -0.39364
 Alpha  occ. eigenvalues --   -0.38799  -0.38692  -0.38630  -0.38153  -0.38036
 Alpha  occ. eigenvalues --   -0.37638  -0.37473  -0.37225  -0.36568  -0.36400
 Alpha  occ. eigenvalues --   -0.36040  -0.35600  -0.35514  -0.35109  -0.34873
 Alpha  occ. eigenvalues --   -0.34611  -0.34031  -0.33691  -0.33518  -0.33229
 Alpha  occ. eigenvalues --   -0.32852  -0.32176  -0.32064  -0.31316
 Alpha virt. eigenvalues --   -0.04323  -0.03179  -0.03054  -0.02749  -0.02088
 Alpha virt. eigenvalues --   -0.01177  -0.00559  -0.00106   0.00066   0.00303
 Alpha virt. eigenvalues --    0.00782   0.00896   0.01044   0.01940   0.02338
 Alpha virt. eigenvalues --    0.03292   0.03327   0.03840   0.03980   0.04033
 Alpha virt. eigenvalues --    0.04225   0.04607   0.05500   0.05890   0.06221
 Alpha virt. eigenvalues --    0.06465   0.07049   0.07520   0.07698   0.08659
 Alpha virt. eigenvalues --    0.08791   0.09090   0.09206   0.09659   0.09907
 Alpha virt. eigenvalues --    0.10283   0.10705   0.10893   0.11364   0.11687
 Alpha virt. eigenvalues --    0.11811   0.12600   0.13149   0.13323   0.13451
 Alpha virt. eigenvalues --    0.14003   0.14555   0.14815   0.15000   0.15229
 Alpha virt. eigenvalues --    0.15303   0.15704   0.16240   0.16717   0.16913
 Alpha virt. eigenvalues --    0.17361   0.17555   0.17735   0.18125   0.18387
 Alpha virt. eigenvalues --    0.18641   0.19053   0.19199   0.19672   0.19836
 Alpha virt. eigenvalues --    0.20090   0.20242   0.20536   0.20821   0.21260
 Alpha virt. eigenvalues --    0.21748   0.22121   0.22262   0.22423   0.22687
 Alpha virt. eigenvalues --    0.23168   0.23711   0.23990   0.24148   0.24532
 Alpha virt. eigenvalues --    0.24693   0.25040   0.25661   0.25962   0.26147
 Alpha virt. eigenvalues --    0.26599   0.26729   0.27029   0.27193   0.27549
 Alpha virt. eigenvalues --    0.27877   0.28322   0.28603   0.28776   0.29063
 Alpha virt. eigenvalues --    0.29484   0.29723   0.30045   0.30237   0.30690
 Alpha virt. eigenvalues --    0.30891   0.31333   0.31506   0.31805   0.31909
 Alpha virt. eigenvalues --    0.32426   0.32708   0.33087   0.33421   0.34026
 Alpha virt. eigenvalues --    0.34518   0.34863   0.35364   0.35524   0.36349
 Alpha virt. eigenvalues --    0.36689   0.37476   0.38064   0.38492   0.38839
 Alpha virt. eigenvalues --    0.39586   0.39766   0.40275   0.40984   0.41479
 Alpha virt. eigenvalues --    0.42882   0.43363   0.43672   0.44143   0.44615
 Alpha virt. eigenvalues --    0.45481   0.45547   0.46117   0.46561   0.47322
 Alpha virt. eigenvalues --    0.48012   0.48612   0.49001   0.49321   0.49507
 Alpha virt. eigenvalues --    0.50083   0.50849   0.51201   0.51340   0.53047
 Alpha virt. eigenvalues --    0.54093   0.54334   0.55149   0.56470   0.57241
 Alpha virt. eigenvalues --    0.58009   0.58468   0.58814   0.59168   0.60379
 Alpha virt. eigenvalues --    0.61126   0.61764   0.62196   0.64478   0.65875
 Alpha virt. eigenvalues --    0.67172   0.68125   0.68388   0.68558   0.69455
 Alpha virt. eigenvalues --    0.69913   0.70930   0.73152   0.74585   0.75019
 Alpha virt. eigenvalues --    0.75441   0.77237   0.78655   0.78879   0.80249
 Alpha virt. eigenvalues --    0.80932   0.81467   0.82633   0.84132   0.85210
 Alpha virt. eigenvalues --    0.86441   0.87778   0.89502   0.90522   0.91313
 Alpha virt. eigenvalues --    0.94566   0.95683   0.96186   0.96867   0.97507
 Alpha virt. eigenvalues --    0.98000   0.98598   0.99191   0.99704   1.00517
 Alpha virt. eigenvalues --    1.00932   1.01468   1.02420   1.03326   1.04061
 Alpha virt. eigenvalues --    1.04450   1.05371   1.06567   1.06704   1.08087
 Alpha virt. eigenvalues --    1.09798   1.12387   1.15247   1.16206   1.16533
 Alpha virt. eigenvalues --    1.18701   1.19039   1.19729   1.20605   1.20870
 Alpha virt. eigenvalues --    1.21449   1.21661   1.22374   1.22895   1.23014
 Alpha virt. eigenvalues --    1.23435   1.23853   1.24449   1.25099   1.25701
 Alpha virt. eigenvalues --    1.26157   1.27155   1.27241   1.28090   1.28499
 Alpha virt. eigenvalues --    1.28999   1.29771   1.30114   1.30700   1.31548
 Alpha virt. eigenvalues --    1.32442   1.32740   1.32931   1.33893   1.34542
 Alpha virt. eigenvalues --    1.35355   1.35915   1.36777   1.36999   1.37809
 Alpha virt. eigenvalues --    1.39075   1.39751   1.40220   1.41087   1.41462
 Alpha virt. eigenvalues --    1.42811   1.43773   1.44449   1.45145   1.46283
 Alpha virt. eigenvalues --    1.47007   1.48724   1.50505   1.51080   1.52732
 Alpha virt. eigenvalues --    1.56712   1.57103   1.57648   1.59268   1.59851
 Alpha virt. eigenvalues --    1.60111   1.61236   1.61795   1.62345   1.63113
 Alpha virt. eigenvalues --    1.63249   1.63897   1.65153   1.65407   1.66612
 Alpha virt. eigenvalues --    1.66734   1.67938   1.69395   1.69947   1.70194
 Alpha virt. eigenvalues --    1.71335   1.71432   1.71604   1.72366   1.73485
 Alpha virt. eigenvalues --    1.74283   1.74975   1.75411   1.76105   1.76888
 Alpha virt. eigenvalues --    1.77228   1.77665   1.78394   1.78620   1.79431
 Alpha virt. eigenvalues --    1.80728   1.81535   1.82253   1.82342   1.82964
 Alpha virt. eigenvalues --    1.83394   1.84884   1.85119   1.85907   1.86623
 Alpha virt. eigenvalues --    1.87135   1.88132   1.88302   1.89911   1.90508
 Alpha virt. eigenvalues --    1.91218   1.91304   1.92419   1.92825   1.93945
 Alpha virt. eigenvalues --    1.94611   1.95165   1.95863   1.97361   1.98371
 Alpha virt. eigenvalues --    1.99110   2.00499   2.01116   2.03274   2.03618
 Alpha virt. eigenvalues --    2.05983   2.06633   2.07845   2.09615   2.10424
 Alpha virt. eigenvalues --    2.11067   2.12981   2.13954   2.16047   2.16367
 Alpha virt. eigenvalues --    2.17805   2.18858   2.18975   2.20722   2.26210
 Alpha virt. eigenvalues --    2.32514   2.33491   2.35525   2.39478   2.40363
 Alpha virt. eigenvalues --    2.41216   2.41429   2.41833   2.42727   2.43667
 Alpha virt. eigenvalues --    2.44038   2.45805   2.46721   2.47701   2.48878
 Alpha virt. eigenvalues --    2.50221   2.50302   2.51686   2.52829   2.53354
 Alpha virt. eigenvalues --    2.55345   2.58053   2.59310   2.60084   2.60637
 Alpha virt. eigenvalues --    2.61099   2.61865   2.62042   2.62417   2.62797
 Alpha virt. eigenvalues --    2.63141   2.64029   2.64535   2.64984   2.65974
 Alpha virt. eigenvalues --    2.66350   2.66536   2.67318   2.67559   2.69377
 Alpha virt. eigenvalues --    2.69725   2.70287   2.71202   2.71677   2.72351
 Alpha virt. eigenvalues --    2.72774   2.74336   2.75545   2.76726   2.77455
 Alpha virt. eigenvalues --    2.78940   2.80466   2.81515   2.82465   2.83338
 Alpha virt. eigenvalues --    2.83790   2.84678   2.86663   2.87779   2.88123
 Alpha virt. eigenvalues --    3.14289   3.19647   3.35982   3.40985   3.46933
 Alpha virt. eigenvalues --    3.47936   3.48544   3.48736   3.51099   3.51150
 Alpha virt. eigenvalues --    3.52968   3.54505   3.60294   3.61083   3.62049
 Alpha virt. eigenvalues --    3.66192   4.28779   4.56704   7.85504  31.29200
          Condensed to atoms (all electrons):
               1          2          3          4          5          6
     1  Zr  15.102877  -0.157038  -0.002297  -0.156946  -0.190278  -0.528680
     2  O   -0.157038   9.085381   0.018754  -0.041676  -0.055209   0.093664
     3  O   -0.002297   0.018754   8.830859   0.013885  -0.040418  -0.007298
     4  O   -0.156946  -0.041676   0.013885   8.814912  -0.059401  -0.668663
     5  O   -0.190278  -0.055209  -0.040418  -0.059401   9.426362  -0.004192
     6  Si  -0.528680   0.093664  -0.007298  -0.668663  -0.004192  13.915405
     7  Si  -0.613285  -0.027911  -0.875846  -0.004886  -0.032863   0.083120
     8  Si  -0.537939  -1.010734  -0.021394   0.078865  -0.013074  -0.039394
     9  Si  -0.347982  -0.042273  -0.029103  -0.035121  -1.274655   0.036140
    10  O   -0.014683   0.001022  -0.001750   0.001405   0.138294  -0.001973
    11  O   -0.047379   0.003733   0.002708   0.000990   0.304573  -0.001291
    12  O    0.029755   0.000151   0.004527   0.002179   0.175416  -0.002238
    13  O   -0.052281   0.191315   0.001686  -0.015317  -0.000602   0.038994
    14  O   -0.029080   0.270198  -0.017615  -0.009029   0.002115   0.031471
    15  O   -0.075888   0.292075  -0.000777   0.001219   0.000496  -0.001543
    16  O   -0.130225   0.004627  -0.000463   0.343919   0.003129  -0.414855
    17  O   -0.088914  -0.039555   0.007814   0.222133   0.001380  -0.454312
    18  O   -0.033453  -0.013817   0.003737   0.200103  -0.000510  -0.451035
    19  O   -0.007512   0.009233   0.262007   0.010678   0.002171  -0.004870
    20  O   -0.148200  -0.000550   0.164649  -0.000894   0.001455   0.009209
    21  O    0.031912   0.010695   0.146846   0.003439   0.000276  -0.011246
    22  H   -0.008769  -0.000023  -0.000048  -0.000012   0.005629   0.000079
    23  H   -0.006810  -0.000014  -0.000010  -0.000054  -0.025654   0.000049
    24  H   -0.003397  -0.000286  -0.000009  -0.000005  -0.006602   0.000008
    25  H    0.018274  -0.020272  -0.000111  -0.000230   0.000019   0.002039
    26  H    0.007476   0.000442   0.000015  -0.000012  -0.000004  -0.000136
    27  H    0.007351  -0.019840   0.000884  -0.001699   0.000005   0.008034
    28  H    0.005224  -0.000011  -0.018609  -0.000015  -0.000016  -0.000291
    29  H    0.005511  -0.007160  -0.020400  -0.000147  -0.000074  -0.000008
    30  H    0.001240  -0.000014   0.000146  -0.000457  -0.000008  -0.000903
    31  H    0.000331   0.000156  -0.000019  -0.018409  -0.000009   0.063485
    32  H    0.001748  -0.000022   0.000038   0.010381   0.000002   0.023207
    33  H   -0.016368   0.000982  -0.010050  -0.009544  -0.000108   0.053663
               7          8          9         10         11         12
     1  Zr  -0.613285  -0.537939  -0.347982  -0.014683  -0.047379   0.029755
     2  O   -0.027911  -1.010734  -0.042273   0.001022   0.003733   0.000151
     3  O   -0.875846  -0.021394  -0.029103  -0.001750   0.002708   0.004527
     4  O   -0.004886   0.078865  -0.035121   0.001405   0.000990   0.002179
     5  O   -0.032863  -0.013074  -1.274655   0.138294   0.304573   0.175416
     6  Si   0.083120  -0.039394   0.036140  -0.001973  -0.001291  -0.002238
     7  Si  13.790217   0.179793   0.022618  -0.000044  -0.000659   0.004011
     8  Si   0.179793  13.785502   0.024998  -0.000616   0.001035  -0.000119
     9  Si   0.022618   0.024998  14.385801  -0.085014  -0.182068  -0.236447
    10  O   -0.000044  -0.000616  -0.085014   8.532267   0.015853   0.030543
    11  O   -0.000659   0.001035  -0.182068   0.015853   8.506865  -0.045317
    12  O    0.004011  -0.000119  -0.236447   0.030543  -0.045317   8.599137
    13  O    0.007680  -0.092928   0.000452  -0.000000   0.000018   0.000011
    14  O    0.010440  -0.373887  -0.001384  -0.000001  -0.000003   0.000021
    15  O   -0.003190  -0.308064  -0.000763   0.000000  -0.000029  -0.000024
    16  O    0.003952  -0.009780  -0.001011   0.000002   0.000000  -0.000001
    17  O   -0.000182   0.098664   0.002791  -0.000002  -0.000001  -0.000004
    18  O   -0.000432   0.074622   0.004426  -0.000005  -0.000005  -0.000001
    19  O   -0.402615  -0.014293   0.001153   0.000005  -0.000002   0.000000
    20  O   -0.107405   0.009775   0.003275  -0.000002  -0.000003   0.000028
    21  O    0.022801  -0.038397  -0.002040   0.000003   0.000001   0.000039
    22  H   -0.000264   0.000080   0.046286  -0.006367  -0.005389   0.220529
    23  H    0.000048   0.000063   0.080977   0.228588  -0.006499   0.006076
    24  H    0.000082  -0.000210   0.037079   0.007562   0.242351  -0.007721
    25  H   -0.000494   0.057404  -0.000218  -0.000000   0.000000  -0.000000
    26  H   -0.000369   0.045849  -0.000045   0.000000   0.000000  -0.000000
    27  H    0.000973   0.067869  -0.000026   0.000000  -0.000000  -0.000000
    28  H    0.056885  -0.000095  -0.000124  -0.000000  -0.000000  -0.000004
    29  H    0.048005   0.021189  -0.000053   0.000000   0.000000  -0.000001
    30  H    0.040056   0.000035   0.000024   0.000000  -0.000000   0.000000
    31  H    0.000150  -0.002026  -0.000060   0.000000   0.000000  -0.000000
    32  H   -0.000653   0.000071   0.000002  -0.000000   0.000000   0.000000
    33  H    0.020585   0.000214   0.000086  -0.000000   0.000000   0.000000
              13         14         15         16         17         18
     1  Zr  -0.052281  -0.029080  -0.075888  -0.130225  -0.088914  -0.033453
     2  O    0.191315   0.270198   0.292075   0.004627  -0.039555  -0.013817
     3  O    0.001686  -0.017615  -0.000777  -0.000463   0.007814   0.003737
     4  O   -0.015317  -0.009029   0.001219   0.343919   0.222133   0.200103
     5  O   -0.000602   0.002115   0.000496   0.003129   0.001380  -0.000510
     6  Si   0.038994   0.031471  -0.001543  -0.414855  -0.454312  -0.451035
     7  Si   0.007680   0.010440  -0.003190   0.003952  -0.000182  -0.000432
     8  Si  -0.092928  -0.373887  -0.308064  -0.009780   0.098664   0.074622
     9  Si   0.000452  -0.001384  -0.000763  -0.001011   0.002791   0.004426
    10  O   -0.000000  -0.000001   0.000000   0.000002  -0.000002  -0.000005
    11  O    0.000018  -0.000003  -0.000029   0.000000  -0.000001  -0.000005
    12  O    0.000011   0.000021  -0.000024  -0.000001  -0.000004  -0.000001
    13  O    8.631203   0.088062  -0.092019   0.003698  -0.030706  -0.044943
    14  O    0.088062   8.680262   0.055435   0.003652  -0.035618  -0.026681
    15  O   -0.092019   0.055435   8.777706  -0.000174   0.003596   0.001648
    16  O    0.003698   0.003652  -0.000174   8.898964  -0.091090  -0.115146
    17  O   -0.030706  -0.035618   0.003596  -0.091090   8.936208   0.228572
    18  O   -0.044943  -0.026681   0.001648  -0.115146   0.228572   9.016374
    19  O    0.000200  -0.000213   0.000134  -0.001549  -0.029705   0.000206
    20  O    0.000008  -0.000192   0.000038   0.000064  -0.000993   0.000015
    21  O   -0.000217   0.016034  -0.000643  -0.000217  -0.005569   0.000474
    22  H   -0.000000   0.000000  -0.000000   0.000000   0.000000  -0.000000
    23  H    0.000000   0.000000  -0.000000  -0.000000   0.000000  -0.000000
    24  H   -0.000000   0.000000   0.000002   0.000000   0.000000  -0.000000
    25  H    0.218111  -0.012058   0.008929  -0.000044   0.000605   0.014795
    26  H   -0.005133  -0.009993   0.217335   0.000000  -0.000003   0.000006
    27  H   -0.009928   0.218856   0.004627   0.000185   0.017850  -0.000288
    28  H   -0.000000  -0.000005  -0.000001  -0.000000   0.000004  -0.000000
    29  H    0.000784   0.017711  -0.002563  -0.000004  -0.000403   0.000005
    30  H    0.000001  -0.000006   0.000000   0.000120  -0.000392  -0.000008
    31  H    0.002335   0.000161  -0.000018   0.003862  -0.000822   0.217916
    32  H   -0.000007  -0.000006   0.000000   0.233436  -0.003646   0.003912
    33  H    0.000231   0.002026  -0.000035  -0.000119   0.230963   0.002099
              19         20         21         22         23         24
     1  Zr  -0.007512  -0.148200   0.031912  -0.008769  -0.006810  -0.003397
     2  O    0.009233  -0.000550   0.010695  -0.000023  -0.000014  -0.000286
     3  O    0.262007   0.164649   0.146846  -0.000048  -0.000010  -0.000009
     4  O    0.010678  -0.000894   0.003439  -0.000012  -0.000054  -0.000005
     5  O    0.002171   0.001455   0.000276   0.005629  -0.025654  -0.006602
     6  Si  -0.004870   0.009209  -0.011246   0.000079   0.000049   0.000008
     7  Si  -0.402615  -0.107405   0.022801  -0.000264   0.000048   0.000082
     8  Si  -0.014293   0.009775  -0.038397   0.000080   0.000063  -0.000210
     9  Si   0.001153   0.003275  -0.002040   0.046286   0.080977   0.037079
    10  O    0.000005  -0.000002   0.000003  -0.006367   0.228588   0.007562
    11  O   -0.000002  -0.000003   0.000001  -0.005389  -0.006499   0.242351
    12  O    0.000000   0.000028   0.000039   0.220529   0.006076  -0.007721
    13  O    0.000200   0.000008  -0.000217  -0.000000   0.000000  -0.000000
    14  O   -0.000213  -0.000192   0.016034   0.000000   0.000000   0.000000
    15  O    0.000134   0.000038  -0.000643  -0.000000  -0.000000   0.000002
    16  O   -0.001549   0.000064  -0.000217   0.000000  -0.000000   0.000000
    17  O   -0.029705  -0.000993  -0.005569   0.000000   0.000000   0.000000
    18  O    0.000206   0.000015   0.000474  -0.000000  -0.000000  -0.000000
    19  O    8.871353   0.031848   0.023845   0.000000   0.000000  -0.000000
    20  O    0.031848   8.656628  -0.050382   0.000001   0.000000  -0.000000
    21  O    0.023845  -0.050382   8.488109  -0.000000   0.000000   0.000000
    22  H    0.000000   0.000001  -0.000000   0.360726   0.000048   0.000120
    23  H    0.000000   0.000000   0.000000   0.000048   0.350470   0.000009
    24  H   -0.000000  -0.000000   0.000000   0.000120   0.000009   0.365002
    25  H   -0.000025   0.000000  -0.000020   0.000000   0.000000   0.000000
    26  H    0.000001  -0.000000   0.000038  -0.000000  -0.000000  -0.000000
    27  H    0.000010   0.000190  -0.004028  -0.000000  -0.000000  -0.000000
    28  H    0.004587   0.229561  -0.002113  -0.000000   0.000000  -0.000000
    29  H   -0.008573   0.007677   0.206396  -0.000000   0.000000   0.000000
    30  H    0.224315  -0.001496  -0.007140   0.000000  -0.000000   0.000000
    31  H    0.000004  -0.000000  -0.000000  -0.000000  -0.000000   0.000000
    32  H    0.000099   0.000000   0.000001  -0.000000  -0.000000  -0.000000
    33  H    0.014755  -0.000083   0.001470  -0.000000  -0.000000  -0.000000
              25         26         27         28         29         30
     1  Zr   0.018274   0.007476   0.007351   0.005224   0.005511   0.001240
     2  O   -0.020272   0.000442  -0.019840  -0.000011  -0.007160  -0.000014
     3  O   -0.000111   0.000015   0.000884  -0.018609  -0.020400   0.000146
     4  O   -0.000230  -0.000012  -0.001699  -0.000015  -0.000147  -0.000457
     5  O    0.000019  -0.000004   0.000005  -0.000016  -0.000074  -0.000008
     6  Si   0.002039  -0.000136   0.008034  -0.000291  -0.000008  -0.000903
     7  Si  -0.000494  -0.000369   0.000973   0.056885   0.048005   0.040056
     8  Si   0.057404   0.045849   0.067869  -0.000095   0.021189   0.000035
     9  Si  -0.000218  -0.000045  -0.000026  -0.000124  -0.000053   0.000024
    10  O   -0.000000   0.000000   0.000000  -0.000000   0.000000   0.000000
    11  O    0.000000   0.000000  -0.000000  -0.000000   0.000000  -0.000000
    12  O   -0.000000  -0.000000  -0.000000  -0.000004  -0.000001   0.000000
    13  O    0.218111  -0.005133  -0.009928  -0.000000   0.000784   0.000001
    14  O   -0.012058  -0.009993   0.218856  -0.000005   0.017711  -0.000006
    15  O    0.008929   0.217335   0.004627  -0.000001  -0.002563   0.000000
    16  O   -0.000044   0.000000   0.000185  -0.000000  -0.000004   0.000120
    17  O    0.000605  -0.000003   0.017850   0.000004  -0.000403  -0.000392
    18  O    0.014795   0.000006  -0.000288  -0.000000   0.000005  -0.000008
    19  O   -0.000025   0.000001   0.000010   0.004587  -0.008573   0.224315
    20  O    0.000000  -0.000000   0.000190   0.229561   0.007677  -0.001496
    21  O   -0.000020   0.000038  -0.004028  -0.002113   0.206396  -0.007140
    22  H    0.000000  -0.000000  -0.000000  -0.000000  -0.000000   0.000000
    23  H    0.000000  -0.000000  -0.000000   0.000000   0.000000  -0.000000
    24  H    0.000000  -0.000000  -0.000000  -0.000000   0.000000   0.000000
    25  H    0.298765  -0.000013   0.000119   0.000000   0.000001   0.000000
    26  H   -0.000013   0.365710   0.000037   0.000000   0.000021  -0.000000
    27  H    0.000119   0.000037   0.283271  -0.000000  -0.001502   0.000010
    28  H    0.000000   0.000000  -0.000000   0.349256  -0.000016  -0.000016
    29  H    0.000001   0.000021  -0.001502  -0.000016   0.285980   0.000154
    30  H    0.000000  -0.000000   0.000010  -0.000016   0.000154   0.334195
    31  H   -0.000489   0.000000   0.000013   0.000000   0.000000  -0.000000
    32  H   -0.000001   0.000000  -0.000000   0.000000  -0.000000  -0.000000
    33  H    0.000006  -0.000000  -0.002404  -0.000002   0.000100  -0.001154
              31         32         33
     1  Zr   0.000331   0.001748  -0.016368
     2  O    0.000156  -0.000022   0.000982
     3  O   -0.000019   0.000038  -0.010050
     4  O   -0.018409   0.010381  -0.009544
     5  O   -0.000009   0.000002  -0.000108
     6  Si   0.063485   0.023207   0.053663
     7  Si   0.000150  -0.000653   0.020585
     8  Si  -0.002026   0.000071   0.000214
     9  Si  -0.000060   0.000002   0.000086
    10  O    0.000000  -0.000000  -0.000000
    11  O    0.000000   0.000000   0.000000
    12  O   -0.000000   0.000000   0.000000
    13  O    0.002335  -0.000007   0.000231
    14  O    0.000161  -0.000006   0.002026
    15  O   -0.000018   0.000000  -0.000035
    16  O    0.003862   0.233436  -0.000119
    17  O   -0.000822  -0.003646   0.230963
    18  O    0.217916   0.003912   0.002099
    19  O    0.000004   0.000099   0.014755
    20  O   -0.000000   0.000000  -0.000083
    21  O   -0.000000   0.000001   0.001470
    22  H   -0.000000  -0.000000  -0.000000
    23  H   -0.000000  -0.000000  -0.000000
    24  H    0.000000  -0.000000  -0.000000
    25  H   -0.000489  -0.000001   0.000006
    26  H    0.000000   0.000000  -0.000000
    27  H    0.000013  -0.000000  -0.002404
    28  H    0.000000   0.000000  -0.000002
    29  H    0.000000  -0.000000   0.000100
    30  H   -0.000000  -0.000000  -0.001154
    31  H    0.331358  -0.000001  -0.000038
    32  H   -0.000001   0.349741   0.000157
    33  H   -0.000038   0.000157   0.269252
 Mulliken charges:
               1
     1  Zr  -0.014295
     2  O   -0.546025
     3  O   -0.412335
     4  O   -0.681595
     5  O   -0.357646
     6  Si   2.234363
     7  Si   1.779683
     8  Si   2.016921
     9  Si   1.592279
    10  O   -0.845085
    11  O   -0.789481
    12  O   -0.780546
    13  O   -0.840707
    14  O   -0.880674
    15  O   -0.877509
    16  O   -0.734928
    17  O   -0.968663
    18  O   -1.082588
    19  O   -0.987243
    20  O   -0.804221
    21  O   -0.830366
    22  H    0.387375
    23  H    0.372713
    24  H    0.366014
    25  H    0.414908
    26  H    0.378778
    27  H    0.429431
    28  H    0.375802
    29  H    0.447370
    30  H    0.411296
    31  H    0.402120
    32  H    0.381543
    33  H    0.443314
 Sum of Mulliken charges =  -0.00000
 Mulliken charges with hydrogens summed into heavy atoms:
               1
     1  Zr  -0.014295
     2  O   -0.546025
     3  O   -0.412335
     4  O   -0.681595
     5  O   -0.357646
     6  Si   2.234363
     7  Si   1.779683
     8  Si   2.016921
     9  Si   1.592279
    10  O   -0.472372
    11  O   -0.423467
    12  O   -0.393171
    13  O   -0.425799
    14  O   -0.451243
    15  O   -0.498731
    16  O   -0.353386
    17  O   -0.525349
    18  O   -0.680468
    19  O   -0.575948
    20  O   -0.428419
    21  O   -0.382996
 Electronic spatial extent (au):  <R**2>=           9868.8207
 Charge=             -0.0000 electrons
 Dipole moment (field-independent basis, Debye):
    X=              1.0406    Y=             -0.6208    Z=             -2.1462  Tot=              2.4646
 Quadrupole moment (field-independent basis, Debye-Ang):
   XX=           -160.3688   YY=           -154.6589   ZZ=           -157.9568
   XY=             -4.4277   XZ=              2.7931   YZ=              5.9340
 Traceless Quadrupole moment (field-independent basis, Debye-Ang):
   XX=             -2.7073   YY=              3.0026   ZZ=             -0.2953
   XY=             -4.4277   XZ=              2.7931   YZ=              5.9340
 Octapole moment (field-independent basis, Debye-Ang**2):
  XXX=             74.1041  YYY=              6.8122  ZZZ=            -10.7006  XYY=              0.8222
  XXY=             21.0535  XXZ=             17.9296  XZZ=              1.1680  YZZ=            -15.7675
  YYZ=            -21.2793  XYZ=             28.5998
 Hexadecapole moment (field-independent basis, Debye-Ang**3):
 XXXX=          -6025.4559 YYYY=          -2844.0310 ZZZZ=          -2258.7529 XXXY=             52.9062
 XXXZ=            -49.3640 YYYX=             -0.0037 YYYZ=            231.3627 ZZZX=           -145.9481
 ZZZY=            -64.3174 XXYY=          -1450.7984 XXZZ=          -1400.2806 YYZZ=           -922.1125
 XXYZ=             -7.0444 YYXZ=            100.5048 ZZXY=            -50.4587
 N-N= 2.833023482670D+03 E-N=-1.137863733488D+04  KE= 2.373154898845D+03
 PrsmSu:  requested number of processors reduced to:   2 ShMem   1 Linda.
 PrsmSu:  requested number of processors reduced to:  10 ShMem   1 Linda.
   1 Symmetry operations used in ECPInt.
 ECPInt:  NShTT=   13203 NPrTT=   78401 LenC2=   11531 LenP2D=   44644.
 LDataN:  DoStor=T MaxTD1= 9 Len=  602
 Number of processors reduced to  14 by ecpmxn.
 Calling FoFJK, ICntrl=      2127 FMM=F ISym2X=0 I1Cent= 0 IOpClX= 0 NMat=1 NMatS=1 NMatT=0.
 CoulSu:  requested number of processors reduced to:  10 ShMem   1 Linda.
 Defaulting to unpruned grid for atomic number  40.
 Defaulting to unpruned grid for atomic number  40.
 Defaulting to unpruned grid for atomic number  40.
 Defaulting to unpruned grid for atomic number  40.
 Defaulting to unpruned grid for atomic number  40.
 Defaulting to unpruned grid for atomic number  40.
 Defaulting to unpruned grid for atomic number  40.
 Defaulting to unpruned grid for atomic number  40.
 Defaulting to unpruned grid for atomic number  40.
 Defaulting to unpruned grid for atomic number  40.
 Defaulting to unpruned grid for atomic number  40.
 Defaulting to unpruned grid for atomic number  40.
 Defaulting to unpruned grid for atomic number  40.
 Defaulting to unpruned grid for atomic number  40.
 Defaulting to unpruned grid for atomic number  40.
 Defaulting to unpruned grid for atomic number  40.
 ***** Axes restored to original set *****
 -------------------------------------------------------------------
 Center     Atomic                   Forces (Hartrees/Bohr)
 Number     Number              X              Y              Z
 -------------------------------------------------------------------
      1       40          -0.000088481    0.000061875   -0.000894938
      2        8           0.000084028    0.000010989    0.000285315
      3        8          -0.000050787   -0.000077677    0.000120021
      4        8           0.000005109    0.000039133    0.000174517
      5        8          -0.000105879    0.000047503    0.000609138
      6       14           0.000027839   -0.000013095   -0.000110590
      7       14           0.000069242    0.000043990   -0.000138683
      8       14          -0.000138857   -0.000082764   -0.000195923
      9       14           0.000103679   -0.000084501   -0.000508482
     10        8           0.000011197    0.000050460    0.000141690
     11        8           0.000016491    0.000094744    0.000076598
     12        8           0.000038963    0.000026468    0.000116371
     13        8           0.000022988    0.000066969    0.000075216
     14        8           0.000046831   -0.000019667    0.000050284
     15        8           0.000058538    0.000023329    0.000075608
     16        8          -0.000019342    0.000004103    0.000056841
     17        8          -0.000013055    0.000017894    0.000050407
     18        8          -0.000025066    0.000001938    0.000036463
     19        8          -0.000003136    0.000002888    0.000036377
     20        8          -0.000033431   -0.000010244    0.000038417
     21        8          -0.000008998   -0.000035357    0.000080652
     22        1          -0.000000391   -0.000018883   -0.000001207
     23        1          -0.000052756   -0.000017940   -0.000018276
     24        1           0.000012483   -0.000134603   -0.000015203
     25        1           0.000003407   -0.000009846   -0.000036376
     26        1          -0.000005984   -0.000003390   -0.000001776
     27        1           0.000000538    0.000009030   -0.000031649
     28        1           0.000009936    0.000004126   -0.000020467
     29        1          -0.000012685    0.000018119   -0.000020919
     30        1           0.000007230   -0.000001442   -0.000004939
     31        1           0.000015660    0.000000191   -0.000002208
     32        1           0.000024779   -0.000002647   -0.000013294
     33        1          -0.000000089   -0.000011693   -0.000008987
 -------------------------------------------------------------------
 Cartesian Forces:  Max     0.000894938 RMS     0.000136628

 GradGradGradGradGradGradGradGradGradGradGradGradGradGradGradGradGradGrad
 Berny optimization.
 FormGI is forming the generalized inverse of G from B-inverse, IUseBI=4.
 Internal  Forces:  Max     0.000502098 RMS     0.000079834
 Search for a local minimum.
 Step number   1 out of a maximum of  148
 All quantities printed in internal units (Hartrees-Bohrs-Radians)
 Mixed Optimization -- En-DIIS/RFO-DIIS
 Second derivative matrix not updated -- first step.
 ITU=  0
     Eigenvalues ---    0.00230   0.00230   0.00230   0.00230   0.03240
     Eigenvalues ---    0.03358   0.03498   0.03580   0.03665   0.03666
     Eigenvalues ---    0.03680   0.03686   0.03693   0.03739   0.03789
     Eigenvalues ---    0.03792   0.03816   0.03834   0.03850   0.03857
     Eigenvalues ---    0.08405   0.09407   0.11077   0.11224   0.11819
     Eigenvalues ---    0.11833   0.11884   0.12136   0.12177   0.12239
     Eigenvalues ---    0.12563   0.12783   0.12895   0.13099   0.13313
     Eigenvalues ---    0.16000   0.16000   0.16000   0.16000   0.16000
     Eigenvalues ---    0.16000   0.16000   0.16000   0.16000   0.16000
     Eigenvalues ---    0.16000   0.16000   0.19173   0.19893   0.20028
     Eigenvalues ---    0.20179   0.20203   0.20203   0.20208   0.20515
     Eigenvalues ---    0.20653   0.20795   0.20989   0.21175   0.21186
     Eigenvalues ---    0.21263   0.25000   0.25000   0.25000   0.38003
     Eigenvalues ---    0.39187   0.40660   0.41547   0.42502   0.42510
     Eigenvalues ---    0.42670   0.42744   0.42824   0.43363   0.43949
     Eigenvalues ---    0.43980   0.44274   0.44485   0.44689   0.44768
     Eigenvalues ---    0.50654   0.51352   0.52035   0.52548   0.54334
     Eigenvalues ---    0.54623   0.54642   0.54648   0.54690   0.54692
     Eigenvalues ---    0.54712   0.547651000.000001000.000001000.00000
     Eigenvalues --- 1000.000001000.000001000.000001000.000001000.00000
     Eigenvalues --- 1000.000001000.000001000.000001000.000001000.00000
     Eigenvalues --- 1000.000001000.000001000.000001000.000001000.00000
     Eigenvalues --- 1000.000001000.000001000.000001000.000001000.00000
     Eigenvalues --- 1000.000001000.000001000.000001000.000001000.00000
     Eigenvalues --- 1000.000001000.000001000.000001000.000001000.00000
     Eigenvalues --- 1000.000001000.000001000.000001000.000001000.00000
     Eigenvalues --- 1000.000001000.000001000.000001000.000001000.00000
     Eigenvalues --- 1000.000001000.000001000.00000
 RFO step:  Lambda=-2.96432037D-05 EMin= 2.30000000D-03
 Linear search not attempted -- first point.
 Iteration  1 RMS(Cart)=  0.04290817 RMS(Int)=  0.00072138
 Iteration  2 RMS(Cart)=  0.00118208 RMS(Int)=  0.00000055
 Iteration  3 RMS(Cart)=  0.00000063 RMS(Int)=  0.00000047
 Iteration  1 RMS(Cart)=  0.00000000 RMS(Int)=  0.00000000
 Variable       Old X    -DE/DX   Delta X   Delta X   Delta X     New X
                                 (Linear)    (Quad)   (Total)
    R1        3.67647   0.00013   0.00000   0.00061   0.00061   3.67708
    R2        3.69190  -0.00003   0.00000  -0.00015  -0.00015   3.69175
    R3        3.73835  -0.00017   0.00000  -0.00089  -0.00089   3.73747
    R4        3.70232   0.00000   0.00000   0.00001   0.00001   3.70234
    R5        3.11687  -0.00001   0.00000  -0.00003  -0.00003   3.11685
    R6        3.09578  -0.00001   0.00000  -0.00002  -0.00002   3.09576
    R7        3.10215  -0.00001   0.00000  -0.00003  -0.00003   3.10212
    R8        3.09246   0.00011   0.00000   0.00025   0.00025   3.09270
    R9        3.11587  -0.00004   0.00000  -0.00010  -0.00010   3.11577
   R10        3.11989   0.00003   0.00000   0.00008   0.00008   3.11996
   R11        3.14366   0.00001   0.00000   0.00003   0.00003   3.14369
   R12        3.18061  -0.00003   0.00000  -0.00007  -0.00007   3.18054
   R13        3.10925  -0.00001   0.00000  -0.00003  -0.00003   3.10922
   R14        3.09339   0.00007   0.00000   0.00015   0.00015   3.09353
   R15        3.10178  -0.00007   0.00000  -0.00017  -0.00017   3.10162
   R16        3.16374  -0.00004   0.00000  -0.00011  -0.00011   3.16363
   R17        3.09828   0.00008   0.00000   0.00017   0.00017   3.09845
   R18        3.11979  -0.00013   0.00000  -0.00029  -0.00029   3.11950
   R19        3.13204   0.00007   0.00000   0.00016   0.00016   3.13220
   R20        3.11779   0.00008   0.00000   0.00018   0.00018   3.11797
   R21        1.82152   0.00000   0.00000   0.00000   0.00000   1.82152
   R22        1.82107   0.00003   0.00000   0.00006   0.00006   1.82113
   R23        1.82088  -0.00001   0.00000  -0.00001  -0.00001   1.82087
   R24        1.84078   0.00004   0.00000   0.00007   0.00007   1.84085
   R25        1.84566   0.00003   0.00000   0.00006   0.00006   1.84572
   R26        1.82042   0.00000   0.00000   0.00001   0.00001   1.82042
   R27        1.82109   0.00002   0.00000   0.00004   0.00004   1.82113
   R28        1.85911  -0.00001   0.00000  -0.00003  -0.00003   1.85908
   R29        1.82146   0.00000   0.00000   0.00001   0.00001   1.82147
   R30        1.82429  -0.00000   0.00000  -0.00001  -0.00001   1.82428
   R31        1.82169  -0.00002   0.00000  -0.00003  -0.00003   1.82166
   R32        1.85225  -0.00001   0.00000  -0.00003  -0.00003   1.85223
    A1        1.85173  -0.00009   0.00000  -0.00140  -0.00140   1.85033
    A2        1.80156   0.00008   0.00000   0.00049   0.00049   1.80204
    A3        1.96889  -0.00026   0.00000  -0.00215  -0.00215   1.96674
    A4        1.83431  -0.00000   0.00000   0.00089   0.00089   1.83520
    A5        2.01802   0.00008   0.00000   0.00033   0.00033   2.01835
    A6        1.97057   0.00019   0.00000   0.00188   0.00188   1.97245
    A7        2.46524  -0.00006   0.00000  -0.00024  -0.00024   2.46500
    A8        2.58825   0.00003   0.00000   0.00013   0.00013   2.58838
    A9        2.35482  -0.00006   0.00000  -0.00025  -0.00025   2.35457
   A10        2.86714   0.00050   0.00000   0.00000   0.00000   2.86714
   A11        1.91977   0.00001   0.00000   0.00009   0.00009   1.91986
   A12        1.91546  -0.00001   0.00000  -0.00012  -0.00012   1.91534
   A13        1.95201  -0.00001   0.00000  -0.00009  -0.00009   1.95192
   A14        2.00708   0.00002   0.00000   0.00013   0.00013   2.00721
   A15        1.88610   0.00002   0.00000   0.00015   0.00015   1.88625
   A16        1.78001  -0.00002   0.00000  -0.00017  -0.00017   1.77985
   A17        1.80239   0.00002   0.00000   0.00012   0.00012   1.80251
   A18        1.99614   0.00003   0.00000   0.00019   0.00019   1.99632
[...]
 Alpha virt. eigenvalues --    3.47847   3.48600   3.48638   3.51053   3.51112
 Alpha virt. eigenvalues --    3.52872   3.54116   3.60310   3.61077   3.62062
 Alpha virt. eigenvalues --    3.66198   4.32721   4.59676   7.89966  31.29239
          Condensed to atoms (all electrons):
               1          2          3          4          5          6
     1  Zr  15.084999  -0.125317  -0.001411  -0.134930  -0.192282  -0.597442
     2  O   -0.125317   9.063767   0.019526  -0.042543  -0.057487   0.088667
     3  O   -0.001411   0.019526   8.828749   0.015806  -0.044001  -0.004214
     4  O   -0.134930  -0.042543   0.015806   8.809882  -0.060091  -0.673476
     5  O   -0.192282  -0.057487  -0.044001  -0.060091   9.428220  -0.007096
     6  Si  -0.597442   0.088667  -0.004214  -0.673476  -0.007096  13.984513
     7  Si  -0.615059  -0.028156  -0.876212  -0.007084  -0.033891   0.084270
     8  Si  -0.588626  -0.999295  -0.020266   0.071443  -0.014316  -0.017255
     9  Si  -0.320607  -0.040592  -0.026497  -0.033048  -1.231483   0.038669
    10  O   -0.014486   0.001027  -0.002028   0.000948   0.129481  -0.002386
    11  O   -0.064349   0.003412   0.002977   0.001213   0.312486  -0.000804
    12  O    0.042231  -0.000018   0.004697   0.002077   0.153529  -0.002975
    13  O   -0.036244   0.186266   0.001652  -0.015668  -0.000677   0.035557
    14  O   -0.017950   0.263467  -0.017649  -0.008776   0.001907   0.029052
    15  O   -0.083598   0.292930  -0.000698   0.001237   0.000583  -0.000047
    16  O   -0.124949   0.004686  -0.000498   0.344658   0.003208  -0.422836
    17  O   -0.081554  -0.039878   0.008007   0.218239   0.001311  -0.452562
    18  O   -0.026714  -0.014480   0.003732   0.198121  -0.000613  -0.450351
    19  O    0.001338   0.008970   0.264918   0.010242   0.002131  -0.007574
    20  O   -0.145830  -0.000576   0.163701  -0.000860   0.001476   0.009040
    21  O    0.036020   0.010315   0.146294   0.003409   0.000212  -0.011863
    22  H   -0.008941  -0.000018  -0.000014  -0.000009   0.005777   0.000086
    23  H   -0.007663  -0.000013  -0.000006  -0.000055  -0.025239   0.000086
    24  H   -0.005242  -0.000189  -0.000011   0.000003  -0.005487   0.000071
    25  H    0.017003  -0.020015  -0.000111  -0.000310   0.000019   0.002631
    26  H    0.007281   0.000631   0.000014  -0.000011  -0.000004  -0.000150
    27  H    0.004284  -0.019220   0.000841  -0.001701   0.000010   0.008766
    28  H    0.005082  -0.000011  -0.018402  -0.000014  -0.000015  -0.000282
    29  H    0.004196  -0.007067  -0.020275  -0.000141  -0.000073   0.000135
    30  H    0.000725  -0.000012   0.000065  -0.000453  -0.000008  -0.000660
    31  H   -0.000190   0.000172  -0.000020  -0.018450  -0.000009   0.063846
    32  H    0.002102  -0.000024   0.000040   0.010398   0.000001   0.022887
    33  H   -0.016049   0.001022  -0.010103  -0.009615  -0.000101   0.053313
               7          8          9         10         11         12
     1  Zr  -0.615059  -0.588626  -0.320607  -0.014486  -0.064349   0.042231
     2  O   -0.028156  -0.999295  -0.040592   0.001027   0.003412  -0.000018
     3  O   -0.876212  -0.020266  -0.026497  -0.002028   0.002977   0.004697
     4  O   -0.007084   0.071443  -0.033048   0.000948   0.001213   0.002077
     5  O   -0.033891  -0.014316  -1.231483   0.129481   0.312486   0.153529
     6  Si   0.084270  -0.017255   0.038669  -0.002386  -0.000804  -0.002975
     7  Si  13.796035   0.182237   0.019986  -0.000244  -0.000872   0.004013
     8  Si   0.182237  13.804731   0.026161  -0.000986   0.001187  -0.000827
     9  Si   0.019986   0.026161  14.256157  -0.068281  -0.179607  -0.211365
    10  O   -0.000244  -0.000986  -0.068281   8.525247   0.014970   0.031268
    11  O   -0.000872   0.001187  -0.179607   0.014970   8.516249  -0.051032
    12  O    0.004013  -0.000827  -0.211365   0.031268  -0.051032   8.600996
    13  O    0.007316  -0.095229   0.000224   0.000000   0.000018   0.000009
    14  O    0.009532  -0.368001  -0.001481  -0.000002   0.000001   0.000018
    15  O   -0.002561  -0.304693  -0.000632   0.000000  -0.000024  -0.000016
    16  O    0.003813  -0.010291  -0.001027   0.000005  -0.000003  -0.000001
    17  O   -0.000711   0.096800   0.002556  -0.000001   0.000002  -0.000006
    18  O   -0.000728   0.074671   0.004181  -0.000002  -0.000001  -0.000001
    19  O   -0.408989  -0.016056   0.001046   0.000007  -0.000002  -0.000022
    20  O   -0.108684   0.009653   0.003157   0.000003  -0.000003  -0.000029
    21  O    0.024459  -0.040172  -0.001807   0.000001   0.000001   0.000024
    22  H   -0.000185   0.000089   0.047243  -0.006524  -0.005085   0.219713
    23  H    0.000060   0.000062   0.081049   0.228545  -0.006129   0.005857
    24  H    0.000054  -0.000091   0.037292   0.007390   0.242549  -0.007465
    25  H   -0.000460   0.057436  -0.000211   0.000000  -0.000000  -0.000000
    26  H   -0.000381   0.046072  -0.000044  -0.000000   0.000000  -0.000000
    27  H    0.001329   0.068463  -0.000008   0.000000  -0.000000  -0.000000
    28  H    0.056613  -0.000068  -0.000135  -0.000000  -0.000000  -0.000004
    29  H    0.048130   0.021900  -0.000057   0.000000   0.000000  -0.000001
    30  H    0.040285   0.000111   0.000023  -0.000000   0.000000   0.000000
    31  H    0.000155  -0.001969  -0.000052   0.000000  -0.000000   0.000000
    32  H   -0.000665   0.000053   0.000008  -0.000000   0.000000  -0.000000
    33  H    0.020627   0.000106   0.000078  -0.000000   0.000000   0.000000
              13         14         15         16         17         18
     1  Zr  -0.036244  -0.017950  -0.083598  -0.124949  -0.081554  -0.026714
     2  O    0.186266   0.263467   0.292930   0.004686  -0.039878  -0.014480
     3  O    0.001652  -0.017649  -0.000698  -0.000498   0.008007   0.003732
     4  O   -0.015668  -0.008776   0.001237   0.344658   0.218239   0.198121
     5  O   -0.000677   0.001907   0.000583   0.003208   0.001311  -0.000613
     6  Si   0.035557   0.029052  -0.000047  -0.422836  -0.452562  -0.450351
     7  Si   0.007316   0.009532  -0.002561   0.003813  -0.000711  -0.000728
     8  Si  -0.095229  -0.368001  -0.304693  -0.010291   0.096800   0.074671
     9  Si   0.000224  -0.001481  -0.000632  -0.001027   0.002556   0.004181
    10  O    0.000000  -0.000002   0.000000   0.000005  -0.000001  -0.000002
    11  O    0.000018   0.000001  -0.000024  -0.000003   0.000002  -0.000001
    12  O    0.000009   0.000018  -0.000016  -0.000001  -0.000006  -0.000001
    13  O    8.628111   0.087152  -0.090597   0.003735  -0.030928  -0.045646
    14  O    0.087152   8.674446   0.055519   0.003668  -0.035875  -0.026860
    15  O   -0.090597   0.055519   8.777039  -0.000175   0.003602   0.001675
    16  O    0.003735   0.003668  -0.000175   8.901938  -0.091780  -0.115304
    17  O   -0.030928  -0.035875   0.003602  -0.091780   8.935850   0.227771
    18  O   -0.045646  -0.026860   0.001675  -0.115304   0.227771   9.012511
    19  O    0.000182  -0.000439   0.000139  -0.001539  -0.030019   0.000161
    20  O    0.000008  -0.000243   0.000039   0.000065  -0.000982   0.000015
    21  O   -0.000251   0.015995  -0.000612  -0.000213  -0.005584   0.000476
    22  H   -0.000000  -0.000000  -0.000000   0.000000   0.000000  -0.000000
    23  H    0.000000   0.000000  -0.000000  -0.000000   0.000000  -0.000000
    24  H   -0.000000   0.000000   0.000002   0.000000  -0.000000  -0.000000
    25  H    0.218367  -0.011967   0.008909  -0.000051   0.000629   0.014885
    26  H   -0.005134  -0.010086   0.217045   0.000000  -0.000003   0.000006
    27  H   -0.009736   0.219304   0.004634   0.000184   0.017932  -0.000253
    28  H    0.000000  -0.000006  -0.000001  -0.000000   0.000004  -0.000000
    29  H    0.000795   0.017596  -0.002573  -0.000004  -0.000395   0.000006
    30  H    0.000001   0.000001   0.000000   0.000115  -0.000398  -0.000007
    31  H    0.002353   0.000166  -0.000018   0.003724  -0.000733   0.218187
    32  H   -0.000008  -0.000006   0.000000   0.233376  -0.003652   0.003899
    33  H    0.000231   0.002089  -0.000035  -0.000099   0.230966   0.002096
              19         20         21         22         23         24
     1  Zr   0.001338  -0.145830   0.036020  -0.008941  -0.007663  -0.005242
     2  O    0.008970  -0.000576   0.010315  -0.000018  -0.000013  -0.000189
     3  O    0.264918   0.163701   0.146294  -0.000014  -0.000006  -0.000011
     4  O    0.010242  -0.000860   0.003409  -0.000009  -0.000055   0.000003
     5  O    0.002131   0.001476   0.000212   0.005777  -0.025239  -0.005487
     6  Si  -0.007574   0.009040  -0.011863   0.000086   0.000086   0.000071
     7  Si  -0.408989  -0.108684   0.024459  -0.000185   0.000060   0.000054
     8  Si  -0.016056   0.009653  -0.040172   0.000089   0.000062  -0.000091
     9  Si   0.001046   0.003157  -0.001807   0.047243   0.081049   0.037292
    10  O    0.000007   0.000003   0.000001  -0.006524   0.228545   0.007390
    11  O   -0.000002  -0.000003   0.000001  -0.005085  -0.006129   0.242549
    12  O   -0.000022  -0.000029   0.000024   0.219713   0.005857  -0.007465
    13  O    0.000182   0.000008  -0.000251  -0.000000   0.000000  -0.000000
    14  O   -0.000439  -0.000243   0.015995  -0.000000   0.000000   0.000000
    15  O    0.000139   0.000039  -0.000612  -0.000000  -0.000000   0.000002
    16  O   -0.001539   0.000065  -0.000213   0.000000  -0.000000   0.000000
    17  O   -0.030019  -0.000982  -0.005584   0.000000   0.000000  -0.000000
    18  O    0.000161   0.000015   0.000476  -0.000000  -0.000000  -0.000000
    19  O    8.872776   0.032099   0.023433  -0.000000   0.000000  -0.000000
    20  O    0.032099   8.657107  -0.050374   0.000000   0.000000  -0.000000
    21  O    0.023433  -0.050374   8.485531  -0.000000   0.000000   0.000000
    22  H   -0.000000   0.000000  -0.000000   0.361704   0.000057   0.000124
    23  H    0.000000   0.000000   0.000000   0.000057   0.350988   0.000013
    24  H   -0.000000  -0.000000   0.000000   0.000124   0.000013   0.365155
    25  H   -0.000024   0.000000  -0.000019   0.000000   0.000000   0.000000
    26  H    0.000001  -0.000000   0.000039  -0.000000  -0.000000  -0.000000
    27  H    0.000029   0.000192  -0.004014  -0.000000  -0.000000   0.000000
    28  H    0.004613   0.229566  -0.002062  -0.000000   0.000000  -0.000000
    29  H   -0.008564   0.007667   0.206480   0.000000   0.000000  -0.000000
    30  H    0.224178  -0.001473  -0.007145   0.000000   0.000000  -0.000000
    31  H    0.000004  -0.000000  -0.000000  -0.000000  -0.000000   0.000000
    32  H    0.000097  -0.000000   0.000001  -0.000000  -0.000000  -0.000000
    33  H    0.014850  -0.000080   0.001474  -0.000000  -0.000000  -0.000000
              25         26         27         28         29         30
     1  Zr   0.017003   0.007281   0.004284   0.005082   0.004196   0.000725
     2  O   -0.020015   0.000631  -0.019220  -0.000011  -0.007067  -0.000012
     3  O   -0.000111   0.000014   0.000841  -0.018402  -0.020275   0.000065
     4  O   -0.000310  -0.000011  -0.001701  -0.000014  -0.000141  -0.000453
     5  O    0.000019  -0.000004   0.000010  -0.000015  -0.000073  -0.000008
     6  Si   0.002631  -0.000150   0.008766  -0.000282   0.000135  -0.000660
     7  Si  -0.000460  -0.000381   0.001329   0.056613   0.048130   0.040285
     8  Si   0.057436   0.046072   0.068463  -0.000068   0.021900   0.000111
     9  Si  -0.000211  -0.000044  -0.000008  -0.000135  -0.000057   0.000023
    10  O    0.000000  -0.000000   0.000000  -0.000000   0.000000  -0.000000
    11  O   -0.000000   0.000000  -0.000000  -0.000000   0.000000   0.000000
    12  O   -0.000000  -0.000000  -0.000000  -0.000004  -0.000001   0.000000
    13  O    0.218367  -0.005134  -0.009736   0.000000   0.000795   0.000001
    14  O   -0.011967  -0.010086   0.219304  -0.000006   0.017596   0.000001
    15  O    0.008909   0.217045   0.004634  -0.000001  -0.002573   0.000000
    16  O   -0.000051   0.000000   0.000184  -0.000000  -0.000004   0.000115
    17  O    0.000629  -0.000003   0.017932   0.000004  -0.000395  -0.000398
    18  O    0.014885   0.000006  -0.000253  -0.000000   0.000006  -0.000007
    19  O   -0.000024   0.000001   0.000029   0.004613  -0.008564   0.224178
    20  O    0.000000  -0.000000   0.000192   0.229566   0.007667  -0.001473
    21  O   -0.000019   0.000039  -0.004014  -0.002062   0.206480  -0.007145
    22  H    0.000000  -0.000000  -0.000000  -0.000000   0.000000   0.000000
    23  H    0.000000  -0.000000  -0.000000   0.000000   0.000000   0.000000
    24  H    0.000000  -0.000000   0.000000  -0.000000  -0.000000  -0.000000
    25  H    0.298966  -0.000012   0.000113   0.000000   0.000001   0.000000
    26  H   -0.000012   0.366011   0.000036   0.000000   0.000021  -0.000000
    27  H    0.000113   0.000036   0.283358  -0.000000  -0.001497   0.000009
    28  H    0.000000   0.000000  -0.000000   0.349186  -0.000017  -0.000016
    29  H    0.000001   0.000021  -0.001497  -0.000017   0.285935   0.000155
    30  H    0.000000  -0.000000   0.000009  -0.000016   0.000155   0.334241
    31  H   -0.000504   0.000000   0.000013  -0.000000   0.000000  -0.000000
    32  H   -0.000001   0.000000  -0.000000   0.000000  -0.000000  -0.000000
    33  H    0.000006  -0.000000  -0.002406  -0.000002   0.000099  -0.001158
              31         32         33
     1  Zr  -0.000190   0.002102  -0.016049
     2  O    0.000172  -0.000024   0.001022
     3  O   -0.000020   0.000040  -0.010103
     4  O   -0.018450   0.010398  -0.009615
     5  O   -0.000009   0.000001  -0.000101
     6  Si   0.063846   0.022887   0.053313
     7  Si   0.000155  -0.000665   0.020627
     8  Si  -0.001969   0.000053   0.000106
     9  Si  -0.000052   0.000008   0.000078
    10  O    0.000000  -0.000000  -0.000000
    11  O   -0.000000   0.000000   0.000000
    12  O    0.000000  -0.000000   0.000000
    13  O    0.002353  -0.000008   0.000231
    14  O    0.000166  -0.000006   0.002089
    15  O   -0.000018   0.000000  -0.000035
    16  O    0.003724   0.233376  -0.000099
    17  O   -0.000733  -0.003652   0.230966
    18  O    0.218187   0.003899   0.002096
    19  O    0.000004   0.000097   0.014850
    20  O   -0.000000  -0.000000  -0.000080
    21  O   -0.000000   0.000001   0.001474
    22  H   -0.000000  -0.000000  -0.000000
    23  H   -0.000000  -0.000000  -0.000000
    24  H    0.000000  -0.000000  -0.000000
    25  H   -0.000504  -0.000001   0.000006
    26  H    0.000000   0.000000  -0.000000
    27  H    0.000013  -0.000000  -0.002406
    28  H   -0.000000   0.000000  -0.000002
    29  H    0.000000  -0.000000   0.000099
    30  H   -0.000000  -0.000000  -0.001158
    31  H    0.331556   0.000001  -0.000038
    32  H    0.000001   0.350043   0.000157
    33  H   -0.000038   0.000157   0.269249
 Mulliken charges:
               1
     1  Zr   0.004172
     2  O   -0.549951
     3  O   -0.418607
     4  O   -0.680440
     5  O   -0.367478
     6  Si   2.230386
     7  Si   1.785969
     8  Si   2.016967
     9  Si   1.599107
    10  O   -0.843950
    11  O   -0.787157
    12  O   -0.790670
    13  O   -0.841860
    14  O   -0.880571
    15  O   -0.877073
    16  O   -0.734404
    17  O   -0.968607
    18  O   -1.081433
    19  O   -0.987984
    20  O   -0.804652
    21  O   -0.830048
    22  H    0.385981
    23  H    0.372386
    24  H    0.365832
    25  H    0.414721
    26  H    0.378665
    27  H    0.429336
    28  H    0.375971
    29  H    0.447548
    30  H    0.411422
    31  H    0.401807
    32  H    0.381293
    33  H    0.443323
 Sum of Mulliken charges =  -0.00000
 Mulliken charges with hydrogens summed into heavy atoms:
               1
     1  Zr   0.004172
     2  O   -0.549951
     3  O   -0.418607
     4  O   -0.680440
     5  O   -0.367478
     6  Si   2.230386
     7  Si   1.785969
     8  Si   2.016967
     9  Si   1.599107
    10  O   -0.471564
    11  O   -0.421325
    12  O   -0.404689
    13  O   -0.427139
    14  O   -0.451234
    15  O   -0.498408
    16  O   -0.353112
    17  O   -0.525284
    18  O   -0.679626
    19  O   -0.576563
    20  O   -0.428681
    21  O   -0.382501
 Electronic spatial extent (au):  <R**2>=           9868.8427
 Charge=              0.0000 electrons
 Dipole moment (field-independent basis, Debye):
    X=              1.0851    Y=             -0.7675    Z=             -2.4040  Tot=              2.7470
 Quadrupole moment (field-independent basis, Debye-Ang):
   XX=           -160.1587   YY=           -154.6857   ZZ=           -157.7828
   XY=             -4.9475   XZ=              2.2508   YZ=              5.7295
 Traceless Quadrupole moment (field-independent basis, Debye-Ang):
   XX=             -2.6163   YY=              2.8567   ZZ=             -0.2404
   XY=             -4.9475   XZ=              2.2508   YZ=              5.7295
 Octapole moment (field-independent basis, Debye-Ang**2):
  XXX=             74.8348  YYY=              6.7948  ZZZ=            -18.6153  XYY=             -2.1682
  XXY=             20.2716  XXZ=             19.3625  XZZ=              5.3944  YZZ=            -17.0978
  YYZ=            -15.7095  XYZ=             28.0533
 Hexadecapole moment (field-independent basis, Debye-Ang**3):
 XXXX=          -6029.1148 YYYY=          -2834.9910 ZZZZ=          -2261.0682 XXXY=             56.1149
 XXXZ=            -23.8425 YYYX=              4.4015 YYYZ=            217.5895 ZZZX=           -183.9525
 ZZZY=            -54.8343 XXYY=          -1483.4900 XXZZ=          -1361.8912 YYZZ=           -924.7892
 XXYZ=             -7.3654 YYXZ=            130.5179 ZZXY=            -60.4666
 N-N= 2.832870680509D+03 E-N=-1.137834330980D+04  KE= 2.373154910721D+03
 1\1\GINC-GRA1236\FOpt\RB3LYP\Gen\H12O16Si4Zr1\SARASHS\14-Aug-2020\0\\#
 n B3LYP/Gen Pseudo=cards EmpiricalDispersion=GD3 Opt=modredundant\\Tit
 le\\0,1\Zr,0.6551133103,-0.1652548277,0.044654275\O,-0.1835990873,-1.2
 452916813,1.4284941062\O,0.0815219986,1.6736654104,0.3705844841\O,-0.2
 961891383,-0.7184913516,-1.5992913068\O,2.5917143835,-0.4407551116,-0.
 0649532306\Si,-1.8632602369,-1.0168423692,-1.9866402148\Si,-1.14625770
 23,2.7222525926,0.6475164113\Si,-1.6675030812,-1.6320422928,2.03597260
 89\Si,4.215778298,-0.2647360293,0.0318076231\O,4.9211851053,0.19274034
 63,-1.3890227354\O,4.9268226859,-1.7094442043,0.4246943755\O,4.4515335
 988,0.9326972717,1.1420574499\O,-2.2580384952,-3.001191045,1.349791841
 4\O,-2.6918691832,-0.3412158699,1.7405435954\O,-1.505872453,-1.8172598
 493,3.6569505962\O,-2.0674868778,-0.924950013,-3.6202185385\O,-2.85316
 53865,-0.0341766948,-1.1033744274\O,-2.3465141106,-2.5293946415,-1.490
 62836\O,-2.0970851497,2.5775438041,-0.7337228588\O,-0.6863835051,4.299
 9311835,0.7290159391\O,-1.9642229422,2.3593306787,2.018247838\H,5.3344
 966021,1.3157151106,1.188390441\H,5.2710027181,-0.521618477,-1.9334910
 216\H,4.5150416516,-2.2297973974,1.1235262064\H,-2.3642347452,-2.99855
 93935,0.3815023898\H,-2.2769170214,-2.1272372,4.1441746495\H,-3.046644
 5755,-0.3148325087,0.830947901\H,-0.5659010487,4.6623838487,1.61411026
 13\H,-2.2531178192,1.4279117785,2.116747289\H,-2.7180650398,3.30169605
 33,-0.88178163\H,-2.3070494096,-3.228913938,-2.1525740194\H,-1.3531657
 134,-0.5147698808,-4.1203853751\H,-2.6519976305,0.9288066985,-1.109106
 5639\\Version=ES64L-G16RevB.01\State=1-A\HF=-2416.946857\RMSD=2.858e-0
 9\RMSF=9.864e-06\Dipole=0.4092124,-0.1061383,-0.994628\Quadrupole=-1.7
 986366,0.2992347,1.4994018,-3.8793781,0.9285894,4.4655635\PG=C01 [X(H1
 2O16Si4Zr1)]\\@


 THERE IS NO CURE FOR BIRTH AND DEATH SAVE TO ENJOY THE INTERVAL.

                               -- GEORGE SANTAYANA
 Job cpu time:       0 days 21 hours  5 minutes 35.9 seconds.
 Elapsed time:       0 days  1 hours 34 minutes 32.2 seconds.
 File lengths (MBytes):  RWF=    167 Int=      0 D2E=      0 Chk=     21 Scr=      1
 Normal termination of Gaussian 16 at Fri Aug 14 04:46:21 2020.
