 Entering Gaussian System, Link 0=g16
 Initial command:
 /opt/software/gaussian/g16.b01/l1.exe "/localscratch/sarashs.37242640.0/Gau-31460.inp" -scrdir="/localscratch/sarashs.37242640.0/"
 Entering Link 1 = /opt/software/gaussian/g16.b01/l1.exe PID=     31462.
  
 Copyright (c) 1988-2017, Gaussian, Inc.  All Rights Reserved.
  
 This is part of the Gaussian(R) 16 program.  It is based on
 the Gaussian(R) 09 system (copyright 2009, Gaussian, Inc.),
 the Gaussian(R) 03 system (copyright 2003, Gaussian, Inc.),
 the Gaussian(R) 98 system (copyright 1998, Gaussian, Inc.),
 the Gaussian(R) 94 system (copyright 1995, Gaussian, Inc.),
 the Gaussian 92(TM) system (copyright 1992, Gaussian, Inc.),
 the Gaussian 90(TM) system (copyright 1990, Gaussian, Inc.),
 the Gaussian 88(TM) system (copyright 1988, Gaussian, Inc.),
 the Gaussian 86(TM) system (copyright 1986, Carnegie Mellon
 University), and the Gaussian 82(TM) system (copyright 1983,
 Carnegie Mellon University). Gaussian is a federally registered
 trademark of Gaussian, Inc.
  
 This software contains proprietary and confidential information,
 including trade secrets, belonging to Gaussian, Inc.
  
 This software is provided under written license and may be
 used, copied, transmitted, or stored only in accord with that
 written license.
  
 The following legend is applicable only to US Government
 contracts under FAR:
  
                    RESTRICTED RIGHTS LEGEND
  
 Use, reproduction and disclosure by the US Government is
 subject to restrictions as set forth in subparagraphs (a)
 and (c) of the Commercial Computer Software - Restricted
 Rights clause in FAR 52.227-19.
  
 Gaussian, Inc.
 340 Quinnipiac St., Bldg. 40, Wallingford CT 06492
  
  
 ---------------------------------------------------------------
 Warning -- This program may not be used in any manner that
 competes with the business of Gaussian, Inc. or will provide
 assistance to any competitor of Gaussian, Inc.  The licensee
 of this program is prohibited from giving any competitor of
 Gaussian, Inc. access to this program.  By using this program,
 the user acknowledges that Gaussian, Inc. is engaged in the
 business of creating and licensing software in the field of
 computational chemistry and represents and warrants to the
 licensee that it is not a competitor of Gaussian, Inc. and that
 it will not use this program in any manner prohibited above.
 ---------------------------------------------------------------
  

 Cite this work as:
 Gaussian 16, Revision B.01,
 M. J. Frisch, G. W. Trucks, H. B. Schlegel, G. E. Scuseria, 
 M. A. Robb, J. R. Cheeseman, G. Scalmani, V. Barone, 
 G. A. Petersson, H. Nakatsuji, X. Li, M. Caricato, A. V. Marenich, 
 J. Bloino, B. G. Janesko, R. Gomperts, B. Mennucci, H. P. Hratchian, 
 J. V. Ortiz, A. F. Izmaylov, J. L. Sonnenberg, D. Williams-Young, 
 F. Ding, F. Lipparini, F. Egidi, J. Goings, B. Peng, A. Petrone, 
 T. Henderson, D. Ranasinghe, V. G. Zakrzewski, J. Gao, N. Rega, 
 G. Zheng, W. Liang, M. Hada, M. Ehara, K. Toyota, R. Fukuda, 
 J. Hasegawa, M. Ishida, T. Nakajima, Y. Honda, O. Kitao, H. Nakai, 
 T. Vreven, K. Throssell, J. A. Montgomery, Jr., J. E. Peralta, 
 F. Ogliaro, M. J. Bearpark, J. J. Heyd, E. N. Brothers, K. N. Kudin, 
 V. N. Staroverov, T. A. Keith, R. Kobayashi, J. Normand, 
 K. Raghavachari, A. P. Rendell, J. C. Burant, S. S. Iyengar, 
 J. Tomasi, M. Cossi, J. M. Millam, M. Klene, C. Adamo, R. Cammi, 
 J. W. Ochterski, R. L. Martin, K. Morokuma, O. Farkas, 
 J. B. Foresman, and D. J. Fox, Gaussian, Inc., Wallingford CT, 2016.
 
 ******************************************
 Gaussian 16:  ES64L-G16RevB.01 20-Dec-2017
                14-Aug-2020 
 ******************************************
 %NProcShared=16
 Will use up to   16 processors via shared memory.
 ------------------------------------------------------------------
 #n B3LYP/Gen Pseudo=cards EmpiricalDispersion=GD3 Opt=modredundant
 ------------------------------------------------------------------
 1/18=120,19=15,26=3,38=1/1,3;
 2/9=110,12=2,17=6,18=5,40=1/2;
 3/5=7,11=2,16=1,17=8,25=1,30=1,71=1,74=-5,124=31/1,2,3;
 4//1;
 5/5=2,38=5/2;
 6/7=2,8=2,9=2,10=2,28=1/1;
 7//1,2,3,16;
 1/18=20,19=15,26=3/3(2);
 2/9=110/2;
 99//99;
 2/9=110/2;
 3/5=7,6=1,11=2,16=1,17=8,25=1,30=1,71=1,74=-5,82=7,124=31/1,2,3;
 4/5=5,16=3,69=1/1;
 5/5=2,38=5/2;
 7//1,2,3,16;
 1/18=20,19=15,26=3/3(-5);
 2/9=110/2;
 6/7=2,8=2,9=2,10=2,19=2,28=1/1;
 99/9=1/99;
 -----
 Title
 -----
 Symbolic Z-matrix:
 Charge =  0 Multiplicity = 1
 Zr                    0.65587  -0.152     0.01059 
 O                    -0.19016  -1.18212   1.42765 
 O                     0.08519   1.6982    0.27122 
 O                    -0.29087  -0.75882  -1.61697 
 O                     2.59206  -0.4363   -0.08284 
 Si                   -1.85709  -1.06731  -1.99985 
 Si                   -1.14117   2.75833   0.50768 
 Si                   -1.6772   -1.54468   2.04224 
 Si                    4.21631  -0.26105   0.01252 
 O                     4.95566  -0.09972  -1.45475 
 O                     4.89877  -1.60704   0.69775 
 O                     4.44778   1.12944   0.86985 
 O                    -2.26833  -2.93542   1.40146 
 O                    -2.69753  -0.26262   1.69852 
 O                    -1.52229  -1.67427   3.66929 
 O                    -2.05498  -1.03164  -3.63639 
 O                    -2.84817  -0.05258  -1.15498 
 O                    -2.34514  -2.56092  -1.45363 
 O                    -2.08719   2.56855  -0.87142 
 O                    -0.67792   4.33684   0.53696 
 O                    -1.96499   2.44421   1.8869 
 H                     5.33501   1.50516   0.85865 
 H                     5.3042   -0.91111  -1.84112 
 H                     4.46373  -1.97795   1.47352 
 H                    -2.37065  -2.96595   0.43323 
 H                    -2.29506  -1.96873   4.16338 
 H                    -3.04883  -0.26663   0.78722 
 H                    -0.55931   4.72896   1.40957 
 H                    -2.25639   1.51732   2.01603 
 H                    -2.70613   3.28843  -1.04638 
 H                    -2.30793  -3.28227  -2.09185 
 H                    -1.33728  -0.64164  -4.14775 
 H                    -2.64439   0.90914  -1.19267 
 
 The following ModRedundant input section has been read:
 A       1       5       9 F                                                   
 

 GradGradGradGradGradGradGradGradGradGradGradGradGradGradGradGradGradGrad
 Berny optimization.
 Initialization pass.
                           ----------------------------
                           !    Initial Parameters    !
                           ! (Angstroms and Degrees)  !
 --------------------------                            --------------------------
 ! Name  Definition              Value          Derivative Info.                !
 --------------------------------------------------------------------------------
 ! R1    R(1,2)                  1.9455         estimate D2E/DX2                !
 ! R2    R(1,3)                  1.9537         estimate D2E/DX2                !
 ! R3    R(1,4)                  1.9783         estimate D2E/DX2                !
 ! R4    R(1,5)                  1.9592         estimate D2E/DX2                !
 ! R5    R(2,8)                  1.6494         estimate D2E/DX2                !
 ! R6    R(3,7)                  1.6382         estimate D2E/DX2                !
 ! R7    R(4,6)                  1.6416         estimate D2E/DX2                !
 ! R8    R(5,9)                  1.6365         estimate D2E/DX2                !
 ! R9    R(6,16)                 1.6488         estimate D2E/DX2                !
 ! R10   R(6,17)                 1.651          estimate D2E/DX2                !
 ! R11   R(6,18)                 1.6636         estimate D2E/DX2                !
 ! R12   R(7,19)                 1.6831         estimate D2E/DX2                !
 ! R13   R(7,20)                 1.6453         estimate D2E/DX2                !
 ! R14   R(7,21)                 1.6369         estimate D2E/DX2                !
 ! R15   R(8,13)                 1.6414         estimate D2E/DX2                !
 ! R16   R(8,14)                 1.6742         estimate D2E/DX2                !
 ! R17   R(8,15)                 1.6395         estimate D2E/DX2                !
 ! R18   R(9,10)                 1.6509         estimate D2E/DX2                !
 ! R19   R(9,11)                 1.6574         estimate D2E/DX2                !
 ! R20   R(9,12)                 1.6499         estimate D2E/DX2                !
 ! R21   R(10,23)                0.9639         estimate D2E/DX2                !
 ! R22   R(11,24)                0.9637         estimate D2E/DX2                !
 ! R23   R(12,22)                0.9636         estimate D2E/DX2                !
 ! R24   R(13,25)                0.9741         estimate D2E/DX2                !
 ! R25   R(14,27)                0.9767         estimate D2E/DX2                !
 ! R26   R(15,26)                0.9633         estimate D2E/DX2                !
 ! R27   R(16,32)                0.9637         estimate D2E/DX2                !
 ! R28   R(17,33)                0.9838         estimate D2E/DX2                !
 ! R29   R(18,31)                0.9639         estimate D2E/DX2                !
 ! R30   R(19,30)                0.9654         estimate D2E/DX2                !
 ! R31   R(20,28)                0.964          estimate D2E/DX2                !
 ! R32   R(21,29)                0.9802         estimate D2E/DX2                !
 ! A1    A(2,1,3)              106.0961         estimate D2E/DX2                !
 ! A2    A(2,1,4)              103.2218         estimate D2E/DX2                !
 ! A3    A(2,1,5)              112.8091         estimate D2E/DX2                !
 ! A4    A(3,1,4)              105.0974         estimate D2E/DX2                !
 ! A5    A(3,1,5)              115.6242         estimate D2E/DX2                !
 ! A6    A(4,1,5)              112.9054         estimate D2E/DX2                !
 ! A7    A(1,2,8)              141.2478         estimate D2E/DX2                !
 ! A8    A(1,3,7)              148.2961         estimate D2E/DX2                !
 ! A9    A(1,4,6)              134.9214         estimate D2E/DX2                !
 ! A10   A(1,5,9)              164.2751         Frozen                          !
 ! A11   A(4,6,16)             109.995          estimate D2E/DX2                !
 ! A12   A(4,6,17)             109.7478         estimate D2E/DX2                !
 ! A13   A(4,6,18)             111.8421         estimate D2E/DX2                !
 ! A14   A(16,6,17)            114.9974         estimate D2E/DX2                !
 ! A15   A(16,6,18)            108.0657         estimate D2E/DX2                !
 ! A16   A(17,6,18)            101.9872         estimate D2E/DX2                !
 ! A17   A(3,7,19)             103.269          estimate D2E/DX2                !
 ! A18   A(3,7,20)             114.3707         estimate D2E/DX2                !
 ! A19   A(3,7,21)             111.9735         estimate D2E/DX2                !
 ! A20   A(19,7,20)            106.3203         estimate D2E/DX2                !
 ! A21   A(19,7,21)            112.6973         estimate D2E/DX2                !
 ! A22   A(20,7,21)            108.1075         estimate D2E/DX2                !
 ! A23   A(2,8,13)             111.4367         estimate D2E/DX2                !
 ! A24   A(2,8,14)             107.736          estimate D2E/DX2                !
 ! A25   A(2,8,15)             107.576          estimate D2E/DX2                !
 ! A26   A(13,8,14)            110.4387         estimate D2E/DX2                !
 ! A27   A(13,8,15)            110.761          estimate D2E/DX2                !
 ! A28   A(14,8,15)            108.775          estimate D2E/DX2                !
 ! A29   A(5,9,10)             113.7768         estimate D2E/DX2                !
 ! A30   A(5,9,11)             110.2316         estimate D2E/DX2                !
 ! A31   A(5,9,12)             105.0573         estimate D2E/DX2                !
 ! A32   A(10,9,11)            105.2125         estimate D2E/DX2                !
 ! A33   A(10,9,12)            108.46           estimate D2E/DX2                !
 ! A34   A(11,9,12)            114.3199         estimate D2E/DX2                !
 ! A35   A(9,10,23)            115.8441         estimate D2E/DX2                !
 ! A36   A(9,11,24)            117.3556         estimate D2E/DX2                !
 ! A37   A(9,12,22)            116.857          estimate D2E/DX2                !
 ! A38   A(8,13,25)            116.899          estimate D2E/DX2                !
 ! A39   A(8,14,27)            114.0561         estimate D2E/DX2                !
 ! A40   A(8,15,26)            117.2168         estimate D2E/DX2                !
 ! A41   A(6,16,32)            116.4901         estimate D2E/DX2                !
 ! A42   A(6,17,33)            117.1862         estimate D2E/DX2                !
 ! A43   A(6,18,31)            116.308          estimate D2E/DX2                !
 ! A44   A(7,19,30)            115.137          estimate D2E/DX2                !
 ! A45   A(7,20,28)            116.1675         estimate D2E/DX2                !
 ! A46   A(7,21,29)            116.2371         estimate D2E/DX2                !
 ! D1    D(3,1,2,8)             57.7295         estimate D2E/DX2                !
 ! D2    D(4,1,2,8)            -52.5296         estimate D2E/DX2                !
 ! D3    D(5,1,2,8)           -174.7064         estimate D2E/DX2                !
 ! D4    D(2,1,3,7)            -50.0974         estimate D2E/DX2                !
 ! D5    D(4,1,3,7)             58.8324         estimate D2E/DX2                !
 ! D6    D(5,1,3,7)           -175.9636         estimate D2E/DX2                !
 ! D7    D(2,1,4,6)             42.7681         estimate D2E/DX2                !
 ! D8    D(3,1,4,6)            -68.2315         estimate D2E/DX2                !
 ! D9    D(5,1,4,6)            164.8803         estimate D2E/DX2                !
 ! D10   D(2,1,5,9)           -106.9244         estimate D2E/DX2                !
 ! D11   D(3,1,5,9)             15.4389         estimate D2E/DX2                !
 ! D12   D(4,1,5,9)            136.5205         estimate D2E/DX2                !
 ! D13   D(1,2,8,13)            93.53           estimate D2E/DX2                !
 ! D14   D(1,2,8,14)           -27.7658         estimate D2E/DX2                !
 ! D15   D(1,2,8,15)          -144.8804         estimate D2E/DX2                !
 ! D16   D(1,3,7,19)           -61.1021         estimate D2E/DX2                !
 ! D17   D(1,3,7,20)          -176.1758         estimate D2E/DX2                !
 ! D18   D(1,3,7,21)            60.4082         estimate D2E/DX2                !
 ! D19   D(1,4,6,16)           160.1675         estimate D2E/DX2                !
 ! D20   D(1,4,6,17)            32.6929         estimate D2E/DX2                !
 ! D21   D(1,4,6,18)           -79.7419         estimate D2E/DX2                !
 ! D22   D(1,5,9,10)          -109.4787         estimate D2E/DX2                !
 ! D23   D(1,5,9,11)           132.619          estimate D2E/DX2                !
 ! D24   D(1,5,9,12)             9.0002         estimate D2E/DX2                !
 ! D25   D(4,6,16,32)          -14.2001         estimate D2E/DX2                !
 ! D26   D(17,6,16,32)         110.2975         estimate D2E/DX2                !
 ! D27   D(18,6,16,32)        -136.5531         estimate D2E/DX2                !
 ! D28   D(4,6,17,33)           51.0093         estimate D2E/DX2                !
 ! D29   D(16,6,17,33)         -73.618          estimate D2E/DX2                !
 ! D30   D(18,6,17,33)         169.7165         estimate D2E/DX2                !
 ! D31   D(4,6,18,31)          -96.4416         estimate D2E/DX2                !
 ! D32   D(16,6,18,31)          24.772          estimate D2E/DX2                !
 ! D33   D(17,6,18,31)         146.3498         estimate D2E/DX2                !
 ! D34   D(3,7,19,30)         -162.1838         estimate D2E/DX2                !
 ! D35   D(20,7,19,30)         -41.4662         estimate D2E/DX2                !
 ! D36   D(21,7,19,30)          76.7957         estimate D2E/DX2                !
 ! D37   D(3,7,20,28)          -98.4269         estimate D2E/DX2                !
 ! D38   D(19,7,20,28)         148.2948         estimate D2E/DX2                !
 ! D39   D(21,7,20,28)          27.0458         estimate D2E/DX2                !
 ! D40   D(3,7,21,29)          -49.899          estimate D2E/DX2                !
 ! D41   D(19,7,21,29)          66.0161         estimate D2E/DX2                !
 ! D42   D(20,7,21,29)        -176.7751         estimate D2E/DX2                !
 ! D43   D(2,8,13,25)          -58.4679         estimate D2E/DX2                !
 ! D44   D(14,8,13,25)          61.2401         estimate D2E/DX2                !
 ! D45   D(15,8,13,25)        -178.1893         estimate D2E/DX2                !
 ! D46   D(2,8,14,27)           80.2918         estimate D2E/DX2                !
 ! D47   D(13,8,14,27)         -41.6245         estimate D2E/DX2                !
 ! D48   D(15,8,14,27)        -163.3755         estimate D2E/DX2                !
 ! D49   D(2,8,15,26)         -174.1995         estimate D2E/DX2                !
 ! D50   D(13,8,15,26)         -52.1893         estimate D2E/DX2                !
 ! D51   D(14,8,15,26)          69.3652         estimate D2E/DX2                !
 ! D52   D(5,9,10,23)          -94.8502         estimate D2E/DX2                !
 ! D53   D(11,9,10,23)          25.9079         estimate D2E/DX2                !
 ! D54   D(12,9,10,23)         148.64           estimate D2E/DX2                !
 ! D55   D(5,9,11,24)          -43.8205         estimate D2E/DX2                !
 ! D56   D(10,9,11,24)        -166.8799         estimate D2E/DX2                !
 ! D57   D(12,9,11,24)          74.2393         estimate D2E/DX2                !
 ! D58   D(5,9,12,22)         -166.4771         estimate D2E/DX2                !
 ! D59   D(10,9,12,22)         -44.4742         estimate D2E/DX2                !
 ! D60   D(11,9,12,22)          72.5545         estimate D2E/DX2                !
 --------------------------------------------------------------------------------
 Trust Radius=3.00D-01 FncErr=1.00D-07 GrdErr=1.00D-06 EigMax=2.50D+02 EigMin=1.00D-04
 Number of steps in this run=    148 maximum allowed number of steps=    198.
 GradGradGradGradGradGradGradGradGradGradGradGradGradGradGradGradGradGrad

                          Input orientation:                          
 ---------------------------------------------------------------------
 Center     Atomic      Atomic             Coordinates (Angstroms)
 Number     Number       Type             X           Y           Z
 ---------------------------------------------------------------------
      1         40           0        0.655870   -0.152000    0.010590
      2          8           0       -0.190160   -1.182120    1.427650
      3          8           0        0.085190    1.698200    0.271220
      4          8           0       -0.290870   -0.758820   -1.616970
      5          8           0        2.592060   -0.436300   -0.082840
      6         14           0       -1.857090   -1.067310   -1.999850
      7         14           0       -1.141170    2.758330    0.507680
      8         14           0       -1.677200   -1.544680    2.042240
      9         14           0        4.216310   -0.261050    0.012520
     10          8           0        4.955660   -0.099720   -1.454750
     11          8           0        4.898770   -1.607040    0.697750
     12          8           0        4.447780    1.129440    0.869850
     13          8           0       -2.268330   -2.935420    1.401460
     14          8           0       -2.697530   -0.262620    1.698520
     15          8           0       -1.522290   -1.674270    3.669290
     16          8           0       -2.054980   -1.031640   -3.636390
     17          8           0       -2.848170   -0.052580   -1.154980
     18          8           0       -2.345140   -2.560920   -1.453630
     19          8           0       -2.087190    2.568550   -0.871420
     20          8           0       -0.677920    4.336840    0.536960
     21          8           0       -1.964990    2.444210    1.886900
     22          1           0        5.335010    1.505160    0.858650
     23          1           0        5.304200   -0.911110   -1.841120
     24          1           0        4.463730   -1.977950    1.473520
     25          1           0       -2.370650   -2.965950    0.433230
     26          1           0       -2.295060   -1.968730    4.163380
     27          1           0       -3.048830   -0.266630    0.787220
     28          1           0       -0.559310    4.728960    1.409570
     29          1           0       -2.256390    1.517320    2.016030
     30          1           0       -2.706130    3.288430   -1.046380
     31          1           0       -2.307930   -3.282270   -2.091850
     32          1           0       -1.337280   -0.641640   -4.147750
     33          1           0       -2.644390    0.909140   -1.192670
 ---------------------------------------------------------------------
                    Distance matrix (angstroms):
                    1          2          3          4          5
     1  Zr   0.000000
     2  O    1.945501   0.000000
     3  O    1.953674   3.115990   0.000000
     4  O    1.978256   3.075555   3.121479   0.000000
     5  O    1.959180   3.252472   3.311472   3.281594   0.000000
     6  Si   3.345838   3.813082   4.071640   1.641587   4.885492
     7  Si   3.456367   4.156671   1.638215   4.196128   4.948877
     8  Si   3.392694   1.649381   4.093751   3.991153   4.896024
     9  Si   3.562110   4.718892   4.579491   4.818473   1.636458
    10  O    4.542923   5.996606   5.471103   5.290256   2.753548
    11  O    4.537789   5.158539   5.854664   5.745413   2.702011
    12  O    4.093775   5.211999   4.440049   5.674910   2.608229
    13  O    4.269999   2.719106   5.318546   4.214126   5.663227
    14  O    3.755880   2.684354   3.691278   4.126827   5.584189
    15  O    4.521921   2.653626   5.050191   5.504452   5.704290
    16  O    4.628492   5.398583   5.225110   2.695287   5.880232
    17  O    3.694149   3.874385   3.701875   2.692952   5.558132
    18  O    4.117390   3.853155   5.198241   2.737566   5.546983
    19  O    3.962791   4.790822   2.604298   3.854089   5.616615
    20  O    4.712297   5.611609   2.759597   5.545717   5.818916
    21  O    4.138811   4.063398   2.714810   5.033804   5.739679
    22  H    5.035845   6.170311   5.286109   6.550178   3.489906
    23  H    5.060835   6.398929   6.205525   5.601629   3.266909
    24  H    4.469234   4.721667   5.842193   5.800313   2.881335
    25  H    4.154126   2.987550   5.273679   3.660632   5.594099
    26  H    5.408712   3.540279   5.853279   6.236434   6.653019
    27  H    3.786964   3.069245   3.734822   3.691710   5.710117
    28  H    5.220879   5.922623   3.301019   6.272777   6.232041
    29  H    3.910202   3.449996   2.925761   4.716224   5.632881
    30  H    4.925118   5.695327   3.472228   4.747556   6.547736
    31  H    4.796140   4.613292   6.009676   3.265248   6.012118
    32  H    4.637261   5.717787   5.198612   2.741086   5.657329
    33  H    3.669546   4.154839   3.196279   2.915678   5.519270
                    6          7          8          9         10
     6  Si   0.000000
     7  Si   4.629878   0.000000
     8  Si   4.074154   4.599793   0.000000
     9  Si   6.448711   6.169638   6.364034   0.000000
    10  O    6.902675   7.013624   7.636208   1.650923   0.000000
    11  O    7.294518   7.454761   6.712296   1.657402   2.628404
    12  O    7.267205   5.832736   6.785337   1.649865   2.678160
    13  O    3.902289   5.872659   1.641399   7.150662   8.269532
    14  O    3.877087   3.600902   1.674185   7.116444   8.278947
    15  O    5.711361   5.457928   1.639537   6.949870   8.408260
    16  O    1.648847   5.689661   5.714260   7.296399   7.401155
    17  O    1.650976   3.685038   3.717492   7.163337   7.809728
    18  O    1.663556   5.795749   3.701350   7.105746   7.704491
    19  O    3.813893   1.683118   5.057289   6.965781   7.553918
    20  O    6.085284   1.645342   6.152780   6.735660   7.442258
    21  O    5.239202   1.636948   4.002274   7.002871   8.095283
    22  H    8.155668   6.605643   7.737797   2.255421   2.841015
    23  H    7.164752   7.779746   8.013853   2.245454   0.963906
    24  H    7.269548   7.401358   6.182409   2.267925   3.513475
    25  H    3.128651   5.855301   2.256057   7.133129   8.090399
    26  H    6.244180   6.086107   2.249623   7.908461   9.361064
    27  H    3.135138   3.587157   2.256071   7.306329   8.314214
    28  H    6.848732   2.243958   6.403789   7.046878   7.869903
    29  H    4.792394   2.249209   3.116407   7.005176   8.165464
    30  H    4.538992   2.268305   5.827283   7.851131   8.387452
    31  H    2.262249   6.678902   4.528547   7.491452   7.955769
    32  H    2.250527   5.768127   6.264743   6.949465   6.866369
    33  H    2.275464   2.927518   4.173887   7.063358   7.671196
                   11         12         13         14         15
    11  O    0.000000
    12  O    2.778729   0.000000
    13  O    7.323054   7.868407   0.000000
    14  O    7.778996   7.326662   2.723292   0.000000
    15  O    7.075633   7.165151   2.700024   2.694045   0.000000
    16  O    8.214042   8.201363   5.389789   5.428216   7.353210
    17  O    8.115666   7.663419   3.896456   2.865183   5.259412
    18  O    7.616597   8.072241   2.880571   3.916939   5.263795
    19  O    8.288636   6.914397   5.957557   3.872032   6.240087
    20  O    8.151996   6.055661   7.494166   5.155878   6.830658
    21  O    8.058406   6.624698   5.409999   2.810521   4.509410
    22  H    3.146742   0.963570   8.821801   8.267534   8.064182
    23  H    2.663560   3.499523   8.482651   8.773669   8.806134
    24  H    0.963666   3.165524   6.800189   7.367267   6.383264
    25  H    7.400073   7.965792   0.974100   3.002633   3.586117
    26  H    7.993285   8.118614   2.926330   3.024620   0.963330
    27  H    8.060338   7.625943   2.847615   0.976676   3.552197
    28  H    8.392986   6.190217   7.852613   5.437954   6.858208
    29  H    7.918068   6.812494   4.494967   1.861076   3.668572
    30  H    9.210978   7.714376   6.702231   4.488263   6.947475
    31  H    7.907262   8.595026   3.510710   4.861788   6.032713
    32  H    7.956079   7.860022   6.076349   6.014384   7.887120
    33  H    8.173378   7.389276   4.653125   3.120068   5.618876
                   16         17         18         19         20
    16  O    0.000000
    17  O    2.783003   0.000000
    18  O    2.680920   2.575655   0.000000
    19  O    4.539545   2.744052   5.168846   0.000000
    20  O    6.937847   5.180700   7.370289   2.663912   0.000000
    21  O    6.526589   4.033237   6.029509   2.763824   2.657242
    22  H    9.014027   8.570046   8.992461   7.694998   6.654113
    23  H    7.575952   8.226117   7.834821   8.226846   8.305541
    24  H    8.336682   8.004995   7.434297   8.311676   8.196968
    25  H    4.516969   3.352337   1.930011   5.693255   7.497122
    26  H    7.859528   5.680010   5.648362   6.780806   7.451596
    27  H    4.597967   1.964236   3.283345   3.422584   5.184186
    28  H    7.802772   5.888881   8.033023   3.493523   0.963989
    29  H    6.203839   3.587491   5.355227   3.077512   3.553718
    30  H    5.078893   3.345791   5.874612   0.965363   2.778446
    31  H    2.741336   3.405948   0.963875   5.980825   8.223042
    32  H    0.963682   3.403888   3.457991   4.647798   6.867789
    33  H    3.175815   0.983795   3.492702   1.779695   4.313670
                   21         22         23         24         25
    21  O    0.000000
    22  H    7.431629   0.000000
    23  H    8.831615   3.623268   0.000000
    24  H    7.813759   3.642698   3.582091   0.000000
    25  H    5.616720   8.919025   8.264282   6.983344   0.000000
    26  H    4.976479   9.011499   9.742758   7.274385   3.861888
    27  H    3.119721   8.569312   8.780469   7.735514   2.805631
    28  H    2.724677   6.740876   8.761171   8.379598   7.965289
    29  H    0.980160   7.679130   8.828216   7.594158   4.755841
    30  H    3.141039   8.453941   9.079269   9.246164   6.435764
    31  H    6.981449   9.488913   7.976828   7.763278   2.545589
    32  H    6.806871   8.613492   7.035795   8.187559   5.239814
    33  H    3.507389   8.260386   8.180090   8.122144   4.211271
                   26         27         28         29         30
    26  H    0.000000
    27  H    3.855356   0.000000
    28  H    7.446835   5.616133   0.000000
    29  H    4.094527   2.306602   3.682731   0.000000
    30  H    7.412713   4.014721   3.565901   3.566154   0.000000
    31  H    6.391671   4.234626   8.916133   6.317705   6.665258
    32  H    8.470737   5.236790   7.767393   6.595306   5.190154
    33  H    6.090274   2.337942   5.070526   3.288797   2.384582
                   31         32         33
    31  H    0.000000
    32  H    3.484510   0.000000
    33  H    4.299959   3.584125   0.000000
 Stoichiometry    H12O16Si4Zr
 Framework group  C1[X(H12O16Si4Zr)]
 Deg. of freedom    93
 Full point group                 C1      NOp   1
 Largest Abelian subgroup         C1      NOp   1
 Largest concise Abelian subgroup C1      NOp   1
                         Standard orientation:                         
 ---------------------------------------------------------------------
 Center     Atomic      Atomic             Coordinates (Angstroms)
 Number     Number       Type             X           Y           Z
 ---------------------------------------------------------------------
      1         40           0        0.657833   -0.124642   -0.073004
      2          8           0       -0.221509   -0.912497    1.473286
      3          8           0        0.102312    1.747887   -0.116332
      4          8           0       -0.268911   -0.972525   -1.601317
      5          8           0        2.592212   -0.435086   -0.086723
      6         14           0       -1.831904   -1.325252   -1.958310
      7         14           0       -1.116596    2.841479   -0.070862
      8         14           0       -1.721916   -1.162360    2.111100
      9         14           0        4.216456   -0.259605    0.008315
     10          8           0        4.980909   -0.336772   -1.452919
     11          8           0        4.873791   -1.486324    0.908344
     12          8           0        4.448577    1.246578    0.640444
     13          8           0       -2.317111   -2.631948    1.686547
     14          8           0       -2.723208    0.057553    1.552421
     15          8           0       -1.594507   -1.035647    3.740761
     16          8           0       -2.003109   -1.545872   -3.583337
     17          8           0       -2.825817   -0.182631   -1.300832
     18          8           0       -2.344168   -2.710545   -1.192825
     19          8           0       -2.042272    2.444503   -1.419350
     20          8           0       -0.637486    4.401314   -0.281857
     21          8           0       -1.965678    2.754568    1.325958
     22          1           0        5.339732    1.608978    0.585873
     23          1           0        5.327151   -1.201504   -1.700850
     24          1           0        4.422517   -1.727232    1.725025
     25          1           0       -2.404183   -2.813578    0.733499
     26          1           0       -2.378132   -1.242743    4.261385
     27          1           0       -3.059852   -0.087007    0.647066
     28          1           0       -0.528831    4.924859    0.520246
     29          1           0       -2.268737    1.861806    1.593997
     30          1           0       -2.650803    3.132680   -1.716042
     31          1           0       -2.304218   -3.523557   -1.709032
     32          1           0       -1.273273   -1.246718   -4.136988
     33          1           0       -2.611468    0.759586   -1.485586
 ---------------------------------------------------------------------
 Rotational constants (GHZ):           0.2124132           0.1338526           0.1240596
 General basis read from cards:  (5D, 7F)
 ======================================================================================================
                                       Pseudopotential Parameters
 ======================================================================================================
  Center     Atomic      Valence      Angular      Power
  Number     Number     Electrons     Momentum     of R      Exponent        Coefficient   SO-Coeffient
 ======================================================================================================
    1         40           12
                                      G and up 
                                                     2        1.0000000        0.00000000    0.00000000
                                      S - G
                                                     2        8.6365280      150.24299400    0.00000000
                                                     2        3.7176390       18.78003600    0.00000000
                                      P - G
                                                     2        7.6267280       33.19279100    0.00000000
                                                     2        7.4532070       66.38903900    0.00000000
                                                     2        3.3583890        4.62072600    0.00000000
                                                     2        3.2297380        9.26027000    0.00000000
                                      D - G
                                                     2        5.9380860       13.99338300    0.00000000
                                                     2        5.8255440       20.99588200    0.00000000
                                                     2        2.2050190        2.28516600    0.00000000
                                                     2        2.2062920        3.44126000    0.00000000
                                      F - G
                                                     2        4.8002150       -5.23932000    0.00000000
                                                     2        4.7989920       -6.98742400    0.00000000
    2          8
                                   No pseudopotential on this center.
    3          8
                                   No pseudopotential on this center.
    4          8
                                   No pseudopotential on this center.
    5          8
                                   No pseudopotential on this center.
    6         14
                                   No pseudopotential on this center.
    7         14
                                   No pseudopotential on this center.
    8         14
                                   No pseudopotential on this center.
    9         14
                                   No pseudopotential on this center.
   10          8
                                   No pseudopotential on this center.
   11          8
                                   No pseudopotential on this center.
   12          8
                                   No pseudopotential on this center.
   13          8
                                   No pseudopotential on this center.
   14          8
                                   No pseudopotential on this center.
   15          8
                                   No pseudopotential on this center.
   16          8
                                   No pseudopotential on this center.
   17          8
                                   No pseudopotential on this center.
   18          8
                                   No pseudopotential on this center.
   19          8
                                   No pseudopotential on this center.
   20          8
                                   No pseudopotential on this center.
   21          8
                                   No pseudopotential on this center.
   22          1
                                   No pseudopotential on this center.
   23          1
                                   No pseudopotential on this center.
   24          1
                                   No pseudopotential on this center.
   25          1
                                   No pseudopotential on this center.
   26          1
                                   No pseudopotential on this center.
   27          1
                                   No pseudopotential on this center.
   28          1
                                   No pseudopotential on this center.
   29          1
                                   No pseudopotential on this center.
   30          1
                                   No pseudopotential on this center.
   31          1
                                   No pseudopotential on this center.
   32          1
                                   No pseudopotential on this center.
   33          1
                                   No pseudopotential on this center.
 ======================================================================================================
 There are   570 symmetry adapted cartesian basis functions of A   symmetry.
 There are   524 symmetry adapted basis functions of A   symmetry.
   524 basis functions,  1074 primitive gaussians,   570 cartesian basis functions
   104 alpha electrons      104 beta electrons
       nuclear repulsion energy      2833.0244891003 Hartrees.
 NAtoms=   33 NActive=   33 NUniq=   33 SFac= 1.00D+00 NAtFMM=   60 NAOKFM=F Big=F
 Integral buffers will be    131072 words long.
 Raffenetti 2 integral format.
 Two-electron integral symmetry is turned on.
 Nuclear repulsion after empirical dispersion term =     2832.9836712942 Hartrees.
 One-electron integrals computed using PRISM.
 PrsmSu:  requested number of processors reduced to:   4 ShMem   1 Linda.
   1 Symmetry operations used in ECPInt.
 ECPInt:  NShTT=   13203 NPrTT=   78401 LenC2=   11527 LenP2D=   44637.
 LDataN:  DoStor=T MaxTD1= 8 Len=  415
 Number of processors reduced to  13 by ecpmxn.
 NBasis=   524 RedAO= T EigKep=  3.12D-05  NBF=   524
 NBsUse=   524 1.00D-06 EigRej= -1.00D+00 NBFU=   524
 Defaulting to unpruned grid for atomic number  40.
 ExpMin= 1.01D-02 ExpMax= 1.61D+04 ExpMxC= 2.43D+03 IAcc=3 IRadAn=         5 AccDes= 0.00D+00
 Harris functional with IExCor=  402 and IRadAn=       5 diagonalized for initial guess.
 HarFok:  IExCor=  402 AccDes= 0.00D+00 IRadAn=         5 IDoV= 1 UseB2=F ITyADJ=14
 ICtDFT=  3500011 ScaDFX=  1.000000  1.000000  1.000000  1.000000
 Defaulting to unpruned grid for atomic number  40.
 FoFCou: FMM=F IPFlag=           0 FMFlag=      100000 FMFlg1=           0
         NFxFlg=           0 DoJE=T BraDBF=F KetDBF=T FulRan=T
         wScrn=  0.000000 ICntrl=       500 IOpCl=  0 I1Cent=   200000004 NGrid=           0
         NMat0=    1 NMatS0=      1 NMatT0=    0 NMatD0=    1 NMtDS0=    0 NMtDT0=    0
 Petite list used in FoFCou.
 Requested convergence on RMS density matrix=1.00D-08 within 128 cycles.
 Requested convergence on MAX density matrix=1.00D-06.
 Requested convergence on             energy=1.00D-06.
 No special actions if energy rises.
 Defaulting to unpruned grid for atomic number  40.
 Defaulting to unpruned grid for atomic number  40.
 Defaulting to unpruned grid for atomic number  40.
 Defaulting to unpruned grid for atomic number  40.
 Defaulting to unpruned grid for atomic number  40.
 Defaulting to unpruned grid for atomic number  40.
 Defaulting to unpruned grid for atomic number  40.
 Defaulting to unpruned grid for atomic number  40.
 Defaulting to unpruned grid for atomic number  40.
 Defaulting to unpruned grid for atomic number  40.
 Defaulting to unpruned grid for atomic number  40.
 Defaulting to unpruned grid for atomic number  40.
 Defaulting to unpruned grid for atomic number  40.
 Defaulting to unpruned grid for atomic number  40.
 Defaulting to unpruned grid for atomic number  40.
 Defaulting to unpruned grid for atomic number  40.
 SCF Done:  E(RB3LYP) =  -2416.94682317     A.U. after   14 cycles
            NFock= 14  Conv=0.25D-08     -V/T= 2.0185

 **********************************************************************

            Population analysis using the SCF Density.

 **********************************************************************

 Orbital symmetries:
       Occupied  (A) (A) (A) (A) (A) (A) (A) (A) (A) (A) (A) (A)
                 (A) (A) (A) (A) (A) (A) (A) (A) (A) (A) (A) (A)
                 (A) (A) (A) (A) (A) (A) (A) (A) (A) (A) (A) (A)
                 (A) (A) (A) (A) (A) (A) (A) (A) (A) (A) (A) (A)
                 (A) (A) (A) (A) (A) (A) (A) (A) (A) (A) (A) (A)
                 (A) (A) (A) (A) (A) (A) (A) (A) (A) (A) (A) (A)
                 (A) (A) (A) (A) (A) (A) (A) (A) (A) (A) (A) (A)
                 (A) (A) (A) (A) (A) (A) (A) (A) (A) (A) (A) (A)
                 (A) (A) (A) (A) (A) (A) (A) (A)
       Virtual   (A) (A) (A) (A) (A) (A) (A) (A) (A) (A) (A) (A)
                 (A) (A) (A) (A) (A) (A) (A) (A) (A) (A) (A) (A)
                 (A) (A) (A) (A) (A) (A) (A) (A) (A) (A) (A) (A)
                 (A) (A) (A) (A) (A) (A) (A) (A) (A) (A) (A) (A)
                 (A) (A) (A) (A) (A) (A) (A) (A) (A) (A) (A) (A)
                 (A) (A) (A) (A) (A) (A) (A) (A) (A) (A) (A) (A)
                 (A) (A) (A) (A) (A) (A) (A) (A) (A) (A) (A) (A)
                 (A) (A) (A) (A) (A) (A) (A) (A) (A) (A) (A) (A)
                 (A) (A) (A) (A) (A) (A) (A) (A) (A) (A) (A) (A)
                 (A) (A) (A) (A) (A) (A) (A) (A) (A) (A) (A) (A)
                 (A) (A) (A) (A) (A) (A) (A) (A) (A) (A) (A) (A)
                 (A) (A) (A) (A) (A) (A) (A) (A) (A) (A) (A) (A)
                 (A) (A) (A) (A) (A) (A) (A) (A) (A) (A) (A) (A)
                 (A) (A) (A) (A) (A) (A) (A) (A) (A) (A) (A) (A)
                 (A) (A) (A) (A) (A) (A) (A) (A) (A) (A) (A) (A)
                 (A) (A) (A) (A) (A) (A) (A) (A) (A) (A) (A) (A)
                 (A) (A) (A) (A) (A) (A) (A) (A) (A) (A) (A) (A)
                 (A) (A) (A) (A) (A) (A) (A) (A) (A) (A) (A) (A)
                 (A) (A) (A) (A) (A) (A) (A) (A) (A) (A) (A) (A)
                 (A) (A) (A) (A) (A) (A) (A) (A) (A) (A) (A) (A)
                 (A) (A) (A) (A) (A) (A) (A) (A) (A) (A) (A) (A)
                 (A) (A) (A) (A) (A) (A) (A) (A) (A) (A) (A) (A)
                 (A) (A) (A) (A) (A) (A) (A) (A) (A) (A) (A) (A)
                 (A) (A) (A) (A) (A) (A) (A) (A) (A) (A) (A) (A)
                 (A) (A) (A) (A) (A) (A) (A) (A) (A) (A) (A) (A)
                 (A) (A) (A) (A) (A) (A) (A) (A) (A) (A) (A) (A)
                 (A) (A) (A) (A) (A) (A) (A) (A) (A) (A) (A) (A)
                 (A) (A) (A) (A) (A) (A) (A) (A) (A) (A) (A) (A)
                 (A) (A) (A) (A) (A) (A) (A) (A) (A) (A) (A) (A)
                 (A) (A) (A) (A) (A) (A) (A) (A) (A) (A) (A) (A)
                 (A) (A) (A) (A) (A) (A) (A) (A) (A) (A) (A) (A)
                 (A) (A) (A) (A) (A) (A) (A) (A) (A) (A) (A) (A)
                 (A) (A) (A) (A) (A) (A) (A) (A) (A) (A) (A) (A)
                 (A) (A) (A) (A) (A) (A) (A) (A) (A) (A) (A) (A)
                 (A) (A) (A) (A) (A) (A) (A) (A) (A) (A) (A) (A)
 The electronic state is 1-A.
 Alpha  occ. eigenvalues --  -66.22797 -66.21760 -66.21487 -66.21060 -19.18583
 Alpha  occ. eigenvalues --  -19.18352 -19.17773 -19.17024 -19.16735 -19.16526
 Alpha  occ. eigenvalues --  -19.16427 -19.16230 -19.16200 -19.16031 -19.16005
 Alpha  occ. eigenvalues --  -19.15504 -19.15338 -19.15280 -19.14909 -19.14718
 Alpha  occ. eigenvalues --   -5.36857  -5.35840  -5.35563  -5.35120  -3.72841
 Alpha  occ. eigenvalues --   -3.72814  -3.72768  -3.71832  -3.71785  -3.71750
 Alpha  occ. eigenvalues --   -3.71532  -3.71524  -3.71484  -3.71085  -3.71076
 Alpha  occ. eigenvalues --   -3.71050  -2.13371  -1.29613  -1.29529  -1.29374
 Alpha  occ. eigenvalues --   -1.05674  -1.04777  -1.04146  -1.03518  -1.02555
 Alpha  occ. eigenvalues --   -1.02169  -1.01474  -1.00920  -1.00752  -1.00685
 Alpha  occ. eigenvalues --   -0.99846  -0.99317  -0.97372  -0.96280  -0.95733
 Alpha  occ. eigenvalues --   -0.95420  -0.60984  -0.59163  -0.58971  -0.58512
 Alpha  occ. eigenvalues --   -0.55531  -0.54533  -0.53861  -0.53051  -0.52982
 Alpha  occ. eigenvalues --   -0.52504  -0.52170  -0.51708  -0.48772  -0.47602
 Alpha  occ. eigenvalues --   -0.47206  -0.46743  -0.43376  -0.42662  -0.41859
 Alpha  occ. eigenvalues --   -0.41398  -0.41110  -0.40525  -0.39823  -0.39355
 Alpha  occ. eigenvalues --   -0.38799  -0.38686  -0.38639  -0.38151  -0.38032
 Alpha  occ. eigenvalues --   -0.37635  -0.37475  -0.37216  -0.36561  -0.36402
 Alpha  occ. eigenvalues --   -0.36051  -0.35607  -0.35503  -0.35105  -0.34880
 Alpha  occ. eigenvalues --   -0.34609  -0.34022  -0.33693  -0.33509  -0.33238
 Alpha  occ. eigenvalues --   -0.32843  -0.32176  -0.32061  -0.31313
 Alpha virt. eigenvalues --   -0.04323  -0.03174  -0.03050  -0.02749  -0.02089
 Alpha virt. eigenvalues --   -0.01176  -0.00556  -0.00110   0.00085   0.00296
 Alpha virt. eigenvalues --    0.00774   0.00905   0.01039   0.01944   0.02341
 Alpha virt. eigenvalues --    0.03289   0.03318   0.03844   0.03973   0.04041
 Alpha virt. eigenvalues --    0.04202   0.04628   0.05520   0.05877   0.06214
 Alpha virt. eigenvalues --    0.06466   0.07061   0.07506   0.07702   0.08662
 Alpha virt. eigenvalues --    0.08795   0.09081   0.09198   0.09665   0.09918
 Alpha virt. eigenvalues --    0.10304   0.10696   0.10885   0.11340   0.11688
 Alpha virt. eigenvalues --    0.11809   0.12587   0.13201   0.13334   0.13469
 Alpha virt. eigenvalues --    0.14010   0.14527   0.14843   0.15001   0.15238
 Alpha virt. eigenvalues --    0.15308   0.15715   0.16226   0.16718   0.16923
 Alpha virt. eigenvalues --    0.17362   0.17541   0.17727   0.18133   0.18415
 Alpha virt. eigenvalues --    0.18586   0.18965   0.19206   0.19686   0.19817
 Alpha virt. eigenvalues --    0.20139   0.20219   0.20569   0.20842   0.21244
 Alpha virt. eigenvalues --    0.21754   0.22090   0.22307   0.22396   0.22703
 Alpha virt. eigenvalues --    0.23213   0.23716   0.24024   0.24130   0.24537
 Alpha virt. eigenvalues --    0.24706   0.25046   0.25663   0.25916   0.26140
 Alpha virt. eigenvalues --    0.26628   0.26701   0.26990   0.27197   0.27534
 Alpha virt. eigenvalues --    0.27901   0.28328   0.28595   0.28764   0.29052
 Alpha virt. eigenvalues --    0.29477   0.29743   0.30083   0.30256   0.30700
 Alpha virt. eigenvalues --    0.30848   0.31351   0.31487   0.31760   0.31952
 Alpha virt. eigenvalues --    0.32401   0.32721   0.33083   0.33476   0.34042
 Alpha virt. eigenvalues --    0.34476   0.34813   0.35359   0.35573   0.36315
 Alpha virt. eigenvalues --    0.36785   0.37481   0.38043   0.38497   0.38812
 Alpha virt. eigenvalues --    0.39528   0.39806   0.40215   0.41010   0.41520
 Alpha virt. eigenvalues --    0.42904   0.43247   0.43782   0.44162   0.44702
 Alpha virt. eigenvalues --    0.45462   0.45554   0.46042   0.46575   0.47359
 Alpha virt. eigenvalues --    0.47995   0.48658   0.48917   0.49346   0.49512
 Alpha virt. eigenvalues --    0.50076   0.50882   0.51172   0.51323   0.53071
 Alpha virt. eigenvalues --    0.54115   0.54353   0.55147   0.56538   0.57262
 Alpha virt. eigenvalues --    0.58084   0.58535   0.58874   0.59200   0.60368
 Alpha virt. eigenvalues --    0.61148   0.61744   0.62180   0.64387   0.65868
 Alpha virt. eigenvalues --    0.67122   0.68161   0.68407   0.68546   0.69460
 Alpha virt. eigenvalues --    0.69931   0.70806   0.73121   0.74532   0.75046
 Alpha virt. eigenvalues --    0.75446   0.77259   0.78626   0.78917   0.80283
 Alpha virt. eigenvalues --    0.81015   0.81473   0.82613   0.84129   0.85265
 Alpha virt. eigenvalues --    0.86500   0.87738   0.89601   0.90528   0.91291
 Alpha virt. eigenvalues --    0.94525   0.95695   0.96203   0.96872   0.97496
 Alpha virt. eigenvalues --    0.98030   0.98644   0.99199   0.99722   1.00496
 Alpha virt. eigenvalues --    1.00891   1.01468   1.02347   1.03295   1.04062
 Alpha virt. eigenvalues --    1.04400   1.05427   1.06522   1.06701   1.08056
 Alpha virt. eigenvalues --    1.09787   1.12371   1.15247   1.16203   1.16510
 Alpha virt. eigenvalues --    1.18697   1.19059   1.19751   1.20601   1.20911
 Alpha virt. eigenvalues --    1.21431   1.21691   1.22384   1.22915   1.22987
 Alpha virt. eigenvalues --    1.23441   1.23876   1.24415   1.25137   1.25701
 Alpha virt. eigenvalues --    1.26127   1.27164   1.27306   1.28106   1.28504
 Alpha virt. eigenvalues --    1.29000   1.29787   1.30113   1.30741   1.31515
 Alpha virt. eigenvalues --    1.32461   1.32721   1.32953   1.33757   1.34516
 Alpha virt. eigenvalues --    1.35356   1.35944   1.36695   1.36952   1.37793
 Alpha virt. eigenvalues --    1.39103   1.39750   1.40231   1.41111   1.41460
 Alpha virt. eigenvalues --    1.42810   1.43757   1.44397   1.45226   1.46308
 Alpha virt. eigenvalues --    1.46990   1.48732   1.50691   1.51144   1.52736
 Alpha virt. eigenvalues --    1.56720   1.57105   1.57643   1.59268   1.59842
 Alpha virt. eigenvalues --    1.60102   1.61236   1.61834   1.62380   1.63113
 Alpha virt. eigenvalues --    1.63231   1.63877   1.65177   1.65403   1.66624
 Alpha virt. eigenvalues --    1.66865   1.67959   1.69377   1.69865   1.70160
 Alpha virt. eigenvalues --    1.71362   1.71435   1.71581   1.72438   1.73440
 Alpha virt. eigenvalues --    1.74229   1.74978   1.75479   1.76085   1.76839
 Alpha virt. eigenvalues --    1.77225   1.77578   1.78454   1.78611   1.79485
 Alpha virt. eigenvalues --    1.80687   1.81512   1.82254   1.82373   1.83003
 Alpha virt. eigenvalues --    1.83379   1.84862   1.85115   1.85920   1.86619
 Alpha virt. eigenvalues --    1.87146   1.88114   1.88392   1.89892   1.90496
 Alpha virt. eigenvalues --    1.91257   1.91302   1.92451   1.92824   1.93935
 Alpha virt. eigenvalues --    1.94660   1.95102   1.95879   1.97342   1.98373
 Alpha virt. eigenvalues --    1.99068   2.00515   2.01141   2.03149   2.03621
 Alpha virt. eigenvalues --    2.05964   2.06611   2.07812   2.09659   2.10420
 Alpha virt. eigenvalues --    2.11094   2.13010   2.14045   2.16088   2.16334
 Alpha virt. eigenvalues --    2.17814   2.18844   2.18987   2.20749   2.26263
 Alpha virt. eigenvalues --    2.32523   2.33488   2.35510   2.39478   2.40386
 Alpha virt. eigenvalues --    2.41210   2.41391   2.41809   2.42726   2.43688
 Alpha virt. eigenvalues --    2.44033   2.45790   2.46713   2.47680   2.48912
 Alpha virt. eigenvalues --    2.50220   2.50305   2.51683   2.52807   2.53355
 Alpha virt. eigenvalues --    2.55376   2.58137   2.59294   2.60081   2.60657
 Alpha virt. eigenvalues --    2.61106   2.61844   2.62046   2.62415   2.62796
 Alpha virt. eigenvalues --    2.63143   2.64029   2.64553   2.64984   2.65973
 Alpha virt. eigenvalues --    2.66340   2.66553   2.67323   2.67558   2.69378
 Alpha virt. eigenvalues --    2.69705   2.70296   2.71207   2.71673   2.72369
 Alpha virt. eigenvalues --    2.72795   2.74339   2.75551   2.76733   2.77462
 Alpha virt. eigenvalues --    2.78940   2.80487   2.81509   2.82464   2.83373
 Alpha virt. eigenvalues --    2.83770   2.84686   2.86663   2.87783   2.88128
 Alpha virt. eigenvalues --    3.14418   3.19829   3.35922   3.41025   3.46883
 Alpha virt. eigenvalues --    3.47914   3.48563   3.48715   3.51100   3.51135
 Alpha virt. eigenvalues --    3.52941   3.54426   3.60300   3.61082   3.62052
 Alpha virt. eigenvalues --    3.66197   4.29738   4.57402   7.86254  31.29198
          Condensed to atoms (all electrons):
               1          2          3          4          5          6
     1  Zr  15.096790  -0.150115  -0.002174  -0.150688  -0.190637  -0.546377
     2  O   -0.150115   9.080798   0.018972  -0.042113  -0.055823   0.093015
     3  O   -0.002174   0.018972   8.830532   0.014316  -0.041277  -0.006587
     4  O   -0.150688  -0.042113   0.014316   8.812928  -0.059604  -0.669732
     5  O   -0.190637  -0.055823  -0.041277  -0.059604   9.428793  -0.004912
     6  Si  -0.546377   0.093015  -0.006587  -0.669732  -0.004912  13.933073
     7  Si  -0.614160  -0.027967  -0.876440  -0.005264  -0.033107   0.083801
     8  Si  -0.546966  -1.008297  -0.021113   0.076974  -0.013191  -0.034648
     9  Si  -0.342122  -0.041893  -0.028386  -0.034631  -1.267165   0.036939
    10  O   -0.014314   0.001028  -0.001886   0.001302   0.136185  -0.002132
    11  O   -0.051517   0.003667   0.002785   0.001027   0.307152  -0.001192
    12  O    0.032826   0.000061   0.004586   0.002174   0.171007  -0.002445
    13  O   -0.048676   0.190428   0.001680  -0.015460  -0.000617   0.038226
    14  O   -0.026631   0.268513  -0.017648  -0.009004   0.002063   0.031017
    15  O   -0.078032   0.292378  -0.000759   0.001233   0.000514  -0.001156
    16  O   -0.128886   0.004650  -0.000469   0.344027   0.003151  -0.416951
    17  O   -0.087067  -0.039683   0.007815   0.221294   0.001357  -0.453906
    18  O   -0.031018  -0.014042   0.003734   0.199652  -0.000531  -0.451257
    19  O   -0.005109   0.009179   0.262664   0.010512   0.002162  -0.005690
    20  O   -0.147565  -0.000558   0.164490  -0.000893   0.001457   0.009145
    21  O    0.033088   0.010606   0.146686   0.003419   0.000259  -0.011462
    22  H   -0.008797  -0.000022  -0.000039  -0.000011   0.005630   0.000081
    23  H   -0.007015  -0.000014  -0.000009  -0.000055  -0.025575   0.000057
    24  H   -0.003871  -0.000263  -0.000011  -0.000003  -0.006297   0.000022
    25  H    0.017922  -0.020223  -0.000111  -0.000239   0.000019   0.002170
    26  H    0.007452   0.000471   0.000015  -0.000012  -0.000004  -0.000141
    27  H    0.006725  -0.019694   0.000879  -0.001690   0.000006   0.008149
    28  H    0.005197  -0.000011  -0.018553  -0.000015  -0.000016  -0.000290
    29  H    0.005176  -0.007137  -0.020367  -0.000145  -0.000074   0.000026
    30  H    0.001111  -0.000013   0.000125  -0.000455  -0.000008  -0.000832
    31  H    0.000160   0.000161  -0.000019  -0.018414  -0.000009   0.063569
    32  H    0.001854  -0.000022   0.000038   0.010397   0.000001   0.023077
    33  H   -0.016367   0.000993  -0.010072  -0.009558  -0.000106   0.053629
               7          8          9         10         11         12
     1  Zr  -0.614160  -0.546966  -0.342122  -0.014314  -0.051517   0.032826
     2  O   -0.027967  -1.008297  -0.041893   0.001028   0.003667   0.000061
     3  O   -0.876440  -0.021113  -0.028386  -0.001886   0.002785   0.004586
     4  O   -0.005264   0.076974  -0.034631   0.001302   0.001027   0.002174
     5  O   -0.033107  -0.013191  -1.267165   0.136185   0.307152   0.171007
     6  Si   0.083801  -0.034648   0.036939  -0.002132  -0.001192  -0.002445
     7  Si  13.792137   0.180271   0.022144  -0.000116  -0.000715   0.004035
     8  Si   0.180271  13.788677   0.025023  -0.000706   0.001084  -0.000263
     9  Si   0.022144   0.025023  14.360346  -0.081105  -0.182372  -0.232547
    10  O   -0.000116  -0.000706  -0.081105   8.530907   0.015330   0.030896
    11  O   -0.000715   0.001084  -0.182372   0.015330   8.509790  -0.046629
    12  O    0.004035  -0.000263  -0.232547   0.030896  -0.046629   8.600487
    13  O    0.007603  -0.093679   0.000384  -0.000000   0.000018   0.000011
    14  O    0.010224  -0.372478  -0.001401  -0.000001  -0.000002   0.000021
    15  O   -0.003048  -0.307071  -0.000723   0.000000  -0.000028  -0.000023
    16  O    0.003929  -0.009874  -0.001023   0.000003  -0.000000  -0.000001
    17  O   -0.000242   0.098120   0.002750  -0.000002  -0.000000  -0.000004
    18  O   -0.000537   0.074346   0.004374  -0.000004  -0.000004  -0.000001
    19  O   -0.403944  -0.014798   0.001119   0.000005  -0.000002  -0.000005
    20  O   -0.107739   0.009709   0.003257  -0.000001  -0.000003   0.000011
    21  O    0.023156  -0.038834  -0.001996   0.000002   0.000001   0.000036
    22  H   -0.000246   0.000082   0.046588  -0.006410  -0.005304   0.220289
    23  H    0.000051   0.000063   0.081024   0.228559  -0.006426   0.006035
    24  H    0.000073  -0.000186   0.037169   0.007523   0.242326  -0.007654
    25  H   -0.000484   0.057452  -0.000216   0.000000  -0.000000  -0.000000
    26  H   -0.000374   0.045914  -0.000045   0.000000   0.000000  -0.000000
    27  H    0.001039   0.068008  -0.000022   0.000000  -0.000000  -0.000000
    28  H    0.056797  -0.000091  -0.000126  -0.000000  -0.000000  -0.000004
    29  H    0.048052   0.021365  -0.000055   0.000000   0.000000  -0.000001
    30  H    0.040090   0.000056   0.000024   0.000000  -0.000000   0.000000
    31  H    0.000152  -0.001994  -0.000059   0.000000  -0.000000  -0.000000
    32  H   -0.000654   0.000065   0.000002  -0.000000   0.000000   0.000000
    33  H    0.020604   0.000201   0.000084  -0.000000   0.000000   0.000000
              13         14         15         16         17         18
     1  Zr  -0.048676  -0.026631  -0.078032  -0.128886  -0.087067  -0.031018
     2  O    0.190428   0.268513   0.292378   0.004650  -0.039683  -0.014042
     3  O    0.001680  -0.017648  -0.000759  -0.000469   0.007815   0.003734
     4  O   -0.015460  -0.009004   0.001233   0.344027   0.221294   0.199652
     5  O   -0.000617   0.002063   0.000514   0.003151   0.001357  -0.000531
     6  Si   0.038226   0.031017  -0.001156  -0.416951  -0.453906  -0.451257
     7  Si   0.007603   0.010224  -0.003048   0.003929  -0.000242  -0.000537
     8  Si  -0.093679  -0.372478  -0.307071  -0.009874   0.098120   0.074346
     9  Si   0.000384  -0.001401  -0.000723  -0.001023   0.002750   0.004374
    10  O   -0.000000  -0.000001   0.000000   0.000003  -0.000002  -0.000004
    11  O    0.000018  -0.000002  -0.000028  -0.000000  -0.000000  -0.000004
    12  O    0.000011   0.000021  -0.000023  -0.000001  -0.000004  -0.000001
    13  O    8.630610   0.087869  -0.091650   0.003707  -0.030764  -0.045145
    14  O    0.087869   8.679001   0.055416   0.003657  -0.035691  -0.026723
    15  O   -0.091650   0.055416   8.777485  -0.000174   0.003599   0.001657
    16  O    0.003707   0.003657  -0.000174   8.899720  -0.091225  -0.115097
    17  O   -0.030764  -0.035691   0.003599  -0.091225   8.936101   0.228293
    18  O   -0.045145  -0.026723   0.001657  -0.115097   0.228293   9.015441
    19  O    0.000196  -0.000259   0.000136  -0.001546  -0.029791   0.000192
    20  O    0.000008  -0.000204   0.000038   0.000064  -0.000990   0.000015
    21  O   -0.000226   0.016036  -0.000634  -0.000216  -0.005574   0.000474
    22  H   -0.000000   0.000000  -0.000000   0.000000   0.000000  -0.000000
    23  H    0.000000   0.000000  -0.000000  -0.000000   0.000000  -0.000000
    24  H   -0.000000   0.000000   0.000002   0.000000   0.000000  -0.000000
    25  H    0.218173  -0.012041   0.008926  -0.000046   0.000615   0.014833
    26  H   -0.005135  -0.010015   0.217242   0.000000  -0.000003   0.000006
    27  H   -0.009885   0.218934   0.004626   0.000185   0.017872  -0.000280
    28  H   -0.000000  -0.000005  -0.000001  -0.000000   0.000004  -0.000000
    29  H    0.000786   0.017675  -0.002564  -0.000004  -0.000400   0.000005
    30  H    0.000001  -0.000004   0.000000   0.000119  -0.000394  -0.000007
    31  H    0.002343   0.000162  -0.000018   0.003842  -0.000803   0.217989
    32  H   -0.000008  -0.000006   0.000000   0.233448  -0.003642   0.003905
    33  H    0.000231   0.002044  -0.000035  -0.000119   0.230972   0.002101
              19         20         21         22         23         24
     1  Zr  -0.005109  -0.147565   0.033088  -0.008797  -0.007015  -0.003871
     2  O    0.009179  -0.000558   0.010606  -0.000022  -0.000014  -0.000263
     3  O    0.262664   0.164490   0.146686  -0.000039  -0.000009  -0.000011
     4  O    0.010512  -0.000893   0.003419  -0.000011  -0.000055  -0.000003
     5  O    0.002162   0.001457   0.000259   0.005630  -0.025575  -0.006297
     6  Si  -0.005690   0.009145  -0.011462   0.000081   0.000057   0.000022
     7  Si  -0.403944  -0.107739   0.023156  -0.000246   0.000051   0.000073
     8  Si  -0.014798   0.009709  -0.038834   0.000082   0.000063  -0.000186
     9  Si   0.001119   0.003257  -0.001996   0.046588   0.081024   0.037169
    10  O    0.000005  -0.000001   0.000002  -0.006410   0.228559   0.007523
    11  O   -0.000002  -0.000003   0.000001  -0.005304  -0.006426   0.242326
    12  O   -0.000005   0.000011   0.000036   0.220289   0.006035  -0.007654
    13  O    0.000196   0.000008  -0.000226  -0.000000   0.000000  -0.000000
    14  O   -0.000259  -0.000204   0.016036   0.000000   0.000000   0.000000
    15  O    0.000136   0.000038  -0.000634  -0.000000  -0.000000   0.000002
    16  O   -0.001546   0.000064  -0.000216   0.000000  -0.000000   0.000000
    17  O   -0.029791  -0.000990  -0.005574   0.000000   0.000000   0.000000
    18  O    0.000192   0.000015   0.000474  -0.000000  -0.000000  -0.000000
    19  O    8.871531   0.031919   0.023734   0.000000   0.000000  -0.000000
    20  O    0.031919   8.656671  -0.050406   0.000001   0.000000  -0.000000
    21  O    0.023734  -0.050406   8.487418  -0.000000   0.000000   0.000000
    22  H    0.000000   0.000001  -0.000000   0.360899   0.000050   0.000121
    23  H    0.000000   0.000000   0.000000   0.000050   0.350611   0.000010
    24  H   -0.000000  -0.000000   0.000000   0.000121   0.000010   0.365019
    25  H   -0.000025   0.000000  -0.000019   0.000000   0.000000   0.000000
    26  H    0.000001  -0.000000   0.000038  -0.000000  -0.000000  -0.000000
    27  H    0.000015   0.000191  -0.004024  -0.000000  -0.000000   0.000000
    28  H    0.004595   0.229571  -0.002103  -0.000000   0.000000  -0.000000
    29  H   -0.008571   0.007673   0.206428   0.000000   0.000000  -0.000000
    30  H    0.224294  -0.001493  -0.007142   0.000000  -0.000000   0.000000
    31  H    0.000004  -0.000000  -0.000000  -0.000000  -0.000000   0.000000
    32  H    0.000098   0.000000   0.000001  -0.000000  -0.000000  -0.000000
    33  H    0.014789  -0.000083   0.001471  -0.000000  -0.000000  -0.000000
              25         26         27         28         29         30
     1  Zr   0.017922   0.007452   0.006725   0.005197   0.005176   0.001111
     2  O   -0.020223   0.000471  -0.019694  -0.000011  -0.007137  -0.000013
     3  O   -0.000111   0.000015   0.000879  -0.018553  -0.020367   0.000125
     4  O   -0.000239  -0.000012  -0.001690  -0.000015  -0.000145  -0.000455
     5  O    0.000019  -0.000004   0.000006  -0.000016  -0.000074  -0.000008
     6  Si   0.002170  -0.000141   0.008149  -0.000290   0.000026  -0.000832
     7  Si  -0.000484  -0.000374   0.001039   0.056797   0.048052   0.040090
     8  Si   0.057452   0.045914   0.068008  -0.000091   0.021365   0.000056
     9  Si  -0.000216  -0.000045  -0.000022  -0.000126  -0.000055   0.000024
    10  O    0.000000   0.000000   0.000000  -0.000000   0.000000   0.000000
    11  O   -0.000000   0.000000  -0.000000  -0.000000   0.000000  -0.000000
    12  O   -0.000000  -0.000000  -0.000000  -0.000004  -0.000001   0.000000
    13  O    0.218173  -0.005135  -0.009885  -0.000000   0.000786   0.000001
    14  O   -0.012041  -0.010015   0.218934  -0.000005   0.017675  -0.000004
    15  O    0.008926   0.217242   0.004626  -0.000001  -0.002564   0.000000
    16  O   -0.000046   0.000000   0.000185  -0.000000  -0.000004   0.000119
    17  O    0.000615  -0.000003   0.017872   0.000004  -0.000400  -0.000394
    18  O    0.014833   0.000006  -0.000280  -0.000000   0.000005  -0.000007
    19  O   -0.000025   0.000001   0.000015   0.004595  -0.008571   0.224294
    20  O    0.000000  -0.000000   0.000191   0.229571   0.007673  -0.001493
    21  O   -0.000019   0.000038  -0.004024  -0.002103   0.206428  -0.007142
    22  H    0.000000  -0.000000  -0.000000  -0.000000   0.000000   0.000000
    23  H    0.000000  -0.000000  -0.000000   0.000000   0.000000  -0.000000
    24  H    0.000000  -0.000000   0.000000  -0.000000  -0.000000   0.000000
    25  H    0.298797  -0.000013   0.000118   0.000000   0.000001   0.000000
    26  H   -0.000013   0.365790   0.000037   0.000000   0.000021  -0.000000
    27  H    0.000118   0.000037   0.283296  -0.000000  -0.001501   0.000010
    28  H    0.000000   0.000000  -0.000000   0.349239  -0.000016  -0.000016
    29  H    0.000001   0.000021  -0.001501  -0.000016   0.285969   0.000155
    30  H    0.000000  -0.000000   0.000010  -0.000016   0.000155   0.334204
    31  H   -0.000490   0.000000   0.000013   0.000000   0.000000  -0.000000
    32  H   -0.000001   0.000000  -0.000000   0.000000  -0.000000  -0.000000
    33  H    0.000006  -0.000000  -0.002406  -0.000002   0.000100  -0.001154
              31         32         33
     1  Zr   0.000160   0.001854  -0.016367
     2  O    0.000161  -0.000022   0.000993
     3  O   -0.000019   0.000038  -0.010072
     4  O   -0.018414   0.010397  -0.009558
     5  O   -0.000009   0.000001  -0.000106
     6  Si   0.063569   0.023077   0.053629
     7  Si   0.000152  -0.000654   0.020604
     8  Si  -0.001994   0.000065   0.000201
     9  Si  -0.000059   0.000002   0.000084
    10  O    0.000000  -0.000000  -0.000000
    11  O   -0.000000   0.000000   0.000000
    12  O   -0.000000   0.000000   0.000000
    13  O    0.002343  -0.000008   0.000231
    14  O    0.000162  -0.000006   0.002044
    15  O   -0.000018   0.000000  -0.000035
    16  O    0.003842   0.233448  -0.000119
    17  O   -0.000803  -0.003642   0.230972
    18  O    0.217989   0.003905   0.002101
    19  O    0.000004   0.000098   0.014789
    20  O   -0.000000   0.000000  -0.000083
    21  O   -0.000000   0.000001   0.001471
    22  H   -0.000000  -0.000000  -0.000000
    23  H   -0.000000  -0.000000  -0.000000
    24  H    0.000000  -0.000000  -0.000000
    25  H   -0.000490  -0.000001   0.000006
    26  H    0.000000   0.000000  -0.000000
    27  H    0.000013  -0.000000  -0.002406
    28  H    0.000000   0.000000  -0.000002
    29  H    0.000000  -0.000000   0.000100
    30  H   -0.000000  -0.000000  -0.001154
    31  H    0.331360  -0.000001  -0.000038
    32  H   -0.000001   0.349788   0.000157
    33  H   -0.000038   0.000157   0.269240
 Mulliken charges:
               1
     1  Zr  -0.010197
     2  O   -0.547031
     3  O   -0.413396
     4  O   -0.681268
     5  O   -0.360807
     6  Si   2.233712
     7  Si   1.780882
     8  Si   2.016779
     9  Si   1.594661
    10  O   -0.845062
    11  O   -0.788987
    12  O   -0.782897
    13  O   -0.841030
    14  O   -0.880517
    15  O   -0.877338
    16  O   -0.734869
    17  O   -0.968610
    18  O   -1.082371
    19  O   -0.987407
    20  O   -0.804286
    21  O   -0.830215
    22  H    0.387088
    23  H    0.372634
    24  H    0.366019
    25  H    0.414875
    26  H    0.378754
    27  H    0.429399
    28  H    0.375846
    29  H    0.447401
    30  H    0.411330
    31  H    0.402089
    32  H    0.381501
    33  H    0.443318
 Sum of Mulliken charges =  -0.00000
 Mulliken charges with hydrogens summed into heavy atoms:
               1
     1  Zr  -0.010197
     2  O   -0.547031
     3  O   -0.413396
     4  O   -0.681268
     5  O   -0.360807
     6  Si   2.233712
     7  Si   1.780882
     8  Si   2.016779
     9  Si   1.594661
    10  O   -0.472428
    11  O   -0.422968
    12  O   -0.395809
    13  O   -0.426155
    14  O   -0.451118
    15  O   -0.498583
    16  O   -0.353368
    17  O   -0.525292
    18  O   -0.680282
    19  O   -0.576077
    20  O   -0.428440
    21  O   -0.382813
 Electronic spatial extent (au):  <R**2>=           9868.8880
 Charge=             -0.0000 electrons
 Dipole moment (field-independent basis, Debye):
    X=              1.0504    Y=             -0.6639    Z=             -2.2069  Tot=              2.5327
 Quadrupole moment (field-independent basis, Debye-Ang):
   XX=           -160.3289   YY=           -154.6648   ZZ=           -157.9062
   XY=             -4.5572   XZ=              2.6645   YZ=              5.8901
 Traceless Quadrupole moment (field-independent basis, Debye-Ang):
   XX=             -2.6956   YY=              2.9685   ZZ=             -0.2729
   XY=             -4.5572   XZ=              2.6645   YZ=              5.8901
 Octapole moment (field-independent basis, Debye-Ang**2):
  XXX=             74.1406  YYY=              7.1207  ZZZ=            -12.4857  XYY=              0.0869
  XXY=             20.8700  XXZ=             18.2070  XZZ=              2.2259  YZZ=            -16.4909
  YYZ=            -20.0174  XYZ=             28.6388
 Hexadecapole moment (field-independent basis, Debye-Ang**3):
 XXXX=          -6027.1355 YYYY=          -2842.9297 ZZZZ=          -2259.7250 XXXY=             54.2639
 XXXZ=            -43.6722 YYYX=              2.8758 YYYZ=            228.0562 ZZZX=           -154.5510
 ZZZY=            -62.1810 XXYY=          -1458.6817 XXZZ=          -1390.9335 YYZZ=           -921.9883
 XXYZ=             -5.6968 YYXZ=            107.2010 ZZXY=            -54.6983
 N-N= 2.832983671294D+03 E-N=-1.137856059828D+04  KE= 2.373154882217D+03
 PrsmSu:  requested number of processors reduced to:   2 ShMem   1 Linda.
 PrsmSu:  requested number of processors reduced to:  10 ShMem   1 Linda.
   1 Symmetry operations used in ECPInt.
 ECPInt:  NShTT=   13203 NPrTT=   78401 LenC2=   11527 LenP2D=   44637.
 LDataN:  DoStor=T MaxTD1= 9 Len=  602
 Number of processors reduced to  14 by ecpmxn.
 Calling FoFJK, ICntrl=      2127 FMM=F ISym2X=0 I1Cent= 0 IOpClX= 0 NMat=1 NMatS=1 NMatT=0.
 CoulSu:  requested number of processors reduced to:  10 ShMem   1 Linda.
 Defaulting to unpruned grid for atomic number  40.
 Defaulting to unpruned grid for atomic number  40.
 Defaulting to unpruned grid for atomic number  40.
 Defaulting to unpruned grid for atomic number  40.
 Defaulting to unpruned grid for atomic number  40.
 Defaulting to unpruned grid for atomic number  40.
 Defaulting to unpruned grid for atomic number  40.
 Defaulting to unpruned grid for atomic number  40.
 Defaulting to unpruned grid for atomic number  40.
 Defaulting to unpruned grid for atomic number  40.
 Defaulting to unpruned grid for atomic number  40.
 Defaulting to unpruned grid for atomic number  40.
 Defaulting to unpruned grid for atomic number  40.
 Defaulting to unpruned grid for atomic number  40.
 Defaulting to unpruned grid for atomic number  40.
 Defaulting to unpruned grid for atomic number  40.
 ***** Axes restored to original set *****
 -------------------------------------------------------------------
 Center     Atomic                   Forces (Hartrees/Bohr)
 Number     Number              X              Y              Z
 -------------------------------------------------------------------
      1       40          -0.000066090    0.000031937   -0.000682350
      2        8           0.000060717    0.000011950    0.000222001
      3        8          -0.000038233   -0.000058529    0.000087935
      4        8           0.000005336    0.000033822    0.000133145
      5        8          -0.000076709    0.000049748    0.000455139
      6       14           0.000017079   -0.000010159   -0.000079384
      7       14           0.000055398    0.000024961   -0.000110185
      8       14          -0.000111712   -0.000065380   -0.000151680
      9       14           0.000074649   -0.000076088   -0.000379079
     10        8           0.000012819    0.000043508    0.000105633
     11        8           0.000014878    0.000071022    0.000052309
     12        8           0.000029342    0.000019857    0.000093138
     13        8           0.000019169    0.000056267    0.000058731
     14        8           0.000041153   -0.000019169    0.000045004
     15        8           0.000038548    0.000015236    0.000061164
     16        8          -0.000011450    0.000005617    0.000039740
     17        8          -0.000006911    0.000010857    0.000034936
     18        8          -0.000020517    0.000004468    0.000028880
     19        8           0.000005233   -0.000002495    0.000031856
     20        8          -0.000026987   -0.000007713    0.000024746
     21        8          -0.000007697   -0.000016049    0.000062014
     22        1          -0.000000482   -0.000014416   -0.000000504
     23        1          -0.000042274   -0.000015249   -0.000014436
     24        1           0.000005338   -0.000099991   -0.000008526
     25        1           0.000002514   -0.000008761   -0.000029824
     26        1           0.000001569    0.000001089   -0.000004147
     27        1          -0.000001587    0.000006524   -0.000029157
     28        1           0.000009969    0.000003610   -0.000010988
     29        1          -0.000010743    0.000006913   -0.000014879
     30        1          -0.000000726    0.000006338   -0.000005451
     31        1           0.000012895   -0.000000896   -0.000002373
     32        1           0.000015496   -0.000002743   -0.000008261
     33        1           0.000000017   -0.000006084   -0.000005143
 -------------------------------------------------------------------
 Cartesian Forces:  Max     0.000682350 RMS     0.000103614

 GradGradGradGradGradGradGradGradGradGradGradGradGradGradGradGradGradGrad
 Berny optimization.
 FormGI is forming the generalized inverse of G from B-inverse, IUseBI=4.
 Internal  Forces:  Max     0.000366585 RMS     0.000060726
 Search for a local minimum.
 Step number   1 out of a maximum of  148
 All quantities printed in internal units (Hartrees-Bohrs-Radians)
 Mixed Optimization -- En-DIIS/RFO-DIIS
 Second derivative matrix not updated -- first step.
 ITU=  0
     Eigenvalues ---    0.00230   0.00230   0.00230   0.00230   0.03240
     Eigenvalues ---    0.03358   0.03498   0.03580   0.03665   0.03666
     Eigenvalues ---    0.03680   0.03686   0.03693   0.03739   0.03789
     Eigenvalues ---    0.03792   0.03816   0.03834   0.03850   0.03857
     Eigenvalues ---    0.08405   0.09407   0.11077   0.11224   0.11819
     Eigenvalues ---    0.11833   0.11884   0.12136   0.12177   0.12239
     Eigenvalues ---    0.12563   0.12783   0.12895   0.13099   0.13313
     Eigenvalues ---    0.16000   0.16000   0.16000   0.16000   0.16000
     Eigenvalues ---    0.16000   0.16000   0.16000   0.16000   0.16000
     Eigenvalues ---    0.16000   0.16000   0.19173   0.19893   0.20028
     Eigenvalues ---    0.20179   0.20203   0.20204   0.20208   0.20515
     Eigenvalues ---    0.20653   0.20795   0.20989   0.21175   0.21186
     Eigenvalues ---    0.21263   0.25000   0.25000   0.25000   0.38001
     Eigenvalues ---    0.39186   0.40660   0.41547   0.42502   0.42510
     Eigenvalues ---    0.42670   0.42743   0.42824   0.43363   0.43950
     Eigenvalues ---    0.43979   0.44274   0.44486   0.44689   0.44768
     Eigenvalues ---    0.50655   0.51354   0.52036   0.52548   0.54336
     Eigenvalues ---    0.54624   0.54642   0.54648   0.54689   0.54692
     Eigenvalues ---    0.54712   0.547631000.000001000.000001000.00000
     Eigenvalues --- 1000.000001000.000001000.000001000.000001000.00000
     Eigenvalues --- 1000.000001000.000001000.000001000.000001000.00000
     Eigenvalues --- 1000.000001000.000001000.000001000.000001000.00000
     Eigenvalues --- 1000.000001000.000001000.000001000.000001000.00000
     Eigenvalues --- 1000.000001000.000001000.000001000.000001000.00000
     Eigenvalues --- 1000.000001000.000001000.000001000.000001000.00000
     Eigenvalues --- 1000.000001000.000001000.000001000.000001000.00000
     Eigenvalues --- 1000.000001000.000001000.000001000.000001000.00000
     Eigenvalues --- 1000.000001000.000001000.00000
 RFO step:  Lambda=-1.94062729D-05 EMin= 2.30000000D-03
 Linear search not attempted -- first point.
 Iteration  1 RMS(Cart)=  0.03522596 RMS(Int)=  0.00048660
 Iteration  2 RMS(Cart)=  0.00078799 RMS(Int)=  0.00000029
 Iteration  3 RMS(Cart)=  0.00000027 RMS(Int)=  0.00000027
 Iteration  1 RMS(Cart)=  0.00000000 RMS(Int)=  0.00000000
 Variable       Old X    -DE/DX   Delta X   Delta X   Delta X     New X
                                 (Linear)    (Quad)   (Total)
    R1        3.67646   0.00011   0.00000   0.00050   0.00050   3.67697
    R2        3.69191  -0.00003   0.00000  -0.00014  -0.00014   3.69177
    R3        3.73836  -0.00013   0.00000  -0.00069  -0.00069   3.73767
    R4        3.70231   0.00000   0.00000   0.00002   0.00002   3.70234
    R5        3.11688  -0.00001   0.00000  -0.00002  -0.00002   3.11686
    R6        3.09578  -0.00001   0.00000  -0.00002  -0.00002   3.09576
    R7        3.10215  -0.00001   0.00000  -0.00002  -0.00002   3.10213
    R8        3.09246   0.00008   0.00000   0.00018   0.00018   3.09263
    R9        3.11587  -0.00003   0.00000  -0.00007  -0.00007   3.11579
   R10        3.11989   0.00002   0.00000   0.00005   0.00005   3.11994
   R11        3.14367   0.00001   0.00000   0.00002   0.00002   3.14369
   R12        3.18063  -0.00002   0.00000  -0.00006  -0.00006   3.18057
   R13        3.10925  -0.00001   0.00000  -0.00002  -0.00002   3.10922
   R14        3.09338   0.00005   0.00000   0.00012   0.00012   3.09350
   R15        3.10180  -0.00006   0.00000  -0.00013  -0.00013   3.10166
   R16        3.16375  -0.00004   0.00000  -0.00010  -0.00010   3.16365
   R17        3.09828   0.00006   0.00000   0.00013   0.00013   3.09841
   R18        3.11979  -0.00009   0.00000  -0.00021  -0.00021   3.11958
   R19        3.13204   0.00005   0.00000   0.00011   0.00011   3.13215
   R20        3.11779   0.00006   0.00000   0.00014   0.00014   3.11794
   R21        1.82152   0.00000   0.00000   0.00000   0.00000   1.82152
   R22        1.82107   0.00003   0.00000   0.00005   0.00005   1.82112
   R23        1.82088  -0.00001   0.00000  -0.00001  -0.00001   1.82087
   R24        1.84078   0.00003   0.00000   0.00006   0.00006   1.84084
   R25        1.84565   0.00003   0.00000   0.00005   0.00005   1.84570
   R26        1.82043  -0.00000   0.00000  -0.00001  -0.00001   1.82042
   R27        1.82109   0.00001   0.00000   0.00003   0.00003   1.82112
   R28        1.85910  -0.00001   0.00000  -0.00001  -0.00001   1.85909
   R29        1.82146   0.00000   0.00000   0.00001   0.00001   1.82147
   R30        1.82427   0.00001   0.00000   0.00001   0.00001   1.82428
   R31        1.82168  -0.00001   0.00000  -0.00001  -0.00001   1.82166
   R32        1.85223  -0.00000   0.00000  -0.00001  -0.00001   1.85223
    A1        1.85173  -0.00006   0.00000  -0.00099  -0.00099   1.85073
    A2        1.80156   0.00006   0.00000   0.00033   0.00033   1.80189
    A3        1.96889  -0.00020   0.00000  -0.00166  -0.00166   1.96723
    A4        1.83429  -0.00001   0.00000   0.00066   0.00066   1.83496
    A5        2.01802   0.00006   0.00000   0.00027   0.00026   2.01829
    A6        1.97057   0.00015   0.00000   0.00143   0.00143   1.97200
    A7        2.46524  -0.00004   0.00000  -0.00018  -0.00018   2.46506
    A8        2.58826   0.00003   0.00000   0.00012   0.00012   2.58838
    A9        2.35482  -0.00006   0.00000  -0.00022  -0.00022   2.35460
   A10        2.86714   0.00037   0.00000   0.00000   0.00000   2.86714
   A11        1.91978   0.00001   0.00000   0.00007   0.00007   1.91984
   A12        1.91546  -0.00001   0.00000  -0.00009  -0.00009   1.91537
   A13        1.95201  -0.00001   0.00000  -0.00008  -0.00008   1.95193
   A14        2.00708   0.00002   0.00000   0.00011   0.00011   2.00719
   A15        1.88610   0.00002   0.00000   0.00011   0.00011   1.88622
   A16        1.78001  -0.00002   0.00000  -0.00013  -0.00013   1.77988
   A17        1.80238   0.00001   0.00000   0.00009   0.00009   1.80248
   A18        1.99615   0.00002   0.00000   0.00013   0.00013   1.99628
[...]
 Alpha virt. eigenvalues --    3.14769   3.20377   3.35828   3.41110   3.46771
 Alpha virt. eigenvalues --    3.47844   3.48603   3.48649   3.51032   3.51114
 Alpha virt. eigenvalues --    3.52862   3.54104   3.60305   3.61086   3.62063
 Alpha virt. eigenvalues --    3.66206   4.32863   4.59553   7.89811  31.29232
          Condensed to atoms (all electrons):
               1          2          3          4          5          6
     1  Zr  15.083278  -0.124438  -0.001524  -0.134903  -0.191676  -0.596880
     2  O   -0.124438   9.062775   0.019526  -0.042499  -0.057437   0.088434
     3  O   -0.001524   0.019526   8.828921   0.015851  -0.043995  -0.004160
     4  O   -0.134903  -0.042499   0.015851   8.810202  -0.060185  -0.674532
     5  O   -0.191676  -0.057437  -0.043995  -0.060185   9.426017  -0.007235
     6  Si  -0.596880   0.088434  -0.004160  -0.674532  -0.007235  13.985987
     7  Si  -0.614424  -0.028238  -0.876416  -0.007133  -0.033918   0.084293
     8  Si  -0.589758  -0.998544  -0.020243   0.071616  -0.014257  -0.017188
     9  Si  -0.320722  -0.040506  -0.026534  -0.032974  -1.228287   0.038636
    10  O   -0.014987   0.001031  -0.002016   0.000945   0.129289  -0.002352
    11  O   -0.063963   0.003380   0.002966   0.001201   0.310863  -0.000811
    12  O    0.042237  -0.000025   0.004677   0.002072   0.152977  -0.002979
    13  O   -0.035577   0.185779   0.001645  -0.015704  -0.000682   0.035465
    14  O   -0.017911   0.263473  -0.017635  -0.008841   0.001904   0.029117
    15  O   -0.083859   0.292958  -0.000699   0.001240   0.000581  -0.000012
    16  O   -0.124641   0.004671  -0.000495   0.345086   0.003209  -0.423130
    17  O   -0.081425  -0.039750   0.008020   0.218452   0.001335  -0.452954
    18  O   -0.026794  -0.014479   0.003737   0.198294  -0.000607  -0.450240
    19  O    0.001352   0.008964   0.265005   0.010277   0.002138  -0.007623
    20  O   -0.145933  -0.000577   0.163734  -0.000861   0.001480   0.009048
    21  O    0.036021   0.010269   0.146314   0.003413   0.000210  -0.011886
    22  H   -0.008927  -0.000018  -0.000014  -0.000009   0.005797   0.000086
    23  H   -0.007642  -0.000013  -0.000006  -0.000055  -0.025256   0.000086
    24  H   -0.005212  -0.000188  -0.000011   0.000003  -0.005636   0.000071
    25  H    0.016947  -0.020015  -0.000111  -0.000306   0.000019   0.002649
    26  H    0.007275   0.000644   0.000014  -0.000011  -0.000004  -0.000152
    27  H    0.004206  -0.019167   0.000841  -0.001706   0.000010   0.008792
    28  H    0.005076  -0.000011  -0.018399  -0.000014  -0.000015  -0.000283
    29  H    0.004192  -0.007060  -0.020278  -0.000139  -0.000074   0.000136
    30  H    0.000728  -0.000012   0.000075  -0.000454  -0.000008  -0.000658
    31  H   -0.000229   0.000174  -0.000020  -0.018467  -0.000009   0.063917
    32  H    0.002106  -0.000024   0.000040   0.010397   0.000001   0.022874
    33  H   -0.016078   0.001017  -0.010107  -0.009617  -0.000102   0.053360
               7          8          9         10         11         12
     1  Zr  -0.614424  -0.589758  -0.320722  -0.014987  -0.063963   0.042237
     2  O   -0.028238  -0.998544  -0.040506   0.001031   0.003380  -0.000025
     3  O   -0.876416  -0.020243  -0.026534  -0.002016   0.002966   0.004677
     4  O   -0.007133   0.071616  -0.032974   0.000945   0.001201   0.002072
     5  O   -0.033918  -0.014257  -1.228287   0.129289   0.310863   0.152977
     6  Si   0.084293  -0.017188   0.038636  -0.002352  -0.000811  -0.002979
     7  Si  13.796036   0.182167   0.019975  -0.000234  -0.000877   0.003992
     8  Si   0.182167  13.804420   0.026199  -0.000983   0.001185  -0.000844
     9  Si   0.019975   0.026199  14.249663  -0.067882  -0.177313  -0.209982
    10  O   -0.000234  -0.000983  -0.067882   8.525445   0.015154   0.030940
    11  O   -0.000877   0.001185  -0.177313   0.015154   8.515424  -0.051262
    12  O    0.003992  -0.000844  -0.209982   0.030940  -0.051262   8.600751
    13  O    0.007301  -0.095058   0.000214   0.000000   0.000018   0.000009
    14  O    0.009460  -0.368075  -0.001488  -0.000002   0.000002   0.000018
    15  O   -0.002535  -0.304708  -0.000627   0.000000  -0.000024  -0.000016
    16  O    0.003778  -0.010322  -0.001040   0.000005  -0.000003  -0.000001
    17  O   -0.000720   0.096786   0.002568  -0.000001   0.000002  -0.000006
    18  O   -0.000741   0.074759   0.004187  -0.000002  -0.000001  -0.000001
    19  O   -0.409020  -0.016044   0.001047   0.000007  -0.000002  -0.000022
    20  O   -0.108637   0.009649   0.003157   0.000003  -0.000003  -0.000028
    21  O    0.024199  -0.040065  -0.001803   0.000001   0.000001   0.000024
    22  H   -0.000185   0.000090   0.047205  -0.006515  -0.005106   0.219678
    23  H    0.000059   0.000062   0.081095   0.228531  -0.006138   0.005846
    24  H    0.000054  -0.000092   0.037414   0.007417   0.242626  -0.007490
    25  H   -0.000458   0.057510  -0.000211   0.000000  -0.000000  -0.000000
    26  H   -0.000381   0.046099  -0.000044  -0.000000   0.000000  -0.000000
    27  H    0.001335   0.068400  -0.000008   0.000000  -0.000000  -0.000000
    28  H    0.056633  -0.000067  -0.000135  -0.000000  -0.000000  -0.000004
    29  H    0.048146   0.021888  -0.000057   0.000000   0.000000  -0.000001
    30  H    0.040283   0.000109   0.000022  -0.000000   0.000000   0.000000
    31  H    0.000155  -0.001977  -0.000052   0.000000  -0.000000   0.000000
    32  H   -0.000664   0.000054   0.000009  -0.000000   0.000000  -0.000000
    33  H    0.020635   0.000108   0.000078  -0.000000   0.000000   0.000000
              13         14         15         16         17         18
     1  Zr  -0.035577  -0.017911  -0.083859  -0.124641  -0.081425  -0.026794
     2  O    0.185779   0.263473   0.292958   0.004671  -0.039750  -0.014479
     3  O    0.001645  -0.017635  -0.000699  -0.000495   0.008020   0.003737
     4  O   -0.015704  -0.008841   0.001240   0.345086   0.218452   0.198294
     5  O   -0.000682   0.001904   0.000581   0.003209   0.001335  -0.000607
     6  Si   0.035465   0.029117  -0.000012  -0.423130  -0.452954  -0.450240
     7  Si   0.007301   0.009460  -0.002535   0.003778  -0.000720  -0.000741
     8  Si  -0.095058  -0.368075  -0.304708  -0.010322   0.096786   0.074759
     9  Si   0.000214  -0.001488  -0.000627  -0.001040   0.002568   0.004187
    10  O    0.000000  -0.000002   0.000000   0.000005  -0.000001  -0.000002
    11  O    0.000018   0.000002  -0.000024  -0.000003   0.000002  -0.000001
    12  O    0.000009   0.000018  -0.000016  -0.000001  -0.000006  -0.000001
    13  O    8.628254   0.087227  -0.090742   0.003733  -0.030948  -0.045745
    14  O    0.087227   8.674779   0.055647   0.003664  -0.035897  -0.026899
    15  O   -0.090742   0.055647   8.777159  -0.000175   0.003612   0.001682
    16  O    0.003733   0.003664  -0.000175   8.901668  -0.091837  -0.115369
    17  O   -0.030948  -0.035897   0.003612  -0.091837   8.935407   0.227883
    18  O   -0.045745  -0.026899   0.001682  -0.115369   0.227883   9.011921
    19  O    0.000180  -0.000427   0.000139  -0.001542  -0.030002   0.000166
    20  O    0.000008  -0.000245   0.000039   0.000065  -0.000974   0.000015
    21  O   -0.000250   0.015992  -0.000616  -0.000213  -0.005599   0.000477
    22  H   -0.000000  -0.000000  -0.000000   0.000000   0.000000  -0.000000
    23  H    0.000000   0.000000  -0.000000  -0.000000   0.000000  -0.000000
    24  H   -0.000000   0.000000   0.000002   0.000000  -0.000000  -0.000000
    25  H    0.218339  -0.011976   0.008911  -0.000047   0.000627   0.014871
    26  H   -0.005138  -0.010100   0.217021   0.000000  -0.000003   0.000006
    27  H   -0.009726   0.219351   0.004632   0.000184   0.017954  -0.000243
    28  H    0.000000  -0.000006  -0.000001  -0.000000   0.000004  -0.000000
    29  H    0.000795   0.017569  -0.002575  -0.000004  -0.000393   0.000006
    30  H    0.000001   0.000001   0.000000   0.000115  -0.000398  -0.000007
    31  H    0.002356   0.000166  -0.000018   0.003693  -0.000721   0.218215
    32  H   -0.000008  -0.000006   0.000000   0.233372  -0.003643   0.003891
    33  H    0.000231   0.002091  -0.000035  -0.000115   0.230979   0.002088
              19         20         21         22         23         24
     1  Zr   0.001352  -0.145933   0.036021  -0.008927  -0.007642  -0.005212
     2  O    0.008964  -0.000577   0.010269  -0.000018  -0.000013  -0.000188
     3  O    0.265005   0.163734   0.146314  -0.000014  -0.000006  -0.000011
     4  O    0.010277  -0.000861   0.003413  -0.000009  -0.000055   0.000003
     5  O    0.002138   0.001480   0.000210   0.005797  -0.025256  -0.005636
     6  Si  -0.007623   0.009048  -0.011886   0.000086   0.000086   0.000071
     7  Si  -0.409020  -0.108637   0.024199  -0.000185   0.000059   0.000054
     8  Si  -0.016044   0.009649  -0.040065   0.000090   0.000062  -0.000092
     9  Si   0.001047   0.003157  -0.001803   0.047205   0.081095   0.037414
    10  O    0.000007   0.000003   0.000001  -0.006515   0.228531   0.007417
    11  O   -0.000002  -0.000003   0.000001  -0.005106  -0.006138   0.242626
    12  O   -0.000022  -0.000028   0.000024   0.219678   0.005846  -0.007490
    13  O    0.000180   0.000008  -0.000250  -0.000000   0.000000  -0.000000
    14  O   -0.000427  -0.000245   0.015992  -0.000000   0.000000   0.000000
    15  O    0.000139   0.000039  -0.000616  -0.000000  -0.000000   0.000002
    16  O   -0.001542   0.000065  -0.000213   0.000000  -0.000000   0.000000
    17  O   -0.030002  -0.000974  -0.005599   0.000000   0.000000  -0.000000
    18  O    0.000166   0.000015   0.000477  -0.000000  -0.000000  -0.000000
    19  O    8.872642   0.032015   0.023485  -0.000000   0.000000  -0.000000
    20  O    0.032015   8.657132  -0.050363   0.000000   0.000000  -0.000000
    21  O    0.023485  -0.050363   8.485744  -0.000000   0.000000   0.000000
    22  H   -0.000000   0.000000  -0.000000   0.361693   0.000057   0.000125
    23  H    0.000000   0.000000   0.000000   0.000057   0.350948   0.000013
    24  H   -0.000000  -0.000000   0.000000   0.000125   0.000013   0.365080
    25  H   -0.000024   0.000000  -0.000019   0.000000   0.000000   0.000000
    26  H    0.000001  -0.000000   0.000039  -0.000000  -0.000000  -0.000000
    27  H    0.000028   0.000192  -0.004014  -0.000000  -0.000000   0.000000
    28  H    0.004606   0.229545  -0.002056  -0.000000   0.000000  -0.000000
    29  H   -0.008576   0.007669   0.206471   0.000000   0.000000  -0.000000
    30  H    0.224209  -0.001484  -0.007155   0.000000   0.000000  -0.000000
    31  H    0.000004  -0.000000  -0.000000  -0.000000  -0.000000   0.000000
    32  H    0.000097  -0.000000   0.000001  -0.000000  -0.000000  -0.000000
    33  H    0.014862  -0.000081   0.001480  -0.000000  -0.000000  -0.000000
              25         26         27         28         29         30
     1  Zr   0.016947   0.007275   0.004206   0.005076   0.004192   0.000728
     2  O   -0.020015   0.000644  -0.019167  -0.000011  -0.007060  -0.000012
     3  O   -0.000111   0.000014   0.000841  -0.018399  -0.020278   0.000075
     4  O   -0.000306  -0.000011  -0.001706  -0.000014  -0.000139  -0.000454
     5  O    0.000019  -0.000004   0.000010  -0.000015  -0.000074  -0.000008
     6  Si   0.002649  -0.000152   0.008792  -0.000283   0.000136  -0.000658
     7  Si  -0.000458  -0.000381   0.001335   0.056633   0.048146   0.040283
     8  Si   0.057510   0.046099   0.068400  -0.000067   0.021888   0.000109
     9  Si  -0.000211  -0.000044  -0.000008  -0.000135  -0.000057   0.000022
    10  O    0.000000  -0.000000   0.000000  -0.000000   0.000000  -0.000000
    11  O   -0.000000   0.000000  -0.000000  -0.000000   0.000000   0.000000
    12  O   -0.000000  -0.000000  -0.000000  -0.000004  -0.000001   0.000000
    13  O    0.218339  -0.005138  -0.009726   0.000000   0.000795   0.000001
    14  O   -0.011976  -0.010100   0.219351  -0.000006   0.017569   0.000001
    15  O    0.008911   0.217021   0.004632  -0.000001  -0.002575   0.000000
    16  O   -0.000047   0.000000   0.000184  -0.000000  -0.000004   0.000115
    17  O    0.000627  -0.000003   0.017954   0.000004  -0.000393  -0.000398
    18  O    0.014871   0.000006  -0.000243  -0.000000   0.000006  -0.000007
    19  O   -0.000024   0.000001   0.000028   0.004606  -0.008576   0.224209
    20  O    0.000000  -0.000000   0.000192   0.229545   0.007669  -0.001484
    21  O   -0.000019   0.000039  -0.004014  -0.002056   0.206471  -0.007155
    22  H    0.000000  -0.000000  -0.000000  -0.000000   0.000000   0.000000
    23  H    0.000000  -0.000000  -0.000000   0.000000   0.000000   0.000000
    24  H    0.000000  -0.000000   0.000000  -0.000000  -0.000000  -0.000000
    25  H    0.298992  -0.000012   0.000113   0.000000   0.000001   0.000000
    26  H   -0.000012   0.366042   0.000037   0.000000   0.000021  -0.000000
    27  H    0.000113   0.000037   0.283328  -0.000000  -0.001492   0.000009
    28  H    0.000000   0.000000  -0.000000   0.349192  -0.000016  -0.000016
    29  H    0.000001   0.000021  -0.001492  -0.000016   0.285950   0.000156
    30  H    0.000000  -0.000000   0.000009  -0.000016   0.000156   0.334275
    31  H   -0.000512   0.000000   0.000013  -0.000000   0.000000  -0.000000
    32  H   -0.000001   0.000000  -0.000000   0.000000  -0.000000  -0.000000
    33  H    0.000006  -0.000000  -0.002414  -0.000002   0.000099  -0.001164
              31         32         33
     1  Zr  -0.000229   0.002106  -0.016078
     2  O    0.000174  -0.000024   0.001017
     3  O   -0.000020   0.000040  -0.010107
     4  O   -0.018467   0.010397  -0.009617
     5  O   -0.000009   0.000001  -0.000102
     6  Si   0.063917   0.022874   0.053360
     7  Si   0.000155  -0.000664   0.020635
     8  Si  -0.001977   0.000054   0.000108
     9  Si  -0.000052   0.000009   0.000078
    10  O    0.000000  -0.000000  -0.000000
    11  O   -0.000000   0.000000   0.000000
    12  O    0.000000  -0.000000   0.000000
    13  O    0.002356  -0.000008   0.000231
    14  O    0.000166  -0.000006   0.002091
    15  O   -0.000018   0.000000  -0.000035
    16  O    0.003693   0.233372  -0.000115
    17  O   -0.000721  -0.003643   0.230979
    18  O    0.218215   0.003891   0.002088
    19  O    0.000004   0.000097   0.014862
    20  O   -0.000000  -0.000000  -0.000081
    21  O   -0.000000   0.000001   0.001480
    22  H   -0.000000  -0.000000  -0.000000
    23  H   -0.000000  -0.000000  -0.000000
    24  H    0.000000  -0.000000  -0.000000
    25  H   -0.000512  -0.000001   0.000006
    26  H    0.000000   0.000000  -0.000000
    27  H    0.000013  -0.000000  -0.002414
    28  H   -0.000000   0.000000  -0.000002
    29  H    0.000000  -0.000000   0.000099
    30  H   -0.000000  -0.000000  -0.001164
    31  H    0.331630   0.000001  -0.000038
    32  H    0.000001   0.350039   0.000157
    33  H   -0.000038   0.000157   0.269265
 Mulliken charges:
               1
     1  Zr   0.004083
     2  O   -0.550095
     3  O   -0.418701
     4  O   -0.680639
     5  O   -0.366447
     6  Si   2.230124
     7  Si   1.786079
     8  Si   2.017124
     9  Si   1.598196
    10  O   -0.843796
    11  O   -0.787321
    12  O   -0.790560
    13  O   -0.841977
    14  O   -0.880952
    15  O   -0.876979
    16  O   -0.734311
    17  O   -0.968356
    18  O   -1.081067
    19  O   -0.987942
    20  O   -0.804565
    21  O   -0.830099
    22  H    0.386040
    23  H    0.372412
    24  H    0.365822
    25  H    0.414707
    26  H    0.378645
    27  H    0.429345
    28  H    0.375969
    29  H    0.447566
    30  H    0.411372
    31  H    0.401719
    32  H    0.381306
    33  H    0.443296
 Sum of Mulliken charges =  -0.00000
 Mulliken charges with hydrogens summed into heavy atoms:
               1
     1  Zr   0.004083
     2  O   -0.550095
     3  O   -0.418701
     4  O   -0.680639
     5  O   -0.366447
     6  Si   2.230124
     7  Si   1.786079
     8  Si   2.017124
     9  Si   1.598196
    10  O   -0.471384
    11  O   -0.421498
    12  O   -0.404520
    13  O   -0.427270
    14  O   -0.451606
    15  O   -0.498334
    16  O   -0.353004
    17  O   -0.525060
    18  O   -0.679348
    19  O   -0.576570
    20  O   -0.428596
    21  O   -0.382533
 Electronic spatial extent (au):  <R**2>=           9868.7721
 Charge=             -0.0000 electrons
 Dipole moment (field-independent basis, Debye):
    X=              1.0891    Y=             -0.7697    Z=             -2.3961  Tot=              2.7422
 Quadrupole moment (field-independent basis, Debye-Ang):
   XX=           -160.1068   YY=           -154.7098   ZZ=           -157.7894
   XY=             -4.9709   XZ=              2.2762   YZ=              5.7409
 Traceless Quadrupole moment (field-independent basis, Debye-Ang):
   XX=             -2.5714   YY=              2.8255   ZZ=             -0.2541
   XY=             -4.9709   XZ=              2.2762   YZ=              5.7409
 Octapole moment (field-independent basis, Debye-Ang**2):
  XXX=             75.2130  YYY=              6.7663  ZZZ=            -18.6258  XYY=             -2.2316
  XXY=             20.2627  XXZ=             19.5953  XZZ=              5.4978  YZZ=            -17.0935
  YYZ=            -15.6354  XYZ=             28.0644
 Hexadecapole moment (field-independent basis, Debye-Ang**3):
 XXXX=          -6026.4992 YYYY=          -2835.1167 ZZZZ=          -2261.0709 XXXY=             54.8164
 XXXZ=            -22.4820 YYYX=              4.3300 YYYZ=            217.7803 ZZZX=           -183.9470
 ZZZY=            -54.6810 XXYY=          -1483.7919 XXZZ=          -1361.4736 YYZZ=           -925.1952
 XXYZ=             -7.5181 YYXZ=            130.4134 ZZXY=            -60.5211
 N-N= 2.832869990042D+03 E-N=-1.137834164316D+04  KE= 2.373155065850D+03
 1\1\GINC-GRA640\FOpt\RB3LYP\Gen\H12O16Si4Zr1\SARASHS\14-Aug-2020\0\\#n
  B3LYP/Gen Pseudo=cards EmpiricalDispersion=GD3 Opt=modredundant\\Titl
 e\\0,1\Zr,0.6552852843,-0.1526962831,0.0159681825\O,-0.1918245239,-1.1
 626313115,1.446857482\O,0.0855750869,1.7013535765,0.2504751562\O,-0.29
 08059415,-0.7816424895,-1.6035565303\O,2.591432307,-0.4386140051,-0.07
 20346964\Si,-1.8568619705,-1.0941746603,-1.9840419183\Si,-1.1404602048
 ,2.7652411885,0.4710043649\Si,-1.6798653485,-1.5158122057,2.0644677646
 \Si,4.2155031555,-0.264339222,0.0269249294\O,4.9312405222,0.1237099994
 ,-1.409284972\O,4.9189213222,-1.6914749514,0.4910929059\O,4.4489396178
 ,0.9824534841,1.0820118381\O,-2.27122046,-2.9147522323,1.4419926053\O,
 -2.699129163,-0.2380163823,1.7021441443\O,-1.526862479,-1.6231190745,3
 .693323853\O,-2.0524870903,-1.0808272252,-3.6211693686\O,-2.8481165499
 ,-0.0673700984,-1.1542254442\O,-2.3468769501,-2.5797238076,-1.41797158
 43\O,-2.0853063444,2.556927953,-0.9062367707\O,-0.6763092647,4.3437409
 641,0.4790573217\O,-1.96600977,2.470743099,1.853548056\H,5.3334581325,
 1.3630911888,1.1170809656\H,5.282395328,-0.6164553065,-1.9171900885\H,
 4.5036077439,-2.1760420251,1.2131315679\H,-2.3733278507,-2.9580829999,
 0.4742189015\H,-2.3014750359,-1.906647227,4.1908971638\H,-3.0501814029
 ,-0.2545677356,0.7909126608\H,-0.559297058,4.7479527938,1.3463505836\H
 ,-2.2575266299,1.5457720619,1.9954600153\H,-2.7040824247,3.2744288342,
 -1.0913127427\H,-2.3050278843,-3.3107253839,-2.044834217\H,-1.33423252
 64,-0.6974741975,-4.1367496159\H,-2.6434916271,0.8935836809,-1.2046825
 136\\Version=ES64L-G16RevB.01\State=1-A\HF=-2416.9468567\RMSD=8.859e-0
 9\RMSF=9.290e-06\Dipole=0.4156385,-0.1563272,-0.983234\Quadrupole=-1.8
 020831,0.7293264,1.0727567,-3.8653717,1.1282132,4.4846914\PG=C01 [X(H1
 2O16Si4Zr1)]\\@


 Everywhere is walking distance if you have the time.
                                    -- Steven Wright
 Job cpu time:       1 days  5 hours 43 minutes 14.2 seconds.
 Elapsed time:       0 days  2 hours 14 minutes 17.3 seconds.
 File lengths (MBytes):  RWF=    167 Int=      0 D2E=      0 Chk=     21 Scr=      1
 Normal termination of Gaussian 16 at Fri Aug 14 05:26:16 2020.
