 Entering Gaussian System, Link 0=g16
 Initial command:
 /opt/software/gaussian/g16.b01/l1.exe "/localscratch/sarashs.37242638.0/Gau-30263.inp" -scrdir="/localscratch/sarashs.37242638.0/"
 Entering Link 1 = /opt/software/gaussian/g16.b01/l1.exe PID=     30264.
  
 Copyright (c) 1988-2017, Gaussian, Inc.  All Rights Reserved.
  
 This is part of the Gaussian(R) 16 program.  It is based on
 the Gaussian(R) 09 system (copyright 2009, Gaussian, Inc.),
 the Gaussian(R) 03 system (copyright 2003, Gaussian, Inc.),
 the Gaussian(R) 98 system (copyright 1998, Gaussian, Inc.),
 the Gaussian(R) 94 system (copyright 1995, Gaussian, Inc.),
 the Gaussian 92(TM) system (copyright 1992, Gaussian, Inc.),
 the Gaussian 90(TM) system (copyright 1990, Gaussian, Inc.),
 the Gaussian 88(TM) system (copyright 1988, Gaussian, Inc.),
 the Gaussian 86(TM) system (copyright 1986, Carnegie Mellon
 University), and the Gaussian 82(TM) system (copyright 1983,
 Carnegie Mellon University). Gaussian is a federally registered
 trademark of Gaussian, Inc.
  
 This software contains proprietary and confidential information,
 including trade secrets, belonging to Gaussian, Inc.
  
 This software is provided under written license and may be
 used, copied, transmitted, or stored only in accord with that
 written license.
  
 The following legend is applicable only to US Government
 contracts under FAR:
  
                    RESTRICTED RIGHTS LEGEND
  
 Use, reproduction and disclosure by the US Government is
 subject to restrictions as set forth in subparagraphs (a)
 and (c) of the Commercial Computer Software - Restricted
 Rights clause in FAR 52.227-19.
  
 Gaussian, Inc.
 340 Quinnipiac St., Bldg. 40, Wallingford CT 06492
  
  
 ---------------------------------------------------------------
 Warning -- This program may not be used in any manner that
 competes with the business of Gaussian, Inc. or will provide
 assistance to any competitor of Gaussian, Inc.  The licensee
 of this program is prohibited from giving any competitor of
 Gaussian, Inc. access to this program.  By using this program,
 the user acknowledges that Gaussian, Inc. is engaged in the
 business of creating and licensing software in the field of
 computational chemistry and represents and warrants to the
 licensee that it is not a competitor of Gaussian, Inc. and that
 it will not use this program in any manner prohibited above.
 ---------------------------------------------------------------
  

 Cite this work as:
 Gaussian 16, Revision B.01,
 M. J. Frisch, G. W. Trucks, H. B. Schlegel, G. E. Scuseria, 
 M. A. Robb, J. R. Cheeseman, G. Scalmani, V. Barone, 
 G. A. Petersson, H. Nakatsuji, X. Li, M. Caricato, A. V. Marenich, 
 J. Bloino, B. G. Janesko, R. Gomperts, B. Mennucci, H. P. Hratchian, 
 J. V. Ortiz, A. F. Izmaylov, J. L. Sonnenberg, D. Williams-Young, 
 F. Ding, F. Lipparini, F. Egidi, J. Goings, B. Peng, A. Petrone, 
 T. Henderson, D. Ranasinghe, V. G. Zakrzewski, J. Gao, N. Rega, 
 G. Zheng, W. Liang, M. Hada, M. Ehara, K. Toyota, R. Fukuda, 
 J. Hasegawa, M. Ishida, T. Nakajima, Y. Honda, O. Kitao, H. Nakai, 
 T. Vreven, K. Throssell, J. A. Montgomery, Jr., J. E. Peralta, 
 F. Ogliaro, M. J. Bearpark, J. J. Heyd, E. N. Brothers, K. N. Kudin, 
 V. N. Staroverov, T. A. Keith, R. Kobayashi, J. Normand, 
 K. Raghavachari, A. P. Rendell, J. C. Burant, S. S. Iyengar, 
 J. Tomasi, M. Cossi, J. M. Millam, M. Klene, C. Adamo, R. Cammi, 
 J. W. Ochterski, R. L. Martin, K. Morokuma, O. Farkas, 
 J. B. Foresman, and D. J. Fox, Gaussian, Inc., Wallingford CT, 2016.
 
 ******************************************
 Gaussian 16:  ES64L-G16RevB.01 20-Dec-2017
                14-Aug-2020 
 ******************************************
 %NProcShared=16
 Will use up to   16 processors via shared memory.
 ------------------------------------------------------------------
 #n B3LYP/Gen Pseudo=cards EmpiricalDispersion=GD3 Opt=modredundant
 ------------------------------------------------------------------
 1/18=120,19=15,26=3,38=1/1,3;
 2/9=110,12=2,17=6,18=5,40=1/2;
 3/5=7,11=2,16=1,17=8,25=1,30=1,71=1,74=-5,124=31/1,2,3;
 4//1;
 5/5=2,38=5/2;
 6/7=2,8=2,9=2,10=2,28=1/1;
 7//1,2,3,16;
 1/18=20,19=15,26=3/3(2);
 2/9=110/2;
 99//99;
 2/9=110/2;
 3/5=7,6=1,11=2,16=1,17=8,25=1,30=1,71=1,74=-5,82=7,124=31/1,2,3;
 4/5=5,16=3,69=1/1;
 5/5=2,38=5/2;
 7//1,2,3,16;
 1/18=20,19=15,26=3/3(-5);
 2/9=110/2;
 6/7=2,8=2,9=2,10=2,19=2,28=1/1;
 99/9=1/99;
 -----
 Title
 -----
 Symbolic Z-matrix:
 Charge =  0 Multiplicity = 1
 Zr                    0.6583   -0.12171  -0.08656 
 O                    -0.22841  -0.85683   1.48134 
 O                     0.10692   1.74951  -0.19315 
 O                    -0.26458  -1.01725  -1.58981 
 O                     2.59206  -0.4363   -0.08284 
 Si                   -1.82698  -1.37833  -1.94096 
 Si                   -1.10983   2.84644  -0.18804 
 Si                   -1.73169  -1.08271   2.12133 
 Si                    4.21631  -0.26105   0.01252 
 O                     4.95566  -0.09972  -1.45475 
 O                     4.89877  -1.60704   0.69775 
 O                     4.44778   1.12944   0.86985 
 O                    -2.32843  -2.5642    1.74281 
 O                    -2.72832   0.12028   1.51932 
 O                    -1.61004  -0.90304   3.74645 
 O                    -1.99265  -1.65162  -3.55854 
 O                    -2.8209   -0.21285  -1.32492 
 O                    -2.34501  -2.73683  -1.13253 
 O                    -2.03135   2.40743  -1.5263 
 O                    -0.62663   4.39758  -0.4481 
 O                    -1.96424   2.80694   1.20768 
 H                     5.33501   1.50516   0.85865 
 H                     5.3042   -0.91111  -1.84112 
 H                     4.46373  -1.97795   1.47352 
 H                    -2.41236  -2.77672   0.79589 
 H                    -2.39601  -1.09144   4.27061 
 H                    -3.06193  -0.05313   0.61791 
 H                    -0.51983   4.94685   0.33686 
 H                    -2.27019   1.92402   1.50361 
 H                    -2.63733   3.08676  -1.84762 
 H                    -2.30488  -3.56637  -1.62174 
 H                    -1.26015  -1.37219  -4.11893 
 H                    -2.60387   0.72239  -1.53957 
 
 The following ModRedundant input section has been read:
 A       1       5       9 F                                                   
 

 GradGradGradGradGradGradGradGradGradGradGradGradGradGradGradGradGradGrad
 Berny optimization.
 Initialization pass.
                           ----------------------------
                           !    Initial Parameters    !
                           ! (Angstroms and Degrees)  !
 --------------------------                            --------------------------
 ! Name  Definition              Value          Derivative Info.                !
 --------------------------------------------------------------------------------
 ! R1    R(1,2)                  1.9455         estimate D2E/DX2                !
 ! R2    R(1,3)                  1.9537         estimate D2E/DX2                !
 ! R3    R(1,4)                  1.9782         estimate D2E/DX2                !
 ! R4    R(1,5)                  1.9592         estimate D2E/DX2                !
 ! R5    R(2,8)                  1.6494         estimate D2E/DX2                !
 ! R6    R(3,7)                  1.6382         estimate D2E/DX2                !
 ! R7    R(4,6)                  1.6416         estimate D2E/DX2                !
 ! R8    R(5,9)                  1.6365         estimate D2E/DX2                !
 ! R9    R(6,16)                 1.6488         estimate D2E/DX2                !
 ! R10   R(6,17)                 1.651          estimate D2E/DX2                !
 ! R11   R(6,18)                 1.6636         estimate D2E/DX2                !
 ! R12   R(7,19)                 1.6831         estimate D2E/DX2                !
 ! R13   R(7,20)                 1.6453         estimate D2E/DX2                !
 ! R14   R(7,21)                 1.637          estimate D2E/DX2                !
 ! R15   R(8,13)                 1.6414         estimate D2E/DX2                !
 ! R16   R(8,14)                 1.6742         estimate D2E/DX2                !
 ! R17   R(8,15)                 1.6395         estimate D2E/DX2                !
 ! R18   R(9,10)                 1.6509         estimate D2E/DX2                !
 ! R19   R(9,11)                 1.6574         estimate D2E/DX2                !
 ! R20   R(9,12)                 1.6499         estimate D2E/DX2                !
 ! R21   R(10,23)                0.9639         estimate D2E/DX2                !
 ! R22   R(11,24)                0.9637         estimate D2E/DX2                !
 ! R23   R(12,22)                0.9636         estimate D2E/DX2                !
 ! R24   R(13,25)                0.9741         estimate D2E/DX2                !
 ! R25   R(14,27)                0.9767         estimate D2E/DX2                !
 ! R26   R(15,26)                0.9633         estimate D2E/DX2                !
 ! R27   R(16,32)                0.9637         estimate D2E/DX2                !
 ! R28   R(17,33)                0.9838         estimate D2E/DX2                !
 ! R29   R(18,31)                0.9639         estimate D2E/DX2                !
 ! R30   R(19,30)                0.9654         estimate D2E/DX2                !
 ! R31   R(20,28)                0.964          estimate D2E/DX2                !
 ! R32   R(21,29)                0.9802         estimate D2E/DX2                !
 ! A1    A(2,1,3)              106.096          estimate D2E/DX2                !
 ! A2    A(2,1,4)              103.222          estimate D2E/DX2                !
 ! A3    A(2,1,5)              112.8088         estimate D2E/DX2                !
 ! A4    A(3,1,4)              105.0977         estimate D2E/DX2                !
 ! A5    A(3,1,5)              115.624          estimate D2E/DX2                !
 ! A6    A(4,1,5)              112.9055         estimate D2E/DX2                !
 ! A7    A(1,2,8)              141.2476         estimate D2E/DX2                !
 ! A8    A(1,3,7)              148.296          estimate D2E/DX2                !
 ! A9    A(1,4,6)              134.9213         estimate D2E/DX2                !
 ! A10   A(1,5,9)              164.2751         Frozen                          !
 ! A11   A(4,6,16)             109.9952         estimate D2E/DX2                !
 ! A12   A(4,6,17)             109.7482         estimate D2E/DX2                !
 ! A13   A(4,6,18)             111.8421         estimate D2E/DX2                !
 ! A14   A(16,6,17)            114.9974         estimate D2E/DX2                !
 ! A15   A(16,6,18)            108.0657         estimate D2E/DX2                !
 ! A16   A(17,6,18)            101.9865         estimate D2E/DX2                !
 ! A17   A(3,7,19)             103.2688         estimate D2E/DX2                !
 ! A18   A(3,7,20)             114.3705         estimate D2E/DX2                !
 ! A19   A(3,7,21)             111.973          estimate D2E/DX2                !
 ! A20   A(19,7,20)            106.3209         estimate D2E/DX2                !
 ! A21   A(19,7,21)            112.6978         estimate D2E/DX2                !
 ! A22   A(20,7,21)            108.1075         estimate D2E/DX2                !
 ! A23   A(2,8,13)             111.437          estimate D2E/DX2                !
 ! A24   A(2,8,14)             107.7361         estimate D2E/DX2                !
 ! A25   A(2,8,15)             107.5761         estimate D2E/DX2                !
 ! A26   A(13,8,14)            110.4388         estimate D2E/DX2                !
 ! A27   A(13,8,15)            110.7606         estimate D2E/DX2                !
 ! A28   A(14,8,15)            108.7748         estimate D2E/DX2                !
 ! A29   A(5,9,10)             113.7768         estimate D2E/DX2                !
 ! A30   A(5,9,11)             110.2316         estimate D2E/DX2                !
 ! A31   A(5,9,12)             105.0573         estimate D2E/DX2                !
 ! A32   A(10,9,11)            105.2125         estimate D2E/DX2                !
 ! A33   A(10,9,12)            108.46           estimate D2E/DX2                !
 ! A34   A(11,9,12)            114.3199         estimate D2E/DX2                !
 ! A35   A(9,10,23)            115.8441         estimate D2E/DX2                !
 ! A36   A(9,11,24)            117.3556         estimate D2E/DX2                !
 ! A37   A(9,12,22)            116.857          estimate D2E/DX2                !
 ! A38   A(8,13,25)            116.8987         estimate D2E/DX2                !
 ! A39   A(8,14,27)            114.0561         estimate D2E/DX2                !
 ! A40   A(8,15,26)            117.217          estimate D2E/DX2                !
 ! A41   A(6,16,32)            116.4906         estimate D2E/DX2                !
 ! A42   A(6,17,33)            117.1854         estimate D2E/DX2                !
 ! A43   A(6,18,31)            116.3077         estimate D2E/DX2                !
 ! A44   A(7,19,30)            115.1368         estimate D2E/DX2                !
 ! A45   A(7,20,28)            116.1677         estimate D2E/DX2                !
 ! A46   A(7,21,29)            116.2369         estimate D2E/DX2                !
 ! D1    D(3,1,2,8)             57.7301         estimate D2E/DX2                !
 ! D2    D(4,1,2,8)            -52.5295         estimate D2E/DX2                !
 ! D3    D(5,1,2,8)           -174.7064         estimate D2E/DX2                !
 ! D4    D(2,1,3,7)            -50.0985         estimate D2E/DX2                !
 ! D5    D(4,1,3,7)             58.8316         estimate D2E/DX2                !
 ! D6    D(5,1,3,7)           -175.9641         estimate D2E/DX2                !
 ! D7    D(2,1,4,6)             42.7684         estimate D2E/DX2                !
 ! D8    D(3,1,4,6)            -68.2313         estimate D2E/DX2                !
 ! D9    D(5,1,4,6)            164.8804         estimate D2E/DX2                !
 ! D10   D(2,1,5,9)           -106.9251         estimate D2E/DX2                !
 ! D11   D(3,1,5,9)             15.4377         estimate D2E/DX2                !
 ! D12   D(4,1,5,9)            136.5198         estimate D2E/DX2                !
 ! D13   D(1,2,8,13)            93.5299         estimate D2E/DX2                !
 ! D14   D(1,2,8,14)           -27.7662         estimate D2E/DX2                !
 ! D15   D(1,2,8,15)          -144.8806         estimate D2E/DX2                !
 ! D16   D(1,3,7,19)           -61.101          estimate D2E/DX2                !
 ! D17   D(1,3,7,20)          -176.1752         estimate D2E/DX2                !
 ! D18   D(1,3,7,21)            60.4094         estimate D2E/DX2                !
 ! D19   D(1,4,6,16)           160.1674         estimate D2E/DX2                !
 ! D20   D(1,4,6,17)            32.6923         estimate D2E/DX2                !
 ! D21   D(1,4,6,18)           -79.7419         estimate D2E/DX2                !
 ! D22   D(1,5,9,10)           -98.4778         estimate D2E/DX2                !
 ! D23   D(1,5,9,11)           143.6199         estimate D2E/DX2                !
 ! D24   D(1,5,9,12)            20.0011         estimate D2E/DX2                !
 ! D25   D(4,6,16,32)          -14.2002         estimate D2E/DX2                !
 ! D26   D(17,6,16,32)         110.2981         estimate D2E/DX2                !
 ! D27   D(18,6,16,32)        -136.5534         estimate D2E/DX2                !
 ! D28   D(4,6,17,33)           51.0097         estimate D2E/DX2                !
 ! D29   D(16,6,17,33)         -73.6182         estimate D2E/DX2                !
 ! D30   D(18,6,17,33)         169.7166         estimate D2E/DX2                !
 ! D31   D(4,6,18,31)          -96.4419         estimate D2E/DX2                !
 ! D32   D(16,6,18,31)          24.7719         estimate D2E/DX2                !
 ! D33   D(17,6,18,31)         146.3494         estimate D2E/DX2                !
 ! D34   D(3,7,19,30)         -162.184          estimate D2E/DX2                !
 ! D35   D(20,7,19,30)         -41.4665         estimate D2E/DX2                !
 ! D36   D(21,7,19,30)          76.7959         estimate D2E/DX2                !
 ! D37   D(3,7,20,28)          -98.4267         estimate D2E/DX2                !
 ! D38   D(19,7,20,28)         148.295          estimate D2E/DX2                !
 ! D39   D(21,7,20,28)          27.0451         estimate D2E/DX2                !
 ! D40   D(3,7,21,29)          -49.9002         estimate D2E/DX2                !
 ! D41   D(19,7,21,29)          66.0147         estimate D2E/DX2                !
 ! D42   D(20,7,21,29)        -176.7756         estimate D2E/DX2                !
 ! D43   D(2,8,13,25)          -58.4676         estimate D2E/DX2                !
 ! D44   D(14,8,13,25)          61.2408         estimate D2E/DX2                !
 ! D45   D(15,8,13,25)        -178.1891         estimate D2E/DX2                !
 ! D46   D(2,8,14,27)           80.2923         estimate D2E/DX2                !
 ! D47   D(13,8,14,27)         -41.6246         estimate D2E/DX2                !
 ! D48   D(15,8,14,27)        -163.375          estimate D2E/DX2                !
 ! D49   D(2,8,15,26)         -174.1992         estimate D2E/DX2                !
 ! D50   D(13,8,15,26)         -52.1888         estimate D2E/DX2                !
 ! D51   D(14,8,15,26)          69.3654         estimate D2E/DX2                !
 ! D52   D(5,9,10,23)          -94.8502         estimate D2E/DX2                !
 ! D53   D(11,9,10,23)          25.9079         estimate D2E/DX2                !
 ! D54   D(12,9,10,23)         148.64           estimate D2E/DX2                !
 ! D55   D(5,9,11,24)          -43.8205         estimate D2E/DX2                !
 ! D56   D(10,9,11,24)        -166.8799         estimate D2E/DX2                !
 ! D57   D(12,9,11,24)          74.2393         estimate D2E/DX2                !
 ! D58   D(5,9,12,22)         -166.4771         estimate D2E/DX2                !
 ! D59   D(10,9,12,22)         -44.4742         estimate D2E/DX2                !
 ! D60   D(11,9,12,22)          72.5545         estimate D2E/DX2                !
 --------------------------------------------------------------------------------
 Trust Radius=3.00D-01 FncErr=1.00D-07 GrdErr=1.00D-06 EigMax=2.50D+02 EigMin=1.00D-04
 Number of steps in this run=    148 maximum allowed number of steps=    198.
 GradGradGradGradGradGradGradGradGradGradGradGradGradGradGradGradGradGrad

                          Input orientation:                          
 ---------------------------------------------------------------------
 Center     Atomic      Atomic             Coordinates (Angstroms)
 Number     Number       Type             X           Y           Z
 ---------------------------------------------------------------------
      1         40           0        0.658300   -0.121710   -0.086560
      2          8           0       -0.228410   -0.856830    1.481340
      3          8           0        0.106920    1.749510   -0.193150
      4          8           0       -0.264580   -1.017250   -1.589810
      5          8           0        2.592060   -0.436300   -0.082840
      6         14           0       -1.826980   -1.378330   -1.940960
      7         14           0       -1.109830    2.846440   -0.188040
      8         14           0       -1.731690   -1.082710    2.121330
      9         14           0        4.216310   -0.261050    0.012520
     10          8           0        4.955660   -0.099720   -1.454750
     11          8           0        4.898770   -1.607040    0.697750
     12          8           0        4.447780    1.129440    0.869850
     13          8           0       -2.328430   -2.564200    1.742810
     14          8           0       -2.728320    0.120280    1.519320
     15          8           0       -1.610040   -0.903040    3.746450
     16          8           0       -1.992650   -1.651620   -3.558540
     17          8           0       -2.820900   -0.212850   -1.324920
     18          8           0       -2.345010   -2.736830   -1.132530
     19          8           0       -2.031350    2.407430   -1.526300
     20          8           0       -0.626630    4.397580   -0.448100
     21          8           0       -1.964240    2.806940    1.207680
     22          1           0        5.335010    1.505160    0.858650
     23          1           0        5.304200   -0.911110   -1.841120
     24          1           0        4.463730   -1.977950    1.473520
     25          1           0       -2.412360   -2.776720    0.795890
     26          1           0       -2.396010   -1.091440    4.270610
     27          1           0       -3.061930   -0.053130    0.617910
     28          1           0       -0.519830    4.946850    0.336860
     29          1           0       -2.270190    1.924020    1.503610
     30          1           0       -2.637330    3.086760   -1.847620
     31          1           0       -2.304880   -3.566370   -1.621740
     32          1           0       -1.260150   -1.372190   -4.118930
     33          1           0       -2.603870    0.722390   -1.539570
 ---------------------------------------------------------------------
                    Distance matrix (angstroms):
                    1          2          3          4          5
     1  Zr   0.000000
     2  O    1.945499   0.000000
     3  O    1.953675   3.115986   0.000000
     4  O    1.978247   3.075550   3.121479   0.000000
     5  O    1.959186   3.252469   3.311473   3.281593   0.000000
     6  Si   3.345820   3.813073   4.071633   1.641578   4.885483
     7  Si   3.456370   4.156674   1.638219   4.196130   4.948883
     8  Si   3.392691   1.649382   4.093748   3.991147   4.896021
     9  Si   3.562116   4.718890   4.579491   4.818472   1.636458
    10  O    4.509959   6.005699   5.340559   5.301982   2.753548
    11  O    4.561023   5.240687   5.917935   5.678113   2.702011
    12  O    4.103688   5.117220   4.511931   5.732760   2.608229
    13  O    4.270001   2.719111   5.318549   4.214129   5.663230
    14  O    3.755876   2.684350   3.691278   4.126824   5.584187
    15  O    4.521925   2.653631   5.050190   5.504451   5.704292
    16  O    4.628478   5.398576   5.225106   2.695283   5.880226
    17  O    3.694141   3.874379   3.701877   2.692953   5.558132
    18  O    4.117375   3.853143   5.198235   2.737563   5.546976
    19  O    3.962779   4.790812   2.604294   3.854081   5.616609
    20  O    4.712297   5.611608   2.759596   5.545716   5.818915
    21  O    4.138812   4.063398   2.714809   5.033808   5.739679
    22  H    5.041006   6.076050   5.338438   6.611574   3.489906
    23  H    5.028521   6.453794   6.066830   5.575458   3.266909
    24  H    4.512291   4.824225   5.971059   5.715230   2.881335
    25  H    4.154124   2.987550   5.273683   3.660636   5.594100
    26  H    5.408707   3.540277   5.853273   6.236427   6.653013
    27  H    3.786963   3.069248   3.734828   3.691710   5.710120
    28  H    5.220879   5.922623   3.301016   6.272774   6.232039
    29  H    3.910205   3.449998   2.925765   4.716226   5.632886
    30  H    4.925118   5.695329   3.472235   4.747558   6.547742
    31  H    4.796133   4.613290   6.009678   3.265250   6.012119
    32  H    4.637258   5.717789   5.198619   2.741093   5.657335
    33  H    3.669536   4.154834   3.196280   2.915673   5.519267
                    6          7          8          9         10
     6  Si   0.000000
     7  Si   4.629872   0.000000
     8  Si   4.074147   4.599796   0.000000
     9  Si   6.448702   6.169642   6.364032   0.000000
    10  O    6.919209   6.861092   7.646912   1.650923   0.000000
    11  O    7.228472   7.531360   6.801801   1.657402   2.628404
    12  O    7.318618   5.912212   6.681741   1.649865   2.678160
    13  O    3.902294   5.872665   1.641398   7.150666   8.328026
    14  O    3.877084   3.600908   1.674178   7.116442   8.242393
    15  O    5.711357   5.457932   1.639541   6.949873   8.414643
    16  O    1.648848   5.689656   5.714253   7.296392   7.423836
    17  O    1.650977   3.685039   3.717482   7.163337   7.778466
    18  O    1.663561   5.795743   3.701335   7.105740   7.769038
    19  O    3.813881   1.683113   5.057280   6.965774   7.423559
    20  O    6.085278   1.645342   6.152780   6.735657   7.238854
    21  O    5.239204   1.636952   4.002276   7.002869   7.963807
    22  H    8.212578   6.665625   7.630837   2.255421   2.841015
    23  H    7.147167   7.615224   8.076769   2.245454   0.963906
    24  H    7.182705   7.556460   6.293198   2.267925   3.513475
    25  H    3.128660   5.855308   2.256052   7.133129   8.155944
    26  H    6.244174   6.086109   2.249623   7.908455   9.370715
    27  H    3.135135   3.587165   2.256069   7.306333   8.281295
    28  H    6.848723   2.243957   6.403790   7.046875   7.658898
    29  H    4.792391   2.249216   3.116406   7.005181   8.065998
    30  H    4.538988   2.268307   5.827283   7.851136   8.243876
    31  H    2.262257   6.678905   4.528541   7.491453   8.047421
    32  H    2.250530   5.768131   6.264742   6.949469   6.881376
    33  H    2.275455   2.927521   4.173880   7.063356   7.604574
                   11         12         13         14         15
    11  O    0.000000
    12  O    2.778729   0.000000
    13  O    7.364830   7.766728   0.000000
    14  O    7.863276   7.275756   2.723287   0.000000
    15  O    7.221828   7.007352   2.700020   2.694038   0.000000
    16  O    8.099979   8.296027   5.389792   5.428214   7.353206
    17  O    8.101127   7.710543   3.896452   2.865178   5.259405
    18  O    7.556368   8.068430   2.880565   3.916926   5.263783
    19  O    8.311975   7.025234   5.957553   3.872031   6.240081
    20  O    8.240053   6.177974   7.494170   5.155884   6.830660
    21  O    8.175827   6.636425   5.410004   2.810530   4.509408
    22  H    3.146742   0.963570   8.721797   8.208025   7.897628
    23  H    2.663560   3.499523   8.592689   8.767993   8.889754
    24  H    0.963666   3.165524   6.822730   7.492012   6.573608
    25  H    7.404756   7.894623   0.974098   3.002631   3.586112
    26  H    8.139102   7.958325   2.926322   3.024614   0.963321
    27  H    8.111335   7.606424   2.847612   0.976681   3.552196
    28  H    8.511459   6.287595   7.852617   5.437961   6.858212
    29  H    8.031923   6.794419   4.494967   1.861077   3.668569
    30  H    9.235988   7.836742   6.702235   4.488270   6.947478
    31  H    7.817390   8.594014   3.510712   4.861784   6.032710
    32  H    7.822267   7.982891   6.076356   6.014387   7.887124
    33  H    8.168320   7.463026   4.653124   3.120069   5.618873
                   16         17         18         19         20
    16  O    0.000000
    17  O    2.783005   0.000000
    18  O    2.680926   2.575648   0.000000
    19  O    4.539536   2.744050   5.168834   0.000000
    20  O    6.937843   5.180704   7.370284   2.663916   0.000000
    21  O    6.526593   4.033244   6.029507   2.763830   2.657244
    22  H    9.119837   8.616171   8.996776   7.795212   6.753876
    23  H    7.532722   8.171369   7.895934   8.057426   8.080683
    24  H    8.192250   8.000792   7.329825   8.391456   8.381633
    25  H    4.516975   3.352338   1.930008   5.693254   7.497128
    26  H    7.859522   5.680001   5.648348   6.780799   7.451595
    27  H    4.597963   1.964229   3.283331   3.422585   5.184195
    28  H    7.802765   5.888883   8.033015   3.493524   0.963984
    29  H    6.203837   3.587489   5.355218   3.077513   3.553725
    30  H    5.078888   3.345794   5.874607   0.965374   2.778456
    31  H    2.741341   3.405947   0.963885   5.980821   8.223044
    32  H    0.963678   3.403895   3.457998   4.647796   6.867793
    33  H    3.175807   0.983794   3.492691   1.779695   4.313677
                   21         22         23         24         25
    21  O    0.000000
    22  H    7.422635   0.000000
    23  H    8.714889   3.623268   0.000000
    24  H    8.017770   3.642698   3.582091   0.000000
    25  H    5.616729   8.852128   8.365382   6.955417   0.000000
    26  H    4.976478   8.840389   9.832548   7.460941   3.861880
    27  H    3.119736   8.543701   8.762140   7.814893   2.805630
    28  H    2.724677   6.811508   8.542752   8.607016   7.965294
    29  H    0.980167   7.643984   8.751946   7.782799   4.755842
    30  H    3.141052   8.566421   8.891058   9.333076   6.435771
    31  H    6.981456   9.499509   8.062049   7.610374   2.545591
    32  H    6.806882   8.749376   6.963599   8.025288   5.239823
    33  H    3.507400   8.330066   8.080645   8.143802   4.211273
                   26         27         28         29         30
    26  H    0.000000
    27  H    3.855354   0.000000
    28  H    7.446837   5.616143   0.000000
    29  H    4.094523   2.306608   3.682739   0.000000
    30  H    7.412714   4.014727   3.565907   3.566160   0.000000
    31  H    6.391664   4.234621   8.916133   6.317705   6.665259
    32  H    8.470737   5.236791   7.767394   6.595312   5.190155
    33  H    6.090269   2.337941   5.070530   3.288799   2.384588
                   31         32         33
    31  H    0.000000
    32  H    3.484515   0.000000
    33  H    4.299955   3.584124   0.000000
 Stoichiometry    H12O16Si4Zr
 Framework group  C1[X(H12O16Si4Zr)]
 Deg. of freedom    93
 Full point group                 C1      NOp   1
 Largest Abelian subgroup         C1      NOp   1
 Largest concise Abelian subgroup C1      NOp   1
                         Standard orientation:                         
 ---------------------------------------------------------------------
 Center     Atomic      Atomic             Coordinates (Angstroms)
 Number     Number       Type             X           Y           Z
 ---------------------------------------------------------------------
      1         40           0        0.657778   -0.125152   -0.071408
      2          8           0       -0.223081   -0.905198    1.477973
      3          8           0        0.103170    1.747408   -0.124092
      4          8           0       -0.268212   -0.979899   -1.596338
      5          8           0        2.592027   -0.436553   -0.082185
      6         14           0       -1.831094   -1.333598   -1.952813
      7         14           0       -1.115265    2.841772   -0.084769
      8         14           0       -1.724082   -1.151316    2.115847
      9         14           0        4.216281   -0.261371    0.013231
     10          8           0        4.950976   -0.057941   -1.451142
     11          8           0        4.902887   -1.624841    0.658601
     12          8           0        4.448158    1.105027    0.908354
     13          8           0       -2.319648   -2.622641    1.697883
     14          8           0       -2.724383    0.066372    1.550600
     15          8           0       -1.597838   -1.016874    3.744982
     16          8           0       -2.001190   -1.561906   -3.576895
     17          8           0       -2.824975   -0.187396   -1.301545
     18          8           0       -2.344583   -2.714979   -1.181093
     19          8           0       -2.040110    2.438774   -1.432034
     20          8           0       -0.635261    4.400356   -0.302854
     21          8           0       -1.965423    2.761932    1.311823
     22          1           0        5.334764    1.482367    0.905025
     23          1           0        5.299617   -0.857659   -1.861039
     24          1           0        4.470753   -2.017971    1.424997
     25          1           0       -2.406087   -2.808787    0.745652
     26          1           0       -2.381938   -1.221118    4.265999
     27          1           0       -3.060425   -0.082359    0.645690
     28          1           0       -0.526962    4.927678    0.496814
     29          1           0       -2.269110    1.870596    1.583894
     30          1           0       -2.648107    3.125813   -1.732473
     31          1           0       -2.304630   -3.530475   -1.693386
     32          1           0       -1.270809   -1.265744   -4.131428
     33          1           0       -2.610045    0.753825   -1.490645
 ---------------------------------------------------------------------
 Rotational constants (GHZ):           0.2124015           0.1338415           0.1240711
 General basis read from cards:  (5D, 7F)
 ======================================================================================================
                                       Pseudopotential Parameters
 ======================================================================================================
  Center     Atomic      Valence      Angular      Power
  Number     Number     Electrons     Momentum     of R      Exponent        Coefficient   SO-Coeffient
 ======================================================================================================
    1         40           12
                                      G and up 
                                                     2        1.0000000        0.00000000    0.00000000
                                      S - G
                                                     2        8.6365280      150.24299400    0.00000000
                                                     2        3.7176390       18.78003600    0.00000000
                                      P - G
                                                     2        7.6267280       33.19279100    0.00000000
                                                     2        7.4532070       66.38903900    0.00000000
                                                     2        3.3583890        4.62072600    0.00000000
                                                     2        3.2297380        9.26027000    0.00000000
                                      D - G
                                                     2        5.9380860       13.99338300    0.00000000
                                                     2        5.8255440       20.99588200    0.00000000
                                                     2        2.2050190        2.28516600    0.00000000
                                                     2        2.2062920        3.44126000    0.00000000
                                      F - G
                                                     2        4.8002150       -5.23932000    0.00000000
                                                     2        4.7989920       -6.98742400    0.00000000
    2          8
                                   No pseudopotential on this center.
    3          8
                                   No pseudopotential on this center.
    4          8
                                   No pseudopotential on this center.
    5          8
                                   No pseudopotential on this center.
    6         14
                                   No pseudopotential on this center.
    7         14
                                   No pseudopotential on this center.
    8         14
                                   No pseudopotential on this center.
    9         14
                                   No pseudopotential on this center.
   10          8
                                   No pseudopotential on this center.
   11          8
                                   No pseudopotential on this center.
   12          8
                                   No pseudopotential on this center.
   13          8
                                   No pseudopotential on this center.
   14          8
                                   No pseudopotential on this center.
   15          8
                                   No pseudopotential on this center.
   16          8
                                   No pseudopotential on this center.
   17          8
                                   No pseudopotential on this center.
   18          8
                                   No pseudopotential on this center.
   19          8
                                   No pseudopotential on this center.
   20          8
                                   No pseudopotential on this center.
   21          8
                                   No pseudopotential on this center.
   22          1
                                   No pseudopotential on this center.
   23          1
                                   No pseudopotential on this center.
   24          1
                                   No pseudopotential on this center.
   25          1
                                   No pseudopotential on this center.
   26          1
                                   No pseudopotential on this center.
   27          1
                                   No pseudopotential on this center.
   28          1
                                   No pseudopotential on this center.
   29          1
                                   No pseudopotential on this center.
   30          1
                                   No pseudopotential on this center.
   31          1
                                   No pseudopotential on this center.
   32          1
                                   No pseudopotential on this center.
   33          1
                                   No pseudopotential on this center.
 ======================================================================================================
 There are   570 symmetry adapted cartesian basis functions of A   symmetry.
 There are   524 symmetry adapted basis functions of A   symmetry.
   524 basis functions,  1074 primitive gaussians,   570 cartesian basis functions
   104 alpha electrons      104 beta electrons
       nuclear repulsion energy      2832.8718495033 Hartrees.
 NAtoms=   33 NActive=   33 NUniq=   33 SFac= 1.00D+00 NAtFMM=   60 NAOKFM=F Big=F
 Integral buffers will be    131072 words long.
 Raffenetti 2 integral format.
 Two-electron integral symmetry is turned on.
 Nuclear repulsion after empirical dispersion term =     2832.8310484127 Hartrees.
 One-electron integrals computed using PRISM.
 PrsmSu:  requested number of processors reduced to:   4 ShMem   1 Linda.
   1 Symmetry operations used in ECPInt.
 ECPInt:  NShTT=   13203 NPrTT=   78401 LenC2=   11522 LenP2D=   44632.
 LDataN:  DoStor=T MaxTD1= 8 Len=  415
 Number of processors reduced to  13 by ecpmxn.
 NBasis=   524 RedAO= T EigKep=  3.17D-05  NBF=   524
 NBsUse=   524 1.00D-06 EigRej= -1.00D+00 NBFU=   524
 Defaulting to unpruned grid for atomic number  40.
 ExpMin= 1.01D-02 ExpMax= 1.61D+04 ExpMxC= 2.43D+03 IAcc=3 IRadAn=         5 AccDes= 0.00D+00
 Harris functional with IExCor=  402 and IRadAn=       5 diagonalized for initial guess.
 HarFok:  IExCor=  402 AccDes= 0.00D+00 IRadAn=         5 IDoV= 1 UseB2=F ITyADJ=14
 ICtDFT=  3500011 ScaDFX=  1.000000  1.000000  1.000000  1.000000
 Defaulting to unpruned grid for atomic number  40.
 FoFCou: FMM=F IPFlag=           0 FMFlag=      100000 FMFlg1=           0
         NFxFlg=           0 DoJE=T BraDBF=F KetDBF=T FulRan=T
         wScrn=  0.000000 ICntrl=       500 IOpCl=  0 I1Cent=   200000004 NGrid=           0
         NMat0=    1 NMatS0=      1 NMatT0=    0 NMatD0=    1 NMtDS0=    0 NMtDT0=    0
 Petite list used in FoFCou.
 Requested convergence on RMS density matrix=1.00D-08 within 128 cycles.
 Requested convergence on MAX density matrix=1.00D-06.
 Requested convergence on             energy=1.00D-06.
 No special actions if energy rises.
 Defaulting to unpruned grid for atomic number  40.
 Defaulting to unpruned grid for atomic number  40.
 Defaulting to unpruned grid for atomic number  40.
 Defaulting to unpruned grid for atomic number  40.
 Defaulting to unpruned grid for atomic number  40.
 Defaulting to unpruned grid for atomic number  40.
 Defaulting to unpruned grid for atomic number  40.
 Defaulting to unpruned grid for atomic number  40.
 Defaulting to unpruned grid for atomic number  40.
 Defaulting to unpruned grid for atomic number  40.
 Defaulting to unpruned grid for atomic number  40.
 Defaulting to unpruned grid for atomic number  40.
 Defaulting to unpruned grid for atomic number  40.
 Defaulting to unpruned grid for atomic number  40.
 Defaulting to unpruned grid for atomic number  40.
 Defaulting to unpruned grid for atomic number  40.
 SCF Done:  E(RB3LYP) =  -2416.94685594     A.U. after   14 cycles
            NFock= 14  Conv=0.25D-08     -V/T= 2.0185

 **********************************************************************

            Population analysis using the SCF Density.

 **********************************************************************

 Orbital symmetries:
       Occupied  (A) (A) (A) (A) (A) (A) (A) (A) (A) (A) (A) (A)
                 (A) (A) (A) (A) (A) (A) (A) (A) (A) (A) (A) (A)
                 (A) (A) (A) (A) (A) (A) (A) (A) (A) (A) (A) (A)
                 (A) (A) (A) (A) (A) (A) (A) (A) (A) (A) (A) (A)
                 (A) (A) (A) (A) (A) (A) (A) (A) (A) (A) (A) (A)
                 (A) (A) (A) (A) (A) (A) (A) (A) (A) (A) (A) (A)
                 (A) (A) (A) (A) (A) (A) (A) (A) (A) (A) (A) (A)
                 (A) (A) (A) (A) (A) (A) (A) (A) (A) (A) (A) (A)
                 (A) (A) (A) (A) (A) (A) (A) (A)
       Virtual   (A) (A) (A) (A) (A) (A) (A) (A) (A) (A) (A) (A)
                 (A) (A) (A) (A) (A) (A) (A) (A) (A) (A) (A) (A)
                 (A) (A) (A) (A) (A) (A) (A) (A) (A) (A) (A) (A)
                 (A) (A) (A) (A) (A) (A) (A) (A) (A) (A) (A) (A)
                 (A) (A) (A) (A) (A) (A) (A) (A) (A) (A) (A) (A)
                 (A) (A) (A) (A) (A) (A) (A) (A) (A) (A) (A) (A)
                 (A) (A) (A) (A) (A) (A) (A) (A) (A) (A) (A) (A)
                 (A) (A) (A) (A) (A) (A) (A) (A) (A) (A) (A) (A)
                 (A) (A) (A) (A) (A) (A) (A) (A) (A) (A) (A) (A)
                 (A) (A) (A) (A) (A) (A) (A) (A) (A) (A) (A) (A)
                 (A) (A) (A) (A) (A) (A) (A) (A) (A) (A) (A) (A)
                 (A) (A) (A) (A) (A) (A) (A) (A) (A) (A) (A) (A)
                 (A) (A) (A) (A) (A) (A) (A) (A) (A) (A) (A) (A)
                 (A) (A) (A) (A) (A) (A) (A) (A) (A) (A) (A) (A)
                 (A) (A) (A) (A) (A) (A) (A) (A) (A) (A) (A) (A)
                 (A) (A) (A) (A) (A) (A) (A) (A) (A) (A) (A) (A)
                 (A) (A) (A) (A) (A) (A) (A) (A) (A) (A) (A) (A)
                 (A) (A) (A) (A) (A) (A) (A) (A) (A) (A) (A) (A)
                 (A) (A) (A) (A) (A) (A) (A) (A) (A) (A) (A) (A)
                 (A) (A) (A) (A) (A) (A) (A) (A) (A) (A) (A) (A)
                 (A) (A) (A) (A) (A) (A) (A) (A) (A) (A) (A) (A)
                 (A) (A) (A) (A) (A) (A) (A) (A) (A) (A) (A) (A)
                 (A) (A) (A) (A) (A) (A) (A) (A) (A) (A) (A) (A)
                 (A) (A) (A) (A) (A) (A) (A) (A) (A) (A) (A) (A)
                 (A) (A) (A) (A) (A) (A) (A) (A) (A) (A) (A) (A)
                 (A) (A) (A) (A) (A) (A) (A) (A) (A) (A) (A) (A)
                 (A) (A) (A) (A) (A) (A) (A) (A) (A) (A) (A) (A)
                 (A) (A) (A) (A) (A) (A) (A) (A) (A) (A) (A) (A)
                 (A) (A) (A) (A) (A) (A) (A) (A) (A) (A) (A) (A)
                 (A) (A) (A) (A) (A) (A) (A) (A) (A) (A) (A) (A)
                 (A) (A) (A) (A) (A) (A) (A) (A) (A) (A) (A) (A)
                 (A) (A) (A) (A) (A) (A) (A) (A) (A) (A) (A) (A)
                 (A) (A) (A) (A) (A) (A) (A) (A) (A) (A) (A) (A)
                 (A) (A) (A) (A) (A) (A) (A) (A) (A) (A) (A) (A)
                 (A) (A) (A) (A) (A) (A) (A) (A) (A) (A) (A) (A)
 The electronic state is 1-A.
 Alpha  occ. eigenvalues --  -66.22807 -66.21755 -66.21491 -66.21034 -19.18592
 Alpha  occ. eigenvalues --  -19.18352 -19.17791 -19.17027 -19.16733 -19.16539
 Alpha  occ. eigenvalues --  -19.16444 -19.16219 -19.16181 -19.16014 -19.15991
 Alpha  occ. eigenvalues --  -19.15502 -19.15333 -19.15249 -19.14894 -19.14705
 Alpha  occ. eigenvalues --   -5.36867  -5.35836  -5.35567  -5.35094  -3.72851
 Alpha  occ. eigenvalues --   -3.72824  -3.72777  -3.71827  -3.71780  -3.71745
 Alpha  occ. eigenvalues --   -3.71536  -3.71527  -3.71488  -3.71058  -3.71050
 Alpha  occ. eigenvalues --   -3.71024  -2.13363  -1.29606  -1.29522  -1.29365
 Alpha  occ. eigenvalues --   -1.05682  -1.04776  -1.04153  -1.03493  -1.02567
 Alpha  occ. eigenvalues --   -1.02171  -1.01472  -1.00920  -1.00765  -1.00661
 Alpha  occ. eigenvalues --   -0.99830  -0.99303  -0.97372  -0.96283  -0.95725
 Alpha  occ. eigenvalues --   -0.95400  -0.60993  -0.59160  -0.58976  -0.58486
 Alpha  occ. eigenvalues --   -0.55543  -0.54532  -0.53867  -0.53040  -0.52991
 Alpha  occ. eigenvalues --   -0.52490  -0.52144  -0.51709  -0.48781  -0.47603
 Alpha  occ. eigenvalues --   -0.47203  -0.46716  -0.43376  -0.42650  -0.41863
 Alpha  occ. eigenvalues --   -0.41396  -0.41110  -0.40528  -0.39833  -0.39328
 Alpha  occ. eigenvalues --   -0.38808  -0.38680  -0.38651  -0.38143  -0.38015
 Alpha  occ. eigenvalues --   -0.37625  -0.37489  -0.37181  -0.36531  -0.36413
 Alpha  occ. eigenvalues --   -0.36091  -0.35635  -0.35464  -0.35088  -0.34903
 Alpha  occ. eigenvalues --   -0.34605  -0.33996  -0.33697  -0.33474  -0.33266
 Alpha  occ. eigenvalues --   -0.32809  -0.32178  -0.32052  -0.31300
 Alpha virt. eigenvalues --   -0.04329  -0.03157  -0.03036  -0.02754  -0.02094
 Alpha virt. eigenvalues --   -0.01171  -0.00557  -0.00137   0.00132   0.00286
 Alpha virt. eigenvalues --    0.00761   0.00934   0.01024   0.01950   0.02345
 Alpha virt. eigenvalues --    0.03230   0.03336   0.03851   0.03935   0.04070
 Alpha virt. eigenvalues --    0.04149   0.04738   0.05574   0.05842   0.06173
 Alpha virt. eigenvalues --    0.06478   0.07097   0.07450   0.07716   0.08662
 Alpha virt. eigenvalues --    0.08795   0.09039   0.09186   0.09681   0.09965
 Alpha virt. eigenvalues --    0.10382   0.10649   0.10853   0.11228   0.11692
 Alpha virt. eigenvalues --    0.11825   0.12552   0.13276   0.13332   0.13677
 Alpha virt. eigenvalues --    0.14040   0.14399   0.14881   0.15096   0.15298
 Alpha virt. eigenvalues --    0.15377   0.15747   0.16180   0.16709   0.16934
 Alpha virt. eigenvalues --    0.17387   0.17509   0.17686   0.18128   0.18381
 Alpha virt. eigenvalues --    0.18518   0.18746   0.19213   0.19681   0.19742
 Alpha virt. eigenvalues --    0.20114   0.20341   0.20649   0.20990   0.21195
 Alpha virt. eigenvalues --    0.21749   0.21927   0.22292   0.22460   0.22782
 Alpha virt. eigenvalues --    0.23361   0.23766   0.24036   0.24179   0.24472
 Alpha virt. eigenvalues --    0.24891   0.25105   0.25573   0.25810   0.26154
 Alpha virt. eigenvalues --    0.26565   0.26694   0.26901   0.27245   0.27422
 Alpha virt. eigenvalues --    0.27947   0.28247   0.28518   0.28845   0.29031
 Alpha virt. eigenvalues --    0.29457   0.29703   0.30040   0.30429   0.30622
 Alpha virt. eigenvalues --    0.30824   0.31346   0.31487   0.31549   0.32170
 Alpha virt. eigenvalues --    0.32346   0.32797   0.33084   0.33573   0.34028
 Alpha virt. eigenvalues --    0.34468   0.34617   0.35331   0.35731   0.36272
 Alpha virt. eigenvalues --    0.36985   0.37563   0.38015   0.38431   0.38819
 Alpha virt. eigenvalues --    0.39305   0.39975   0.39984   0.41140   0.41610
 Alpha virt. eigenvalues --    0.42627   0.43149   0.43898   0.44357   0.44948
 Alpha virt. eigenvalues --    0.45286   0.45685   0.45938   0.46666   0.47478
 Alpha virt. eigenvalues --    0.47868   0.48518   0.48888   0.49395   0.49573
 Alpha virt. eigenvalues --    0.50016   0.50812   0.51068   0.51346   0.53152
 Alpha virt. eigenvalues --    0.54122   0.54448   0.55163   0.56815   0.57297
 Alpha virt. eigenvalues --    0.58254   0.58730   0.59126   0.59400   0.60346
 Alpha virt. eigenvalues --    0.61228   0.61688   0.62124   0.64040   0.65890
 Alpha virt. eigenvalues --    0.66874   0.67913   0.68426   0.68870   0.69476
 Alpha virt. eigenvalues --    0.70113   0.70483   0.72953   0.74418   0.75145
 Alpha virt. eigenvalues --    0.75492   0.77404   0.78569   0.79007   0.80398
 Alpha virt. eigenvalues --    0.81145   0.81502   0.82588   0.84139   0.85434
 Alpha virt. eigenvalues --    0.86738   0.87661   0.89835   0.90601   0.91187
 Alpha virt. eigenvalues --    0.94341   0.95712   0.96293   0.96889   0.97486
 Alpha virt. eigenvalues --    0.98133   0.98818   0.99251   0.99797   1.00336
 Alpha virt. eigenvalues --    1.00713   1.01469   1.02044   1.03216   1.04060
 Alpha virt. eigenvalues --    1.04273   1.05583   1.06351   1.06705   1.07930
 Alpha virt. eigenvalues --    1.09757   1.12335   1.15233   1.16190   1.16450
 Alpha virt. eigenvalues --    1.18710   1.19069   1.19885   1.20604   1.21025
 Alpha virt. eigenvalues --    1.21377   1.21776   1.22338   1.22816   1.22962
 Alpha virt. eigenvalues --    1.23479   1.23976   1.24259   1.25221   1.25717
 Alpha virt. eigenvalues --    1.26025   1.27150   1.27548   1.28119   1.28433
 Alpha virt. eigenvalues --    1.28976   1.29817   1.30122   1.30909   1.31408
 Alpha virt. eigenvalues --    1.32443   1.32651   1.33024   1.33399   1.34471
 Alpha virt. eigenvalues --    1.35238   1.36067   1.36487   1.36875   1.37776
 Alpha virt. eigenvalues --    1.39178   1.39739   1.40208   1.41231   1.41513
 Alpha virt. eigenvalues --    1.42755   1.43684   1.44204   1.45234   1.46373
 Alpha virt. eigenvalues --    1.46988   1.48859   1.51158   1.51452   1.52791
 Alpha virt. eigenvalues --    1.56741   1.57298   1.57770   1.59299   1.59755
 Alpha virt. eigenvalues --    1.60064   1.61183   1.61941   1.62502   1.63048
 Alpha virt. eigenvalues --    1.63233   1.63814   1.65207   1.65397   1.66595
 Alpha virt. eigenvalues --    1.67376   1.68017   1.69257   1.69525   1.70095
 Alpha virt. eigenvalues --    1.71363   1.71477   1.71635   1.72674   1.73234
 Alpha virt. eigenvalues --    1.74072   1.74985   1.75651   1.76071   1.76608
 Alpha virt. eigenvalues --    1.77174   1.77340   1.78498   1.78795   1.79670
 Alpha virt. eigenvalues --    1.80536   1.81434   1.82202   1.82530   1.83052
 Alpha virt. eigenvalues --    1.83350   1.84806   1.85080   1.85911   1.86612
 Alpha virt. eigenvalues --    1.87196   1.88076   1.88694   1.89774   1.90474
 Alpha virt. eigenvalues --    1.91200   1.91432   1.92540   1.92793   1.93934
 Alpha virt. eigenvalues --    1.94754   1.94968   1.95900   1.97259   1.98368
 Alpha virt. eigenvalues --    1.98866   2.00498   2.01168   2.02730   2.03671
 Alpha virt. eigenvalues --    2.05879   2.06537   2.07661   2.09808   2.10411
 Alpha virt. eigenvalues --    2.11246   2.13022   2.14354   2.16154   2.16322
 Alpha virt. eigenvalues --    2.17774   2.18832   2.19103   2.20836   2.26500
 Alpha virt. eigenvalues --    2.32548   2.33466   2.35448   2.39476   2.40437
 Alpha virt. eigenvalues --    2.41162   2.41361   2.41695   2.42750   2.43751
 Alpha virt. eigenvalues --    2.44013   2.45683   2.46690   2.47604   2.49031
 Alpha virt. eigenvalues --    2.50214   2.50311   2.51670   2.52731   2.53329
 Alpha virt. eigenvalues --    2.55453   2.58362   2.59212   2.60064   2.60702
 Alpha virt. eigenvalues --    2.61122   2.61770   2.62080   2.62447   2.62791
 Alpha virt. eigenvalues --    2.63161   2.64034   2.64632   2.64988   2.65964
 Alpha virt. eigenvalues --    2.66288   2.66635   2.67333   2.67561   2.69378
 Alpha virt. eigenvalues --    2.69715   2.70310   2.71220   2.71674   2.72392
 Alpha virt. eigenvalues --    2.72881   2.74348   2.75562   2.76762   2.77477
 Alpha virt. eigenvalues --    2.78943   2.80564   2.81469   2.82459   2.83486
 Alpha virt. eigenvalues --    2.83727   2.84704   2.86674   2.87790   2.88141
 Alpha virt. eigenvalues --    3.14802   3.20466   3.35835   3.41122   3.46749
 Alpha virt. eigenvalues --    3.47844   3.48597   3.48621   3.51084   3.51106
 Alpha virt. eigenvalues --    3.52875   3.54068   3.60309   3.61074   3.62064
 Alpha virt. eigenvalues --    3.66197   4.33167   4.59988   7.90677  31.29240
          Condensed to atoms (all electrons):
               1          2          3          4          5          6
     1  Zr  15.085210  -0.121132  -0.001989  -0.132662  -0.192958  -0.605702
     2  O   -0.121132   9.061388   0.019574  -0.042482  -0.057735   0.087664
     3  O   -0.001989   0.019574   8.828328   0.016090  -0.044328  -0.003710
     4  O   -0.132662  -0.042482   0.016090   8.811317  -0.060114  -0.676700
     5  O   -0.192958  -0.057735  -0.044328  -0.060114   9.429325  -0.007491
     6  Si  -0.605702   0.087664  -0.003710  -0.676700  -0.007491  13.997712
     7  Si  -0.614677  -0.028254  -0.875478  -0.007428  -0.033988   0.084147
     8  Si  -0.597217  -0.998079  -0.020012   0.070650  -0.014476  -0.014002
     9  Si  -0.317157  -0.040585  -0.026283  -0.032993  -1.228565   0.038848
    10  O   -0.014267   0.001024  -0.002008   0.000901   0.129000  -0.002417
    11  O   -0.066554   0.003388   0.003010   0.001274   0.315331  -0.000734
    12  O    0.043882   0.000014   0.004698   0.002062   0.151042  -0.003035
    13  O   -0.034579   0.185692   0.001651  -0.015586  -0.000678   0.035092
    14  O   -0.016150   0.262479  -0.017645  -0.008765   0.001875   0.028660
    15  O   -0.083859   0.292873  -0.000682   0.001237   0.000589   0.000031
    16  O   -0.124624   0.004689  -0.000495   0.345350   0.003224  -0.424821
    17  O   -0.080156  -0.039877   0.008086   0.217867   0.001312  -0.452740
    18  O   -0.026163  -0.014498   0.003735   0.198126  -0.000628  -0.451049
    19  O    0.002160   0.008951   0.265315   0.010196   0.002122  -0.007724
    20  O   -0.145555  -0.000578   0.163683  -0.000855   0.001479   0.009032
    21  O    0.036368   0.010263   0.146294   0.003415   0.000203  -0.011909
    22  H   -0.008989  -0.000017  -0.000009  -0.000009   0.005815   0.000087
    23  H   -0.007795  -0.000012  -0.000005  -0.000055  -0.025194   0.000091
    24  H   -0.005439  -0.000179  -0.000011   0.000004  -0.005209   0.000080
    25  H    0.016897  -0.019976  -0.000111  -0.000317   0.000019   0.002666
    26  H    0.007239   0.000633   0.000014  -0.000011  -0.000004  -0.000147
    27  H    0.003907  -0.019103   0.000836  -0.001724   0.000011   0.008926
    28  H    0.005057  -0.000011  -0.018395  -0.000014  -0.000015  -0.000280
    29  H    0.004012  -0.007057  -0.020272  -0.000140  -0.000073   0.000157
    30  H    0.000680  -0.000012   0.000056  -0.000454  -0.000008  -0.000639
    31  H   -0.000124   0.000177  -0.000020  -0.018439  -0.000010   0.063728
    32  H    0.002128  -0.000024   0.000040   0.010444   0.000001   0.022758
    33  H   -0.015944   0.001021  -0.010112  -0.009593  -0.000100   0.053190
               7          8          9         10         11         12
     1  Zr  -0.614677  -0.597217  -0.317157  -0.014267  -0.066554   0.043882
     2  O   -0.028254  -0.998079  -0.040585   0.001024   0.003388   0.000014
     3  O   -0.875478  -0.020012  -0.026283  -0.002008   0.003010   0.004698
     4  O   -0.007428   0.070650  -0.032993   0.000901   0.001274   0.002062
     5  O   -0.033988  -0.014476  -1.228565   0.129000   0.315331   0.151042
     6  Si   0.084147  -0.014002   0.038848  -0.002417  -0.000734  -0.003035
     7  Si  13.795723   0.182568   0.019593  -0.000245  -0.000896   0.003975
     8  Si   0.182568  13.809033   0.026482  -0.001033   0.001205  -0.000927
     9  Si   0.019593   0.026482  14.246163  -0.067257  -0.182621  -0.208566
    10  O   -0.000245  -0.001033  -0.067257   8.524015   0.014901   0.031632
    11  O   -0.000896   0.001205  -0.182621   0.014901   8.518752  -0.051205
    12  O    0.003975  -0.000927  -0.208566   0.031632  -0.051205   8.600585
    13  O    0.007277  -0.095532   0.000218   0.000000   0.000018   0.000008
    14  O    0.009310  -0.367522  -0.001501  -0.000002   0.000002   0.000016
    15  O   -0.002550  -0.304745  -0.000623   0.000000  -0.000023  -0.000014
    16  O    0.003785  -0.010341  -0.001019   0.000005  -0.000003  -0.000001
    17  O   -0.000853   0.096514   0.002512  -0.000001   0.000002  -0.000006
    18  O   -0.000737   0.074858   0.004140  -0.000002   0.000000  -0.000001
    19  O   -0.409942  -0.016189   0.001035   0.000007  -0.000002  -0.000024
    20  O   -0.108942   0.009667   0.003136   0.000003  -0.000003  -0.000033
    21  O    0.024660  -0.040365  -0.001773   0.000001   0.000001   0.000022
    22  H   -0.000174   0.000090   0.047347  -0.006548  -0.005040   0.219635
    23  H    0.000061   0.000062   0.081058   0.228592  -0.006084   0.005845
    24  H    0.000051  -0.000073   0.037057   0.007329   0.242573  -0.007395
    25  H   -0.000459   0.057377  -0.000210   0.000000  -0.000000  -0.000000
    26  H   -0.000381   0.046164  -0.000043  -0.000000   0.000000  -0.000000
    27  H    0.001378   0.068464  -0.000006   0.000000  -0.000000  -0.000000
    28  H    0.056603  -0.000064  -0.000137  -0.000000  -0.000000  -0.000003
    29  H    0.048169   0.022009  -0.000057   0.000000   0.000000  -0.000001
    30  H    0.040313   0.000116   0.000022  -0.000000   0.000000   0.000000
    31  H    0.000154  -0.001982  -0.000051   0.000000  -0.000000   0.000000
    32  H   -0.000662   0.000052   0.000009  -0.000000   0.000000  -0.000000
    33  H    0.020634   0.000090   0.000076  -0.000000   0.000000   0.000000
              13         14         15         16         17         18
     1  Zr  -0.034579  -0.016150  -0.083859  -0.124624  -0.080156  -0.026163
     2  O    0.185692   0.262479   0.292873   0.004689  -0.039877  -0.014498
     3  O    0.001651  -0.017645  -0.000682  -0.000495   0.008086   0.003735
     4  O   -0.015586  -0.008765   0.001237   0.345350   0.217867   0.198126
     5  O   -0.000678   0.001875   0.000589   0.003224   0.001312  -0.000628
     6  Si   0.035092   0.028660   0.000031  -0.424821  -0.452740  -0.451049
     7  Si   0.007277   0.009310  -0.002550   0.003785  -0.000853  -0.000737
     8  Si  -0.095532  -0.367522  -0.304745  -0.010341   0.096514   0.074858
     9  Si   0.000218  -0.001501  -0.000623  -0.001019   0.002512   0.004140
    10  O    0.000000  -0.000002   0.000000   0.000005  -0.000001  -0.000002
    11  O    0.000018   0.000002  -0.000023  -0.000003   0.000002   0.000000
    12  O    0.000008   0.000016  -0.000014  -0.000001  -0.000006  -0.000001
    13  O    8.628016   0.086936  -0.090502   0.003736  -0.030901  -0.045601
    14  O    0.086936   8.673929   0.055537   0.003668  -0.035889  -0.026878
    15  O   -0.090502   0.055537   8.777252  -0.000174   0.003599   0.001674
    16  O    0.003736   0.003668  -0.000174   8.902684  -0.091690  -0.114923
    17  O   -0.030901  -0.035889   0.003599  -0.091690   8.935501   0.227350
    18  O   -0.045601  -0.026878   0.001674  -0.114923   0.227350   9.012759
    19  O    0.000179  -0.000456   0.000141  -0.001542  -0.030071   0.000160
    20  O    0.000008  -0.000252   0.000038   0.000065  -0.000982   0.000015
    21  O   -0.000257   0.016000  -0.000609  -0.000213  -0.005560   0.000478
    22  H   -0.000000  -0.000000  -0.000000   0.000000   0.000000  -0.000000
    23  H    0.000000   0.000000  -0.000000  -0.000000   0.000000  -0.000000
    24  H   -0.000000   0.000000   0.000002   0.000000  -0.000000  -0.000000
    25  H    0.218390  -0.011940   0.008913  -0.000054   0.000635   0.014936
    26  H   -0.005121  -0.010095   0.216968   0.000000  -0.000003   0.000006
    27  H   -0.009710   0.219361   0.004631   0.000183   0.017929  -0.000255
    28  H    0.000000  -0.000006  -0.000001  -0.000000   0.000004  -0.000000
    29  H    0.000798   0.017569  -0.002572  -0.000004  -0.000394   0.000006
    30  H    0.000001   0.000002   0.000000   0.000115  -0.000399  -0.000007
    31  H    0.002361   0.000167  -0.000018   0.003776  -0.000746   0.218156
    32  H   -0.000008  -0.000006   0.000000   0.233438  -0.003636   0.003880
    33  H    0.000229   0.002092  -0.000035  -0.000108   0.231011   0.002105
              19         20         21         22         23         24
     1  Zr   0.002160  -0.145555   0.036368  -0.008989  -0.007795  -0.005439
     2  O    0.008951  -0.000578   0.010263  -0.000017  -0.000012  -0.000179
     3  O    0.265315   0.163683   0.146294  -0.000009  -0.000005  -0.000011
     4  O    0.010196  -0.000855   0.003415  -0.000009  -0.000055   0.000004
     5  O    0.002122   0.001479   0.000203   0.005815  -0.025194  -0.005209
     6  Si  -0.007724   0.009032  -0.011909   0.000087   0.000091   0.000080
     7  Si  -0.409942  -0.108942   0.024660  -0.000174   0.000061   0.000051
     8  Si  -0.016189   0.009667  -0.040365   0.000090   0.000062  -0.000073
     9  Si   0.001035   0.003136  -0.001773   0.047347   0.081058   0.037057
    10  O    0.000007   0.000003   0.000001  -0.006548   0.228592   0.007329
    11  O   -0.000002  -0.000003   0.000001  -0.005040  -0.006084   0.242573
    12  O   -0.000024  -0.000033   0.000022   0.219635   0.005845  -0.007395
    13  O    0.000179   0.000008  -0.000257  -0.000000   0.000000  -0.000000
    14  O   -0.000456  -0.000252   0.016000  -0.000000   0.000000   0.000000
    15  O    0.000141   0.000038  -0.000609  -0.000000  -0.000000   0.000002
    16  O   -0.001542   0.000065  -0.000213   0.000000  -0.000000   0.000000
    17  O   -0.030071  -0.000982  -0.005560   0.000000   0.000000  -0.000000
    18  O    0.000160   0.000015   0.000478  -0.000000  -0.000000  -0.000000
    19  O    8.873040   0.032206   0.023409  -0.000000   0.000000  -0.000000
    20  O    0.032206   8.657115  -0.050469   0.000000   0.000000  -0.000000
    21  O    0.023409  -0.050469   8.485289  -0.000000   0.000000   0.000000
    22  H   -0.000000   0.000000  -0.000000   0.361889   0.000058   0.000122
    23  H    0.000000   0.000000   0.000000   0.000058   0.351078   0.000015
    24  H   -0.000000  -0.000000   0.000000   0.000122   0.000015   0.365183
    25  H   -0.000024   0.000000  -0.000019   0.000000   0.000000   0.000000
    26  H    0.000001  -0.000000   0.000039  -0.000000  -0.000000  -0.000000
    27  H    0.000034   0.000192  -0.004018  -0.000000  -0.000000   0.000000
    28  H    0.004621   0.229591  -0.002061  -0.000000   0.000000  -0.000000
    29  H   -0.008570   0.007668   0.206468   0.000000   0.000000  -0.000000
    30  H    0.224166  -0.001478  -0.007147   0.000000   0.000000  -0.000000
    31  H    0.000004  -0.000000  -0.000000  -0.000000  -0.000000   0.000000
    32  H    0.000097  -0.000000   0.000001  -0.000000  -0.000000  -0.000000
    33  H    0.014833  -0.000081   0.001473  -0.000000  -0.000000  -0.000000
              25         26         27         28         29         30
     1  Zr   0.016897   0.007239   0.003907   0.005057   0.004012   0.000680
     2  O   -0.019976   0.000633  -0.019103  -0.000011  -0.007057  -0.000012
     3  O   -0.000111   0.000014   0.000836  -0.018395  -0.020272   0.000056
     4  O   -0.000317  -0.000011  -0.001724  -0.000014  -0.000140  -0.000454
     5  O    0.000019  -0.000004   0.000011  -0.000015  -0.000073  -0.000008
     6  Si   0.002666  -0.000147   0.008926  -0.000280   0.000157  -0.000639
     7  Si  -0.000459  -0.000381   0.001378   0.056603   0.048169   0.040313
     8  Si   0.057377   0.046164   0.068464  -0.000064   0.022009   0.000116
     9  Si  -0.000210  -0.000043  -0.000006  -0.000137  -0.000057   0.000022
    10  O    0.000000  -0.000000   0.000000  -0.000000   0.000000  -0.000000
    11  O   -0.000000   0.000000  -0.000000  -0.000000   0.000000   0.000000
    12  O   -0.000000  -0.000000  -0.000000  -0.000003  -0.000001   0.000000
    13  O    0.218390  -0.005121  -0.009710   0.000000   0.000798   0.000001
    14  O   -0.011940  -0.010095   0.219361  -0.000006   0.017569   0.000002
    15  O    0.008913   0.216968   0.004631  -0.000001  -0.002572   0.000000
    16  O   -0.000054   0.000000   0.000183  -0.000000  -0.000004   0.000115
    17  O    0.000635  -0.000003   0.017929   0.000004  -0.000394  -0.000399
    18  O    0.014936   0.000006  -0.000255  -0.000000   0.000006  -0.000007
    19  O   -0.000024   0.000001   0.000034   0.004621  -0.008570   0.224166
    20  O    0.000000  -0.000000   0.000192   0.229591   0.007668  -0.001478
    21  O   -0.000019   0.000039  -0.004018  -0.002061   0.206468  -0.007147
    22  H    0.000000  -0.000000  -0.000000  -0.000000   0.000000   0.000000
    23  H    0.000000  -0.000000  -0.000000   0.000000   0.000000   0.000000
    24  H    0.000000  -0.000000   0.000000  -0.000000  -0.000000  -0.000000
    25  H    0.298908  -0.000012   0.000112   0.000000   0.000001   0.000000
    26  H   -0.000012   0.366036   0.000036   0.000000   0.000021  -0.000000
    27  H    0.000112   0.000036   0.283375  -0.000000  -0.001495   0.000009
    28  H    0.000000   0.000000  -0.000000   0.349167  -0.000017  -0.000016
    29  H    0.000001   0.000021  -0.001495  -0.000017   0.285935   0.000156
    30  H    0.000000  -0.000000   0.000009  -0.000016   0.000156   0.334263
    31  H   -0.000495   0.000000   0.000013  -0.000000   0.000000  -0.000000
    32  H   -0.000001   0.000000  -0.000000   0.000000  -0.000000  -0.000000
    33  H    0.000006  -0.000000  -0.002411  -0.000002   0.000099  -0.001158
              31         32         33
     1  Zr  -0.000124   0.002128  -0.015944
     2  O    0.000177  -0.000024   0.001021
     3  O   -0.000020   0.000040  -0.010112
     4  O   -0.018439   0.010444  -0.009593
     5  O   -0.000010   0.000001  -0.000100
     6  Si   0.063728   0.022758   0.053190
     7  Si   0.000154  -0.000662   0.020634
     8  Si  -0.001982   0.000052   0.000090
     9  Si  -0.000051   0.000009   0.000076
    10  O    0.000000  -0.000000  -0.000000
    11  O   -0.000000   0.000000   0.000000
    12  O    0.000000  -0.000000   0.000000
    13  O    0.002361  -0.000008   0.000229
    14  O    0.000167  -0.000006   0.002092
    15  O   -0.000018   0.000000  -0.000035
    16  O    0.003776   0.233438  -0.000108
    17  O   -0.000746  -0.003636   0.231011
    18  O    0.218156   0.003880   0.002105
    19  O    0.000004   0.000097   0.014833
    20  O   -0.000000  -0.000000  -0.000081
    21  O   -0.000000   0.000001   0.001473
    22  H   -0.000000  -0.000000  -0.000000
    23  H   -0.000000  -0.000000  -0.000000
    24  H    0.000000  -0.000000  -0.000000
    25  H   -0.000495  -0.000001   0.000006
    26  H    0.000000   0.000000  -0.000000
    27  H    0.000013  -0.000000  -0.002411
    28  H   -0.000000   0.000000  -0.000002
    29  H    0.000000  -0.000000   0.000099
    30  H   -0.000000  -0.000000  -0.001158
    31  H    0.331405   0.000001  -0.000038
    32  H    0.000001   0.349994   0.000157
    33  H   -0.000038   0.000157   0.269268
 Mulliken charges:
               1
     1  Zr   0.006151
     2  O   -0.550219
     3  O   -0.419845
     4  O   -0.680593
     5  O   -0.369774
     6  Si   2.230234
     7  Si   1.787266
     8  Si   2.017160
     9  Si   1.601748
    10  O   -0.843631
    11  O   -0.787291
    12  O   -0.792204
    13  O   -0.842136
    14  O   -0.880496
    15  O   -0.877077
    16  O   -0.734705
    17  O   -0.968418
    18  O   -1.081641
    19  O   -0.988133
    20  O   -0.804670
    21  O   -0.829984
    22  H    0.385743
    23  H    0.372285
    24  H    0.365890
    25  H    0.414758
    26  H    0.378659
    27  H    0.429322
    28  H    0.375979
    29  H    0.447584
    30  H    0.411421
    31  H    0.401980
    32  H    0.381338
    33  H    0.443298
 Sum of Mulliken charges =  -0.00000
 Mulliken charges with hydrogens summed into heavy atoms:
               1
     1  Zr   0.006151
     2  O   -0.550219
     3  O   -0.419845
     4  O   -0.680593
     5  O   -0.369774
     6  Si   2.230234
     7  Si   1.787266
     8  Si   2.017160
     9  Si   1.601748
    10  O   -0.471346
    11  O   -0.421401
    12  O   -0.406462
    13  O   -0.427378
    14  O   -0.451175
    15  O   -0.498418
    16  O   -0.353366
    17  O   -0.525120
    18  O   -0.679661
    19  O   -0.576712
    20  O   -0.428691
    21  O   -0.382400
 Electronic spatial extent (au):  <R**2>=           9869.0683
 Charge=              0.0000 electrons
 Dipole moment (field-independent basis, Debye):
    X=              1.0823    Y=             -0.7946    Z=             -2.4468  Tot=              2.7910
 Quadrupole moment (field-independent basis, Debye-Ang):
   XX=           -160.1888   YY=           -154.6450   ZZ=           -157.7883
   XY=             -4.9779   XZ=              2.1504   YZ=              5.6947
 Traceless Quadrupole moment (field-independent basis, Debye-Ang):
   XX=             -2.6481   YY=              2.8957   ZZ=             -0.2476
   XY=             -4.9779   XZ=              2.1504   YZ=              5.6947
 Octapole moment (field-independent basis, Debye-Ang**2):
  XXX=             74.3381  YYY=              6.4202  ZZZ=            -19.7090  XYY=             -2.4766
  XXY=             20.0818  XXZ=             19.2566  XZZ=              5.8231  YZZ=            -17.1192
  YYZ=            -14.9470  XYZ=             27.9241
 Hexadecapole moment (field-independent basis, Debye-Ang**3):
 XXXX=          -6032.0969 YYYY=          -2833.2125 ZZZZ=          -2261.5180 XXXY=             57.1433
 XXXZ=            -20.9750 YYYX=              3.6692 YYYZ=            215.9713 ZZZX=           -188.9588
 ZZZY=            -53.9338 XXYY=          -1486.7434 XXZZ=          -1357.8788 YYZZ=           -925.3824
 XXYZ=             -8.3849 YYXZ=            134.1314 ZZXY=            -59.9324
 N-N= 2.832831048413D+03 E-N=-1.137826429201D+04  KE= 2.373154958777D+03
 PrsmSu:  requested number of processors reduced to:   2 ShMem   1 Linda.
 PrsmSu:  requested number of processors reduced to:  10 ShMem   1 Linda.
   1 Symmetry operations used in ECPInt.
 ECPInt:  NShTT=   13203 NPrTT=   78401 LenC2=   11522 LenP2D=   44632.
 LDataN:  DoStor=T MaxTD1= 9 Len=  602
 Number of processors reduced to  14 by ecpmxn.
 Calling FoFJK, ICntrl=      2127 FMM=F ISym2X=0 I1Cent= 0 IOpClX= 0 NMat=1 NMatS=1 NMatT=0.
 CoulSu:  requested number of processors reduced to:  10 ShMem   1 Linda.
 Defaulting to unpruned grid for atomic number  40.
 Defaulting to unpruned grid for atomic number  40.
 Defaulting to unpruned grid for atomic number  40.
 Defaulting to unpruned grid for atomic number  40.
 Defaulting to unpruned grid for atomic number  40.
 Defaulting to unpruned grid for atomic number  40.
 Defaulting to unpruned grid for atomic number  40.
 Defaulting to unpruned grid for atomic number  40.
 Defaulting to unpruned grid for atomic number  40.
 Defaulting to unpruned grid for atomic number  40.
 Defaulting to unpruned grid for atomic number  40.
 Defaulting to unpruned grid for atomic number  40.
 Defaulting to unpruned grid for atomic number  40.
 Defaulting to unpruned grid for atomic number  40.
 Defaulting to unpruned grid for atomic number  40.
 Defaulting to unpruned grid for atomic number  40.
 ***** Axes restored to original set *****
 -------------------------------------------------------------------
 Center     Atomic                   Forces (Hartrees/Bohr)
 Number     Number              X              Y              Z
 -------------------------------------------------------------------
      1       40          -0.000002391   -0.000003343    0.000121351
      2        8          -0.000018050   -0.000004779   -0.000044538
      3        8           0.000020392    0.000011397   -0.000016115
      4        8           0.000007886   -0.000015938   -0.000016376
      5        8           0.000021478   -0.000009482   -0.000089996
      6       14          -0.000026512    0.000015633    0.000016826
      7       14           0.000000007   -0.000007249    0.000017220
      8       14           0.000016477    0.000008160    0.000030050
      9       14          -0.000028972    0.000042788    0.000082166
     10        8           0.000009834   -0.000004261   -0.000024533
     11        8           0.000006688   -0.000037804   -0.000015510
     12        8          -0.000009058   -0.000012243   -0.000018713
     13        8          -0.000004761   -0.000004641   -0.000004854
     14        8          -0.000007689    0.000001435   -0.000014192
     15        8          -0.000009750   -0.000006257   -0.000016090
     16        8           0.000004630   -0.000003943   -0.000006769
     17        8           0.000014974   -0.000009483   -0.000013519
     18        8          -0.000003074   -0.000008314   -0.000008019
     19        8          -0.000003334    0.000006877   -0.000006061
     20        8           0.000005229   -0.000001492   -0.000005013
     21        8          -0.000005359    0.000001658   -0.000011890
     22        1           0.000003509   -0.000001300    0.000000112
     23        1          -0.000001744   -0.000006440    0.000000749
     24        1           0.000001796    0.000022714    0.000008945
     25        1           0.000000126    0.000001804   -0.000000702
     26        1           0.000001008    0.000004392    0.000003246
     27        1           0.000000662    0.000003332    0.000008743
     28        1           0.000001119    0.000003245    0.000005623
     29        1           0.000006207    0.000001405    0.000004699
     30        1           0.000004217   -0.000002651    0.000002641
     31        1           0.000002329    0.000008184    0.000004381
     32        1          -0.000006104    0.000002569    0.000000842
     33        1          -0.000001771    0.000004030    0.000005296
 -------------------------------------------------------------------
 Cartesian Forces:  Max     0.000121351 RMS     0.000021377

 GradGradGradGradGradGradGradGradGradGradGradGradGradGradGradGradGradGrad
 Berny optimization.
 FormGI is forming the generalized inverse of G from B-inverse, IUseBI=4.
 Internal  Forces:  Max     0.000062510 RMS     0.000013139
 Search for a local minimum.
 Step number   1 out of a maximum of  148
 All quantities printed in internal units (Hartrees-Bohrs-Radians)
 Mixed Optimization -- En-DIIS/RFO-DIIS
 Second derivative matrix not updated -- first step.
 ITU=  0
     Eigenvalues ---    0.00230   0.00230   0.00230   0.00230   0.03240
     Eigenvalues ---    0.03358   0.03498   0.03580   0.03665   0.03666
     Eigenvalues ---    0.03680   0.03686   0.03693   0.03739   0.03789
     Eigenvalues ---    0.03792   0.03816   0.03834   0.03850   0.03857
     Eigenvalues ---    0.08405   0.09407   0.11077   0.11224   0.11819
     Eigenvalues ---    0.11833   0.11884   0.12136   0.12177   0.12239
     Eigenvalues ---    0.12563   0.12783   0.12895   0.13099   0.13313
     Eigenvalues ---    0.16000   0.16000   0.16000   0.16000   0.16000
     Eigenvalues ---    0.16000   0.16000   0.16000   0.16000   0.16000
     Eigenvalues ---    0.16000   0.16000   0.19174   0.19893   0.20028
     Eigenvalues ---    0.20179   0.20203   0.20203   0.20208   0.20515
     Eigenvalues ---    0.20653   0.20795   0.20989   0.21175   0.21186
     Eigenvalues ---    0.21263   0.25000   0.25000   0.25000   0.38002
     Eigenvalues ---    0.39187   0.40659   0.41547   0.42502   0.42510
     Eigenvalues ---    0.42670   0.42743   0.42824   0.43363   0.43951
     Eigenvalues ---    0.43979   0.44274   0.44485   0.44689   0.44768
     Eigenvalues ---    0.50655   0.51352   0.52035   0.52548   0.54333
     Eigenvalues ---    0.54625   0.54642   0.54646   0.54690   0.54692
     Eigenvalues ---    0.54712   0.547651000.000001000.000001000.00000
     Eigenvalues --- 1000.000001000.000001000.000001000.000001000.00000
     Eigenvalues --- 1000.000001000.000001000.000001000.000001000.00000
     Eigenvalues --- 1000.000001000.000001000.000001000.000001000.00000
     Eigenvalues --- 1000.000001000.000001000.000001000.000001000.00000
     Eigenvalues --- 1000.000001000.000001000.000001000.000001000.00000
     Eigenvalues --- 1000.000001000.000001000.000001000.000001000.00000
     Eigenvalues --- 1000.000001000.000001000.000001000.000001000.00000
     Eigenvalues --- 1000.000001000.000001000.000001000.000001000.00000
     Eigenvalues --- 1000.000001000.000001000.00000
 RFO step:  Lambda=-6.40225502D-07 EMin= 2.30000000D-03
 Linear search not attempted -- first point.
 Iteration  1 RMS(Cart)=  0.00624617 RMS(Int)=  0.00001513
 Iteration  2 RMS(Cart)=  0.00002383 RMS(Int)=  0.00000001
 Iteration  3 RMS(Cart)=  0.00000000 RMS(Int)=  0.00000001
 Iteration  1 RMS(Cart)=  0.00000000 RMS(Int)=  0.00000000
 Variable       Old X    -DE/DX   Delta X   Delta X   Delta X     New X
                                 (Linear)    (Quad)   (Total)
    R1        3.67646  -0.00002   0.00000  -0.00010  -0.00010   3.67636
    R2        3.69191   0.00000   0.00000   0.00002   0.00002   3.69193
    R3        3.73834   0.00002   0.00000   0.00011   0.00011   3.73845
    R4        3.70232   0.00000   0.00000   0.00002   0.00002   3.70234
    R5        3.11688   0.00000   0.00000   0.00001   0.00001   3.11689
    R6        3.09579  -0.00000   0.00000  -0.00000  -0.00000   3.09578
    R7        3.10213   0.00001   0.00000   0.00002   0.00002   3.10216
    R8        3.09246  -0.00001   0.00000  -0.00003  -0.00003   3.09243
    R9        3.11587   0.00001   0.00000   0.00001   0.00001   3.11589
   R10        3.11989  -0.00002   0.00000  -0.00004  -0.00004   3.11986
   R11        3.14368  -0.00000   0.00000  -0.00000  -0.00000   3.14367
   R12        3.18062   0.00000   0.00000   0.00001   0.00001   3.18063
   R13        3.10924   0.00000   0.00000   0.00000   0.00000   3.10925
   R14        3.09339  -0.00001   0.00000  -0.00001  -0.00001   3.09338
   R15        3.10179   0.00001   0.00000   0.00001   0.00001   3.10181
   R16        3.16374   0.00001   0.00000   0.00002   0.00002   3.16376
   R17        3.09828  -0.00001   0.00000  -0.00003  -0.00003   3.09825
   R18        3.11979   0.00002   0.00000   0.00006   0.00006   3.11985
   R19        3.13204   0.00001   0.00000   0.00003   0.00003   3.13206
   R20        3.11779  -0.00002   0.00000  -0.00004  -0.00004   3.11775
   R21        1.82152   0.00000   0.00000   0.00001   0.00001   1.82152
   R22        1.82107  -0.00000   0.00000  -0.00001  -0.00001   1.82106
   R23        1.82088   0.00000   0.00000   0.00001   0.00001   1.82089
   R24        1.84078   0.00000   0.00000   0.00000   0.00000   1.84078
   R25        1.84566  -0.00001   0.00000  -0.00002  -0.00002   1.84564
   R26        1.82041  -0.00000   0.00000  -0.00000  -0.00000   1.82041
   R27        1.82109  -0.00000   0.00000  -0.00001  -0.00001   1.82108
   R28        1.85910   0.00000   0.00000   0.00000   0.00000   1.85910
   R29        1.82148  -0.00001   0.00000  -0.00002  -0.00002   1.82146
   R30        1.82429  -0.00001   0.00000  -0.00001  -0.00001   1.82428
   R31        1.82167   0.00001   0.00000   0.00001   0.00001   1.82168
   R32        1.85225  -0.00000   0.00000  -0.00000  -0.00000   1.85225
    A1        1.85172   0.00001   0.00000   0.00015   0.00015   1.85188
    A2        1.80156  -0.00003   0.00000  -0.00014  -0.00014   1.80143
    A3        1.96888   0.00006   0.00000   0.00044   0.00044   1.96932
    A4        1.83430   0.00002   0.00000  -0.00005  -0.00005   1.83425
    A5        2.01802  -0.00004   0.00000  -0.00023  -0.00023   2.01779
    A6        1.97057  -0.00002   0.00000  -0.00018  -0.00018   1.97039
    A7        2.46523  -0.00000   0.00000  -0.00001  -0.00001   2.46523
    A8        2.58825  -0.00000   0.00000  -0.00002  -0.00002   2.58824
    A9        2.35482  -0.00001   0.00000  -0.00002  -0.00002   2.35480
   A10        2.86714  -0.00006   0.00000   0.00000   0.00000   2.86714
   A11        1.91978   0.00000   0.00000  -0.00001  -0.00001   1.91977
   A12        1.91547  -0.00000   0.00000   0.00000   0.00000   1.91547
   A13        1.95201  -0.00000   0.00000  -0.00001  -0.00001   1.95200
   A14        2.00708   0.00000   0.00000   0.00001   0.00001   2.00709
   A15        1.88610  -0.00000   0.00000  -0.00002  -0.00002   1.88608
   A16        1.78000   0.00001   0.00000   0.00003   0.00003   1.78003
   A17        1.80238  -0.00000   0.00000   0.00000   0.00000   1.80238
   A18        1.99614  -0.00000   0.00000  -0.00002  -0.00002   1.99613
[...]
 Alpha virt. eigenvalues --    3.66206   4.32437   4.59853   7.90081  31.29217
          Condensed to atoms (all electrons):
               1          2          3          4          5          6
     1  Zr  15.089434  -0.128444  -0.001709  -0.134613  -0.194964  -0.597513
     2  O   -0.128444   9.064567   0.019676  -0.042478  -0.057819   0.089162
     3  O   -0.001709   0.019676   8.828571   0.015734  -0.043902  -0.004184
     4  O   -0.134613  -0.042478   0.015734   8.811639  -0.059706  -0.676121
     5  O   -0.194964  -0.057819  -0.043902  -0.059706   9.431923  -0.007168
     6  Si  -0.597513   0.089162  -0.004184  -0.676121  -0.007168  13.988442
     7  Si  -0.615789  -0.027851  -0.875979  -0.007060  -0.033828   0.084399
     8  Si  -0.586742  -0.998215  -0.020298   0.071264  -0.014247  -0.017638
     9  Si  -0.318592  -0.040651  -0.026384  -0.033457  -1.235518   0.038600
    10  O   -0.013350   0.001017  -0.002049   0.000961   0.129405  -0.002468
    11  O   -0.065219   0.003466   0.002992   0.001239   0.315097  -0.000771
    12  O    0.042227  -0.000007   0.004721   0.002096   0.154098  -0.002971
    13  O   -0.037877   0.186680   0.001663  -0.015643  -0.000677   0.035924
    14  O   -0.018939   0.263323  -0.017544  -0.008817   0.001915   0.029354
    15  O   -0.082972   0.292630  -0.000693   0.001244   0.000578  -0.000202
    16  O   -0.125279   0.004688  -0.000490   0.345083   0.003219  -0.423654
    17  O   -0.079904  -0.039990   0.007883   0.218558   0.001283  -0.453493
    18  O   -0.026945  -0.014377   0.003729   0.198443  -0.000619  -0.450755
    19  O    0.000903   0.009025   0.264837   0.010126   0.002114  -0.007401
    20  O   -0.145651  -0.000574   0.163677  -0.000864   0.001471   0.008997
    21  O    0.036058   0.010403   0.146460   0.003392   0.000216  -0.011807
    22  H   -0.008948  -0.000017  -0.000012  -0.000009   0.005786   0.000086
    23  H   -0.007749  -0.000013  -0.000005  -0.000055  -0.025195   0.000087
    24  H   -0.005414  -0.000184  -0.000011   0.000003  -0.005339   0.000072
    25  H    0.017242  -0.020048  -0.000111  -0.000298   0.000019   0.002534
    26  H    0.007255   0.000604   0.000014  -0.000011  -0.000004  -0.000143
    27  H    0.004523  -0.019196   0.000836  -0.001723   0.000011   0.008740
    28  H    0.005084  -0.000011  -0.018410  -0.000014  -0.000015  -0.000281
    29  H    0.004177  -0.007084  -0.020280  -0.000140  -0.000073   0.000145
    30  H    0.000726  -0.000012   0.000071  -0.000452  -0.000008  -0.000661
    31  H   -0.000119   0.000175  -0.000019  -0.018439  -0.000009   0.063709
    32  H    0.002092  -0.000024   0.000040   0.010416   0.000001   0.022852
    33  H   -0.016055   0.001020  -0.010094  -0.009576  -0.000101   0.053247
               7          8          9         10         11         12
     1  Zr  -0.615789  -0.586742  -0.318592  -0.013350  -0.065219   0.042227
     2  O   -0.027851  -0.998215  -0.040651   0.001017   0.003466  -0.000007
     3  O   -0.875979  -0.020298  -0.026384  -0.002049   0.002992   0.004721
     4  O   -0.007060   0.071264  -0.033457   0.000961   0.001239   0.002096
     5  O   -0.033828  -0.014247  -1.235518   0.129405   0.315097   0.154098
     6  Si   0.084399  -0.017638   0.038600  -0.002468  -0.000771  -0.002971
     7  Si  13.795901   0.182145   0.019834  -0.000267  -0.000864   0.004067
     8  Si   0.182145  13.801736   0.026218  -0.000995   0.001168  -0.000808
     9  Si   0.019834   0.026218  14.263702  -0.069167  -0.183833  -0.212343
    10  O   -0.000267  -0.000995  -0.069167   8.524374   0.015141   0.031980
    11  O   -0.000864   0.001168  -0.183833   0.015141   8.518656  -0.051246
    12  O    0.004067  -0.000808  -0.212343   0.031980  -0.051246   8.601247
    13  O    0.007374  -0.095062   0.000262   0.000000   0.000018   0.000009
    14  O    0.009536  -0.367575  -0.001477  -0.000002   0.000002   0.000017
    15  O   -0.002619  -0.304740  -0.000654   0.000000  -0.000024  -0.000016
    16  O    0.003788  -0.010209  -0.001005   0.000005  -0.000003  -0.000001
    17  O   -0.000774   0.096599   0.002504  -0.000002   0.000002  -0.000006
    18  O   -0.000687   0.074625   0.004172  -0.000002  -0.000000  -0.000001
    19  O   -0.408531  -0.016025   0.001047   0.000007  -0.000002  -0.000022
    20  O   -0.108690   0.009692   0.003166   0.000002  -0.000003  -0.000031
    21  O    0.024375  -0.040402  -0.001810   0.000001   0.000001   0.000024
    22  H   -0.000184   0.000088   0.047320  -0.006594  -0.005061   0.219757
    23  H    0.000062   0.000062   0.081033   0.228575  -0.006127   0.005862
    24  H    0.000053  -0.000081   0.037299   0.007338   0.242501  -0.007432
    25  H   -0.000466   0.057364  -0.000212   0.000000  -0.000000  -0.000000
    26  H   -0.000379   0.046143  -0.000042  -0.000000   0.000000  -0.000000
    27  H    0.001312   0.068351  -0.000009   0.000000  -0.000000  -0.000000
    28  H    0.056605  -0.000070  -0.000135  -0.000000  -0.000000  -0.000004
    29  H    0.048133   0.021951  -0.000056   0.000000   0.000000  -0.000001
    30  H    0.040246   0.000111   0.000023  -0.000000  -0.000000   0.000000
    31  H    0.000154  -0.001971  -0.000051   0.000000  -0.000000   0.000000
    32  H   -0.000661   0.000052   0.000007  -0.000000   0.000000  -0.000000
    33  H    0.020619   0.000111   0.000077  -0.000000   0.000000   0.000000
              13         14         15         16         17         18
     1  Zr  -0.037877  -0.018939  -0.082972  -0.125279  -0.079904  -0.026945
     2  O    0.186680   0.263323   0.292630   0.004688  -0.039990  -0.014377
     3  O    0.001663  -0.017544  -0.000693  -0.000490   0.007883   0.003729
     4  O   -0.015643  -0.008817   0.001244   0.345083   0.218558   0.198443
     5  O   -0.000677   0.001915   0.000578   0.003219   0.001283  -0.000619
     6  Si   0.035924   0.029354  -0.000202  -0.423654  -0.453493  -0.450755
     7  Si   0.007374   0.009536  -0.002619   0.003788  -0.000774  -0.000687
     8  Si  -0.095062  -0.367575  -0.304740  -0.010209   0.096599   0.074625
     9  Si   0.000262  -0.001477  -0.000654  -0.001005   0.002504   0.004172
    10  O    0.000000  -0.000002   0.000000   0.000005  -0.000002  -0.000002
    11  O    0.000018   0.000002  -0.000024  -0.000003   0.000002  -0.000000
    12  O    0.000009   0.000017  -0.000016  -0.000001  -0.000006  -0.000001
    13  O    8.628706   0.087057  -0.090676   0.003729  -0.030894  -0.045528
    14  O    0.087057   8.674757   0.055470   0.003674  -0.035937  -0.026883
    15  O   -0.090676   0.055470   8.777053  -0.000174   0.003596   0.001671
    16  O    0.003729   0.003674  -0.000174   8.902521  -0.091694  -0.115045
    17  O   -0.030894  -0.035937   0.003596  -0.091694   8.935541   0.227418
    18  O   -0.045528  -0.026883   0.001671  -0.115045   0.227418   9.012963
    19  O    0.000184  -0.000421   0.000139  -0.001561  -0.030121   0.000167
    20  O    0.000008  -0.000245   0.000038   0.000065  -0.000989   0.000015
    21  O   -0.000255   0.016080  -0.000603  -0.000214  -0.005551   0.000477
    22  H   -0.000000  -0.000000  -0.000000   0.000000   0.000000  -0.000000
    23  H    0.000000   0.000000  -0.000000  -0.000000   0.000000  -0.000000
    24  H   -0.000000   0.000000   0.000002   0.000000  -0.000000  -0.000000
    25  H    0.218281  -0.011957   0.008915  -0.000052   0.000632   0.014900
    26  H   -0.005132  -0.010088   0.217031   0.000000  -0.000003   0.000006
    27  H   -0.009739   0.219274   0.004630   0.000184   0.017912  -0.000260
    28  H   -0.000000  -0.000005  -0.000001  -0.000000   0.000004  -0.000000
    29  H    0.000797   0.017563  -0.002573  -0.000004  -0.000394   0.000006
    30  H    0.000001   0.000001   0.000000   0.000115  -0.000397  -0.000007
    31  H    0.002360   0.000167  -0.000018   0.003785  -0.000747   0.218158
    32  H   -0.000008  -0.000006   0.000000   0.233404  -0.003640   0.003885
    33  H    0.000229   0.002087  -0.000035  -0.000115   0.231037   0.002106
              19         20         21         22         23         24
     1  Zr   0.000903  -0.145651   0.036058  -0.008948  -0.007749  -0.005414
     2  O    0.009025  -0.000574   0.010403  -0.000017  -0.000013  -0.000184
     3  O    0.264837   0.163677   0.146460  -0.000012  -0.000005  -0.000011
     4  O    0.010126  -0.000864   0.003392  -0.000009  -0.000055   0.000003
     5  O    0.002114   0.001471   0.000216   0.005786  -0.025195  -0.005339
     6  Si  -0.007401   0.008997  -0.011807   0.000086   0.000087   0.000072
     7  Si  -0.408531  -0.108690   0.024375  -0.000184   0.000062   0.000053
     8  Si  -0.016025   0.009692  -0.040402   0.000088   0.000062  -0.000081
     9  Si   0.001047   0.003166  -0.001810   0.047320   0.081033   0.037299
    10  O    0.000007   0.000002   0.000001  -0.006594   0.228575   0.007338
    11  O   -0.000002  -0.000003   0.000001  -0.005061  -0.006127   0.242501
    12  O   -0.000022  -0.000031   0.000024   0.219757   0.005862  -0.007432
    13  O    0.000184   0.000008  -0.000255  -0.000000   0.000000  -0.000000
    14  O   -0.000421  -0.000245   0.016080  -0.000000   0.000000   0.000000
    15  O    0.000139   0.000038  -0.000603  -0.000000  -0.000000   0.000002
    16  O   -0.001561   0.000065  -0.000214   0.000000  -0.000000   0.000000
    17  O   -0.030121  -0.000989  -0.005551   0.000000   0.000000  -0.000000
    18  O    0.000167   0.000015   0.000477  -0.000000  -0.000000  -0.000000
    19  O    8.872783   0.032123   0.023492  -0.000000   0.000000  -0.000000
    20  O    0.032123   8.656907  -0.050444   0.000000   0.000000  -0.000000
    21  O    0.023492  -0.050444   8.485475  -0.000000   0.000000   0.000000
    22  H   -0.000000   0.000000  -0.000000   0.361792   0.000058   0.000122
    23  H    0.000000   0.000000   0.000000   0.000058   0.351082   0.000014
    24  H   -0.000000  -0.000000   0.000000   0.000122   0.000014   0.365167
    25  H   -0.000024   0.000000  -0.000019   0.000000   0.000000   0.000000
    26  H    0.000001  -0.000000   0.000039  -0.000000  -0.000000  -0.000000
    27  H    0.000029   0.000192  -0.004027  -0.000000  -0.000000   0.000000
    28  H    0.004618   0.229596  -0.002066  -0.000000   0.000000  -0.000000
    29  H   -0.008565   0.007666   0.206457   0.000000   0.000000  -0.000000
    30  H    0.224209  -0.001476  -0.007144   0.000000   0.000000  -0.000000
    31  H    0.000004  -0.000000  -0.000000  -0.000000  -0.000000   0.000000
    32  H    0.000097  -0.000000   0.000001  -0.000000  -0.000000  -0.000000
    33  H    0.014850  -0.000080   0.001471  -0.000000  -0.000000  -0.000000
              25         26         27         28         29         30
     1  Zr   0.017242   0.007255   0.004523   0.005084   0.004177   0.000726
     2  O   -0.020048   0.000604  -0.019196  -0.000011  -0.007084  -0.000012
     3  O   -0.000111   0.000014   0.000836  -0.018410  -0.020280   0.000071
     4  O   -0.000298  -0.000011  -0.001723  -0.000014  -0.000140  -0.000452
     5  O    0.000019  -0.000004   0.000011  -0.000015  -0.000073  -0.000008
     6  Si   0.002534  -0.000143   0.008740  -0.000281   0.000145  -0.000661
     7  Si  -0.000466  -0.000379   0.001312   0.056605   0.048133   0.040246
     8  Si   0.057364   0.046143   0.068351  -0.000070   0.021951   0.000111
     9  Si  -0.000212  -0.000042  -0.000009  -0.000135  -0.000056   0.000023
    10  O    0.000000  -0.000000   0.000000  -0.000000   0.000000  -0.000000
    11  O   -0.000000   0.000000  -0.000000  -0.000000   0.000000  -0.000000
    12  O   -0.000000  -0.000000  -0.000000  -0.000004  -0.000001   0.000000
    13  O    0.218281  -0.005132  -0.009739  -0.000000   0.000797   0.000001
    14  O   -0.011957  -0.010088   0.219274  -0.000005   0.017563   0.000001
    15  O    0.008915   0.217031   0.004630  -0.000001  -0.002573   0.000000
    16  O   -0.000052   0.000000   0.000184  -0.000000  -0.000004   0.000115
    17  O    0.000632  -0.000003   0.017912   0.000004  -0.000394  -0.000397
    18  O    0.014900   0.000006  -0.000260  -0.000000   0.000006  -0.000007
    19  O   -0.000024   0.000001   0.000029   0.004618  -0.008565   0.224209
    20  O    0.000000  -0.000000   0.000192   0.229596   0.007666  -0.001476
    21  O   -0.000019   0.000039  -0.004027  -0.002066   0.206457  -0.007144
    22  H    0.000000  -0.000000  -0.000000  -0.000000   0.000000   0.000000
    23  H    0.000000  -0.000000  -0.000000   0.000000   0.000000   0.000000
    24  H    0.000000  -0.000000   0.000000  -0.000000  -0.000000  -0.000000
    25  H    0.298928  -0.000012   0.000113   0.000000   0.000001   0.000000
    26  H   -0.000012   0.365998   0.000036   0.000000   0.000021  -0.000000
    27  H    0.000113   0.000036   0.283383  -0.000000  -0.001493   0.000009
    28  H    0.000000   0.000000  -0.000000   0.349180  -0.000017  -0.000016
    29  H    0.000001   0.000021  -0.001493  -0.000017   0.285929   0.000155
    30  H    0.000000  -0.000000   0.000009  -0.000016   0.000155   0.334256
    31  H   -0.000496   0.000000   0.000013  -0.000000   0.000000  -0.000000
    32  H   -0.000001   0.000000  -0.000000   0.000000  -0.000000  -0.000000
    33  H    0.000006  -0.000000  -0.002409  -0.000002   0.000100  -0.001158
              31         32         33
     1  Zr  -0.000119   0.002092  -0.016055
     2  O    0.000175  -0.000024   0.001020
     3  O   -0.000019   0.000040  -0.010094
     4  O   -0.018439   0.010416  -0.009576
     5  O   -0.000009   0.000001  -0.000101
     6  Si   0.063709   0.022852   0.053247
     7  Si   0.000154  -0.000661   0.020619
     8  Si  -0.001971   0.000052   0.000111
     9  Si  -0.000051   0.000007   0.000077
    10  O    0.000000  -0.000000  -0.000000
    11  O   -0.000000   0.000000   0.000000
    12  O    0.000000  -0.000000   0.000000
    13  O    0.002360  -0.000008   0.000229
    14  O    0.000167  -0.000006   0.002087
    15  O   -0.000018   0.000000  -0.000035
    16  O    0.003785   0.233404  -0.000115
    17  O   -0.000747  -0.003640   0.231037
    18  O    0.218158   0.003885   0.002106
    19  O    0.000004   0.000097   0.014850
    20  O   -0.000000  -0.000000  -0.000080
    21  O   -0.000000   0.000001   0.001471
    22  H   -0.000000  -0.000000  -0.000000
    23  H   -0.000000  -0.000000  -0.000000
    24  H    0.000000  -0.000000  -0.000000
    25  H   -0.000496  -0.000001   0.000006
    26  H    0.000000   0.000000  -0.000000
    27  H    0.000013  -0.000000  -0.002409
    28  H   -0.000000   0.000000  -0.000002
    29  H    0.000000  -0.000000   0.000100
    30  H   -0.000000  -0.000000  -0.001158
    31  H    0.331420   0.000001  -0.000038
    32  H    0.000001   0.349985   0.000157
    33  H   -0.000038   0.000157   0.269244
 Mulliken charges:
               1
     1  Zr   0.003065
     2  O   -0.549438
     3  O   -0.418727
     4  O   -0.680722
     5  O   -0.367946
     6  Si   2.230882
     7  Si   1.786026
     8  Si   2.017395
     9  Si   1.600134
    10  O   -0.843912
    11  O   -0.787131
    12  O   -0.791218
    13  O   -0.841792
    14  O   -0.880381
    15  O   -0.876998
    16  O   -0.734757
    17  O   -0.968434
    18  O   -1.081630
    19  O   -0.988082
    20  O   -0.804569
    21  O   -0.830080
    22  H    0.385815
    23  H    0.372309
    24  H    0.365889
    25  H    0.414760
    26  H    0.378666
    27  H    0.429309
    28  H    0.375961
    29  H    0.447580
    30  H    0.411407
    31  H    0.401965
    32  H    0.381352
    33  H    0.443303
 Sum of Mulliken charges =  -0.00000
 Mulliken charges with hydrogens summed into heavy atoms:
               1
     1  Zr   0.003065
     2  O   -0.549438
     3  O   -0.418727
     4  O   -0.680722
     5  O   -0.367946
     6  Si   2.230882
     7  Si   1.786026
     8  Si   2.017395
     9  Si   1.600134
    10  O   -0.471603
    11  O   -0.421241
    12  O   -0.405403
    13  O   -0.427032
    14  O   -0.451072
    15  O   -0.498332
    16  O   -0.353405
    17  O   -0.525131
    18  O   -0.679666
    19  O   -0.576674
    20  O   -0.428609
    21  O   -0.382500
 Electronic spatial extent (au):  <R**2>=           9869.3706
 Charge=             -0.0000 electrons
 Dipole moment (field-independent basis, Debye):
    X=              1.0911    Y=             -0.7806    Z=             -2.4112  Tot=              2.7593
 Quadrupole moment (field-independent basis, Debye-Ang):
   XX=           -160.1998   YY=           -154.6331   ZZ=           -157.8154
   XY=             -4.9262   XZ=              2.2179   YZ=              5.7017
 Traceless Quadrupole moment (field-independent basis, Debye-Ang):
   XX=             -2.6504   YY=              2.9164   ZZ=             -0.2660
   XY=             -4.9262   XZ=              2.2179   YZ=              5.7017
 Octapole moment (field-independent basis, Debye-Ang**2):
  XXX=             74.3138  YYY=              6.6569  ZZZ=            -18.5756  XYY=             -2.0138
  XXY=             20.1255  XXZ=             19.3153  XZZ=              5.4862  YZZ=            -17.1119
  YYZ=            -15.7618  XYZ=             27.9748
 Hexadecapole moment (field-independent basis, Debye-Ang**3):
 XXXX=          -6032.6003 YYYY=          -2833.6626 ZZZZ=          -2263.5684 XXXY=             58.7711
 XXXZ=            -24.7308 YYYX=              4.4695 YYYZ=            216.7755 ZZZX=           -184.3111
 ZZZY=            -54.6640 XXYY=          -1483.5825 XXZZ=          -1361.1500 YYZZ=           -924.4006
 XXYZ=             -8.1447 YYXZ=            130.8295 ZZXY=            -61.3982
 N-N= 2.832831777964D+03 E-N=-1.137826539173D+04  KE= 2.373154938004D+03
 1\1\GINC-GRA391\FOpt\RB3LYP\Gen\H12O16Si4Zr1\SARASHS\14-Aug-2020\0\\#n
  B3LYP/Gen Pseudo=cards EmpiricalDispersion=GD3 Opt=modredundant\\Titl
 e\\0,1\Zr,0.6580930957,-0.1233721113,-0.0827615242\O,-0.2311464095,-0.
 8616410133,1.4822468306\O,0.1077323597,1.7482928573,-0.1861390754\O,-0
 .2630998553,-1.0153006338,-1.5891852608\O,2.5919091239,-0.4378269492,-
 0.0777980478\Si,-1.8251803886,-1.3747254658,-1.9435593037\Si,-1.108506
 6796,2.8457865847,-0.1803748761\Si,-1.7354831829,-1.0881397209,2.11949
 41761\Si,4.2164020463,-0.2605203278,0.0088177084\O,4.9515295491,-0.135
 5009453,-1.4641691718\O,4.9007205534,-1.5894265065,0.7249025173\O,4.45
 05920078,1.150533596,0.8310437907\O,-2.3324377102,-2.5684766095,1.7368
 642648\O,-2.7306112329,0.1166538495,1.5185482718\O,-1.6162329695,-0.91
 1925454,3.7451633942\O,-1.9883878032,-1.644604115,-3.5619626412\O,-2.8
 193936507,-0.2099858457,-1.3266869782\O,-2.3452155085,-2.7346472702,-1
 .138809326\O,-2.028146922,2.4102700549,-1.5210629789\O,-0.624172199,4.
 3972949586,-0.4360901196\O,-1.9651476318,2.8035175695,1.2138938661\H,5
 .3378793327,1.5255889007,0.8080493473\H,5.298600416,-0.9563395556,-1.8
 314509529\H,4.468346285,-1.9403604698,1.5113875002\H,-2.4149442715,-2.
 7788811929,0.7893426546\H,-2.4031152556,-1.100789523,4.2677823742\H,-3
 .0630701779,-0.0546560177,0.6163280517\H,-0.5183911266,4.9447008558,0.
 3503139932\H,-2.2717690265,1.9200474593,1.5074845485\H,-2.6333123396,3
 .0906038376,-1.8417771084\H,-2.3043714602,-3.5631961181,-1.6296263859\
 H,-1.2549575026,-1.3641800529,-4.1206357641\H,-2.6015814653,0.72561537
 45,-1.5389537747\\Version=ES64L-G16RevB.01\State=1-A\HF=-2416.946857\R
 MSD=2.336e-09\RMSF=4.511e-06\Dipole=0.4304311,-0.3313822,-0.9399216\Qu
 adrupole=-1.9824027,2.387493,-0.4050903,-3.6221321,1.742356,4.1667275\
 PG=C01 [X(H12O16Si4Zr1)]\\@


 Some scientists claim that hydrogen, because it is so
 plentiful, is the basic building block of the universe. 
 I dispute that. I say that stupidity is far more
 abundant than hydrogen, and THAT is the basic building 
 block of the universe.
                   --Frank Zappa
 Job cpu time:       0 days  9 hours 32 minutes 28.9 seconds.
 Elapsed time:       0 days  0 hours 42 minutes 46.9 seconds.
 File lengths (MBytes):  RWF=    167 Int=      0 D2E=      0 Chk=     21 Scr=      1
 Normal termination of Gaussian 16 at Fri Aug 14 03:48:36 2020.
