 Entering Gaussian System, Link 0=g16
 Initial command:
 /opt/software/gaussian/g16.b01/l1.exe "/localscratch/sarashs.37242644.0/Gau-15895.inp" -scrdir="/localscratch/sarashs.37242644.0/"
 Entering Link 1 = /opt/software/gaussian/g16.b01/l1.exe PID=     15896.
  
 Copyright (c) 1988-2017, Gaussian, Inc.  All Rights Reserved.
  
 This is part of the Gaussian(R) 16 program.  It is based on
 the Gaussian(R) 09 system (copyright 2009, Gaussian, Inc.),
 the Gaussian(R) 03 system (copyright 2003, Gaussian, Inc.),
 the Gaussian(R) 98 system (copyright 1998, Gaussian, Inc.),
 the Gaussian(R) 94 system (copyright 1995, Gaussian, Inc.),
 the Gaussian 92(TM) system (copyright 1992, Gaussian, Inc.),
 the Gaussian 90(TM) system (copyright 1990, Gaussian, Inc.),
 the Gaussian 88(TM) system (copyright 1988, Gaussian, Inc.),
 the Gaussian 86(TM) system (copyright 1986, Carnegie Mellon
 University), and the Gaussian 82(TM) system (copyright 1983,
 Carnegie Mellon University). Gaussian is a federally registered
 trademark of Gaussian, Inc.
  
 This software contains proprietary and confidential information,
 including trade secrets, belonging to Gaussian, Inc.
  
 This software is provided under written license and may be
 used, copied, transmitted, or stored only in accord with that
 written license.
  
 The following legend is applicable only to US Government
 contracts under FAR:
  
                    RESTRICTED RIGHTS LEGEND
  
 Use, reproduction and disclosure by the US Government is
 subject to restrictions as set forth in subparagraphs (a)
 and (c) of the Commercial Computer Software - Restricted
 Rights clause in FAR 52.227-19.
  
 Gaussian, Inc.
 340 Quinnipiac St., Bldg. 40, Wallingford CT 06492
  
  
 ---------------------------------------------------------------
 Warning -- This program may not be used in any manner that
 competes with the business of Gaussian, Inc. or will provide
 assistance to any competitor of Gaussian, Inc.  The licensee
 of this program is prohibited from giving any competitor of
 Gaussian, Inc. access to this program.  By using this program,
 the user acknowledges that Gaussian, Inc. is engaged in the
 business of creating and licensing software in the field of
 computational chemistry and represents and warrants to the
 licensee that it is not a competitor of Gaussian, Inc. and that
 it will not use this program in any manner prohibited above.
 ---------------------------------------------------------------
  

 Cite this work as:
 Gaussian 16, Revision B.01,
 M. J. Frisch, G. W. Trucks, H. B. Schlegel, G. E. Scuseria, 
 M. A. Robb, J. R. Cheeseman, G. Scalmani, V. Barone, 
 G. A. Petersson, H. Nakatsuji, X. Li, M. Caricato, A. V. Marenich, 
 J. Bloino, B. G. Janesko, R. Gomperts, B. Mennucci, H. P. Hratchian, 
 J. V. Ortiz, A. F. Izmaylov, J. L. Sonnenberg, D. Williams-Young, 
 F. Ding, F. Lipparini, F. Egidi, J. Goings, B. Peng, A. Petrone, 
 T. Henderson, D. Ranasinghe, V. G. Zakrzewski, J. Gao, N. Rega, 
 G. Zheng, W. Liang, M. Hada, M. Ehara, K. Toyota, R. Fukuda, 
 J. Hasegawa, M. Ishida, T. Nakajima, Y. Honda, O. Kitao, H. Nakai, 
 T. Vreven, K. Throssell, J. A. Montgomery, Jr., J. E. Peralta, 
 F. Ogliaro, M. J. Bearpark, J. J. Heyd, E. N. Brothers, K. N. Kudin, 
 V. N. Staroverov, T. A. Keith, R. Kobayashi, J. Normand, 
 K. Raghavachari, A. P. Rendell, J. C. Burant, S. S. Iyengar, 
 J. Tomasi, M. Cossi, J. M. Millam, M. Klene, C. Adamo, R. Cammi, 
 J. W. Ochterski, R. L. Martin, K. Morokuma, O. Farkas, 
 J. B. Foresman, and D. J. Fox, Gaussian, Inc., Wallingford CT, 2016.
 
 ******************************************
 Gaussian 16:  ES64L-G16RevB.01 20-Dec-2017
                14-Aug-2020 
 ******************************************
 %NProcShared=16
 Will use up to   16 processors via shared memory.
 ------------------------------------------------------------------
 #n B3LYP/Gen Pseudo=cards EmpiricalDispersion=GD3 Opt=modredundant
 ------------------------------------------------------------------
 1/18=120,19=15,26=3,38=1/1,3;
 2/9=110,12=2,17=6,18=5,40=1/2;
 3/5=7,11=2,16=1,17=8,25=1,30=1,71=1,74=-5,124=31/1,2,3;
 4//1;
 5/5=2,38=5/2;
 6/7=2,8=2,9=2,10=2,28=1/1;
 7//1,2,3,16;
 1/18=20,19=15,26=3/3(2);
 2/9=110/2;
 99//99;
 2/9=110/2;
 3/5=7,6=1,11=2,16=1,17=8,25=1,30=1,71=1,74=-5,82=7,124=31/1,2,3;
 4/5=5,16=3,69=1/1;
 5/5=2,38=5/2;
 7//1,2,3,16;
 1/18=20,19=15,26=3/3(-5);
 2/9=110/2;
 6/7=2,8=2,9=2,10=2,19=2,28=1/1;
 99/9=1/99;
 -----
 Title
 -----
 Symbolic Z-matrix:
 Charge =  0 Multiplicity = 1
 Zr                    0.65669  -0.13593  -0.03285 
 O                    -0.20786  -1.03561   1.45984 
 O                     0.09381   1.73253   0.06134 
 O                    -0.27849  -0.87688  -1.6108 
 O                     2.59206  -0.4363   -0.08284 
 Si                   -1.84282  -1.21001  -1.98051 
 Si                   -1.12883   2.81486   0.19349 
 Si                   -1.70241  -1.33667   2.08924 
 Si                    4.21631  -0.26105   0.01252 
 O                     4.95566  -0.09972  -1.45475 
 O                     4.89877  -1.60704   0.69775 
 O                     4.44778   1.12944   0.86985 
 O                    -2.29529  -2.77486   1.56553 
 O                    -2.71251  -0.08441   1.62621 
 O                    -1.56305  -1.32571   3.72282 
 O                    -2.02559  -1.31516  -3.61583 
 O                    -2.83598  -0.12136  -1.23607 
 O                    -2.34401  -2.64846  -1.31186 
 O                    -2.06326   2.51088  -1.173 
 O                    -0.65721   4.3878    0.09058 
 O                    -1.96689   2.62512   1.58678 
 H                     5.33501   1.50516   0.85865 
 H                     5.3042   -0.91111  -1.84112 
 H                     4.46373  -1.97795   1.47352 
 H                    -2.38895  -2.88858   0.60263 
 H                    -2.34188  -1.5727    4.23311 
 H                    -3.05551  -0.16561   0.71535 
 H                    -0.54441   4.8534    0.9271 
 H                    -2.26454   1.71425   1.7928 
 H                    -2.67663   3.21581  -1.41547 
 H                    -2.30495  -3.42249  -1.88492 
 H                    -1.30114  -0.97423  -4.15212 
 H                    -2.6266    0.83253  -1.35485 
 
 The following ModRedundant input section has been read:
 A       1       5       9 F                                                   
 

 GradGradGradGradGradGradGradGradGradGradGradGradGradGradGradGradGradGrad
 Berny optimization.
 Initialization pass.
                           ----------------------------
                           !    Initial Parameters    !
                           ! (Angstroms and Degrees)  !
 --------------------------                            --------------------------
 ! Name  Definition              Value          Derivative Info.                !
 --------------------------------------------------------------------------------
 ! R1    R(1,2)                  1.9455         estimate D2E/DX2                !
 ! R2    R(1,3)                  1.9537         estimate D2E/DX2                !
 ! R3    R(1,4)                  1.9783         estimate D2E/DX2                !
 ! R4    R(1,5)                  1.9592         estimate D2E/DX2                !
 ! R5    R(2,8)                  1.6494         estimate D2E/DX2                !
 ! R6    R(3,7)                  1.6382         estimate D2E/DX2                !
 ! R7    R(4,6)                  1.6416         estimate D2E/DX2                !
 ! R8    R(5,9)                  1.6365         estimate D2E/DX2                !
 ! R9    R(6,16)                 1.6489         estimate D2E/DX2                !
 ! R10   R(6,17)                 1.651          estimate D2E/DX2                !
 ! R11   R(6,18)                 1.6636         estimate D2E/DX2                !
 ! R12   R(7,19)                 1.6831         estimate D2E/DX2                !
 ! R13   R(7,20)                 1.6453         estimate D2E/DX2                !
 ! R14   R(7,21)                 1.6369         estimate D2E/DX2                !
 ! R15   R(8,13)                 1.6414         estimate D2E/DX2                !
 ! R16   R(8,14)                 1.6742         estimate D2E/DX2                !
 ! R17   R(8,15)                 1.6396         estimate D2E/DX2                !
 ! R18   R(9,10)                 1.6509         estimate D2E/DX2                !
 ! R19   R(9,11)                 1.6574         estimate D2E/DX2                !
 ! R20   R(9,12)                 1.6499         estimate D2E/DX2                !
 ! R21   R(10,23)                0.9639         estimate D2E/DX2                !
 ! R22   R(11,24)                0.9637         estimate D2E/DX2                !
 ! R23   R(12,22)                0.9636         estimate D2E/DX2                !
 ! R24   R(13,25)                0.9741         estimate D2E/DX2                !
 ! R25   R(14,27)                0.9767         estimate D2E/DX2                !
 ! R26   R(15,26)                0.9633         estimate D2E/DX2                !
 ! R27   R(16,32)                0.9637         estimate D2E/DX2                !
 ! R28   R(17,33)                0.9838         estimate D2E/DX2                !
 ! R29   R(18,31)                0.9639         estimate D2E/DX2                !
 ! R30   R(19,30)                0.9654         estimate D2E/DX2                !
 ! R31   R(20,28)                0.964          estimate D2E/DX2                !
 ! R32   R(21,29)                0.9802         estimate D2E/DX2                !
 ! A1    A(2,1,3)              106.0959         estimate D2E/DX2                !
 ! A2    A(2,1,4)              103.2215         estimate D2E/DX2                !
 ! A3    A(2,1,5)              112.8091         estimate D2E/DX2                !
 ! A4    A(3,1,4)              105.0977         estimate D2E/DX2                !
 ! A5    A(3,1,5)              115.6244         estimate D2E/DX2                !
 ! A6    A(4,1,5)              112.9053         estimate D2E/DX2                !
 ! A7    A(1,2,8)              141.2475         estimate D2E/DX2                !
 ! A8    A(1,3,7)              148.2959         estimate D2E/DX2                !
 ! A9    A(1,4,6)              134.9212         estimate D2E/DX2                !
 ! A10   A(1,5,9)              164.2749         Frozen                          !
 ! A11   A(4,6,16)             109.995          estimate D2E/DX2                !
 ! A12   A(4,6,17)             109.7481         estimate D2E/DX2                !
 ! A13   A(4,6,18)             111.8419         estimate D2E/DX2                !
 ! A14   A(16,6,17)            114.9974         estimate D2E/DX2                !
 ! A15   A(16,6,18)            108.0654         estimate D2E/DX2                !
 ! A16   A(17,6,18)            101.9874         estimate D2E/DX2                !
 ! A17   A(3,7,19)             103.2694         estimate D2E/DX2                !
 ! A18   A(3,7,20)             114.3703         estimate D2E/DX2                !
 ! A19   A(3,7,21)             111.9731         estimate D2E/DX2                !
 ! A20   A(19,7,20)            106.3208         estimate D2E/DX2                !
 ! A21   A(19,7,21)            112.6977         estimate D2E/DX2                !
 ! A22   A(20,7,21)            108.1072         estimate D2E/DX2                !
 ! A23   A(2,8,13)             111.4369         estimate D2E/DX2                !
 ! A24   A(2,8,14)             107.7363         estimate D2E/DX2                !
 ! A25   A(2,8,15)             107.5758         estimate D2E/DX2                !
 ! A26   A(13,8,14)            110.4391         estimate D2E/DX2                !
 ! A27   A(13,8,15)            110.7605         estimate D2E/DX2                !
 ! A28   A(14,8,15)            108.7748         estimate D2E/DX2                !
 ! A29   A(5,9,10)             113.7768         estimate D2E/DX2                !
 ! A30   A(5,9,11)             110.2316         estimate D2E/DX2                !
 ! A31   A(5,9,12)             105.0573         estimate D2E/DX2                !
 ! A32   A(10,9,11)            105.2125         estimate D2E/DX2                !
 ! A33   A(10,9,12)            108.46           estimate D2E/DX2                !
 ! A34   A(11,9,12)            114.3199         estimate D2E/DX2                !
 ! A35   A(9,10,23)            115.8441         estimate D2E/DX2                !
 ! A36   A(9,11,24)            117.3556         estimate D2E/DX2                !
 ! A37   A(9,12,22)            116.857          estimate D2E/DX2                !
 ! A38   A(8,13,25)            116.8987         estimate D2E/DX2                !
 ! A39   A(8,14,27)            114.0563         estimate D2E/DX2                !
 ! A40   A(8,15,26)            117.2168         estimate D2E/DX2                !
 ! A41   A(6,16,32)            116.4902         estimate D2E/DX2                !
 ! A42   A(6,17,33)            117.1862         estimate D2E/DX2                !
 ! A43   A(6,18,31)            116.3082         estimate D2E/DX2                !
 ! A44   A(7,19,30)            115.137          estimate D2E/DX2                !
 ! A45   A(7,20,28)            116.168          estimate D2E/DX2                !
 ! A46   A(7,21,29)            116.2372         estimate D2E/DX2                !
 ! D1    D(3,1,2,8)             57.7293         estimate D2E/DX2                !
 ! D2    D(4,1,2,8)            -52.53           estimate D2E/DX2                !
 ! D3    D(5,1,2,8)           -174.7064         estimate D2E/DX2                !
 ! D4    D(2,1,3,7)            -50.0987         estimate D2E/DX2                !
 ! D5    D(4,1,3,7)             58.8308         estimate D2E/DX2                !
 ! D6    D(5,1,3,7)           -175.9649         estimate D2E/DX2                !
 ! D7    D(2,1,4,6)             42.7687         estimate D2E/DX2                !
 ! D8    D(3,1,4,6)            -68.2308         estimate D2E/DX2                !
 ! D9    D(5,1,4,6)            164.8806         estimate D2E/DX2                !
 ! D10   D(2,1,5,9)           -106.9249         estimate D2E/DX2                !
 ! D11   D(3,1,5,9)             15.4384         estimate D2E/DX2                !
 ! D12   D(4,1,5,9)            136.5205         estimate D2E/DX2                !
 ! D13   D(1,2,8,13)            93.5308         estimate D2E/DX2                !
 ! D14   D(1,2,8,14)           -27.7658         estimate D2E/DX2                !
 ! D15   D(1,2,8,15)          -144.8802         estimate D2E/DX2                !
 ! D16   D(1,3,7,19)           -61.1007         estimate D2E/DX2                !
 ! D17   D(1,3,7,20)          -176.175          estimate D2E/DX2                !
 ! D18   D(1,3,7,21)            60.4101         estimate D2E/DX2                !
 ! D19   D(1,4,6,16)           160.1671         estimate D2E/DX2                !
 ! D20   D(1,4,6,17)            32.6923         estimate D2E/DX2                !
 ! D21   D(1,4,6,18)           -79.7428         estimate D2E/DX2                !
 ! D22   D(1,5,9,10)          -104.4784         estimate D2E/DX2                !
 ! D23   D(1,5,9,11)           137.6193         estimate D2E/DX2                !
 ! D24   D(1,5,9,12)            14.0005         estimate D2E/DX2                !
 ! D25   D(4,6,16,32)          -14.2006         estimate D2E/DX2                !
 ! D26   D(17,6,16,32)         110.2974         estimate D2E/DX2                !
 ! D27   D(18,6,16,32)        -136.5533         estimate D2E/DX2                !
 ! D28   D(4,6,17,33)           51.0101         estimate D2E/DX2                !
 ! D29   D(16,6,17,33)         -73.6174         estimate D2E/DX2                !
 ! D30   D(18,6,17,33)         169.7173         estimate D2E/DX2                !
 ! D31   D(4,6,18,31)          -96.4419         estimate D2E/DX2                !
 ! D32   D(16,6,18,31)          24.7714         estimate D2E/DX2                !
 ! D33   D(17,6,18,31)         146.3491         estimate D2E/DX2                !
 ! D34   D(3,7,19,30)         -162.1839         estimate D2E/DX2                !
 ! D35   D(20,7,19,30)         -41.4664         estimate D2E/DX2                !
 ! D36   D(21,7,19,30)          76.7956         estimate D2E/DX2                !
 ! D37   D(3,7,20,28)          -98.4264         estimate D2E/DX2                !
 ! D38   D(19,7,20,28)         148.2948         estimate D2E/DX2                !
 ! D39   D(21,7,20,28)          27.0452         estimate D2E/DX2                !
 ! D40   D(3,7,21,29)          -49.9            estimate D2E/DX2                !
 ! D41   D(19,7,21,29)          66.0156         estimate D2E/DX2                !
 ! D42   D(20,7,21,29)        -176.775          estimate D2E/DX2                !
 ! D43   D(2,8,13,25)          -58.4685         estimate D2E/DX2                !
 ! D44   D(14,8,13,25)          61.2403         estimate D2E/DX2                !
 ! D45   D(15,8,13,25)        -178.1895         estimate D2E/DX2                !
 ! D46   D(2,8,14,27)           80.2919         estimate D2E/DX2                !
 ! D47   D(13,8,14,27)         -41.6251         estimate D2E/DX2                !
 ! D48   D(15,8,14,27)        -163.3756         estimate D2E/DX2                !
 ! D49   D(2,8,15,26)         -174.1988         estimate D2E/DX2                !
 ! D50   D(13,8,15,26)         -52.1888         estimate D2E/DX2                !
 ! D51   D(14,8,15,26)          69.3658         estimate D2E/DX2                !
 ! D52   D(5,9,10,23)          -94.8502         estimate D2E/DX2                !
 ! D53   D(11,9,10,23)          25.9079         estimate D2E/DX2                !
 ! D54   D(12,9,10,23)         148.64           estimate D2E/DX2                !
 ! D55   D(5,9,11,24)          -43.8205         estimate D2E/DX2                !
 ! D56   D(10,9,11,24)        -166.8799         estimate D2E/DX2                !
 ! D57   D(12,9,11,24)          74.2393         estimate D2E/DX2                !
 ! D58   D(5,9,12,22)         -166.4771         estimate D2E/DX2                !
 ! D59   D(10,9,12,22)         -44.4742         estimate D2E/DX2                !
 ! D60   D(11,9,12,22)          72.5545         estimate D2E/DX2                !
 --------------------------------------------------------------------------------
 Trust Radius=3.00D-01 FncErr=1.00D-07 GrdErr=1.00D-06 EigMax=2.50D+02 EigMin=1.00D-04
 Number of steps in this run=    148 maximum allowed number of steps=    198.
 GradGradGradGradGradGradGradGradGradGradGradGradGradGradGradGradGradGrad

                          Input orientation:                          
 ---------------------------------------------------------------------
 Center     Atomic      Atomic             Coordinates (Angstroms)
 Number     Number       Type             X           Y           Z
 ---------------------------------------------------------------------
      1         40           0        0.656690   -0.135930   -0.032850
      2          8           0       -0.207860   -1.035610    1.459840
      3          8           0        0.093810    1.732530    0.061340
      4          8           0       -0.278490   -0.876880   -1.610800
      5          8           0        2.592060   -0.436300   -0.082840
      6         14           0       -1.842820   -1.210010   -1.980510
      7         14           0       -1.128830    2.814860    0.193490
      8         14           0       -1.702410   -1.336670    2.089240
      9         14           0        4.216310   -0.261050    0.012520
     10          8           0        4.955660   -0.099720   -1.454750
     11          8           0        4.898770   -1.607040    0.697750
     12          8           0        4.447780    1.129440    0.869850
     13          8           0       -2.295290   -2.774860    1.565530
     14          8           0       -2.712510   -0.084410    1.626210
     15          8           0       -1.563050   -1.325710    3.722820
     16          8           0       -2.025590   -1.315160   -3.615830
     17          8           0       -2.835980   -0.121360   -1.236070
     18          8           0       -2.344010   -2.648460   -1.311860
     19          8           0       -2.063260    2.510880   -1.173000
     20          8           0       -0.657210    4.387800    0.090580
     21          8           0       -1.966890    2.625120    1.586780
     22          1           0        5.335010    1.505160    0.858650
     23          1           0        5.304200   -0.911110   -1.841120
     24          1           0        4.463730   -1.977950    1.473520
     25          1           0       -2.388950   -2.888580    0.602630
     26          1           0       -2.341880   -1.572700    4.233110
     27          1           0       -3.055510   -0.165610    0.715350
     28          1           0       -0.544410    4.853400    0.927100
     29          1           0       -2.264540    1.714250    1.792800
     30          1           0       -2.676630    3.215810   -1.415470
     31          1           0       -2.304950   -3.422490   -1.884920
     32          1           0       -1.301140   -0.974230   -4.152120
     33          1           0       -2.626600    0.832530   -1.354850
 ---------------------------------------------------------------------
                    Distance matrix (angstroms):
                    1          2          3          4          5
     1  Zr   0.000000
     2  O    1.945506   0.000000
     3  O    1.953676   3.115992   0.000000
     4  O    1.978255   3.075551   3.121487   0.000000
     5  O    1.959178   3.252474   3.311475   3.281590   0.000000
     6  Si   3.345830   3.813072   4.071637   1.641581   4.885482
     7  Si   3.456367   4.156675   1.638216   4.196127   4.948881
     8  Si   3.392697   1.649382   4.093748   3.991147   4.896026
     9  Si   3.562107   4.718894   4.579492   4.818469   1.636458
    10  O    4.528162   6.002721   5.412324   5.293832   2.753548
    11  O    4.548976   5.194707   5.886033   5.715467   2.702011
    12  O    4.097364   5.168222   4.469280   5.702330   2.608229
    13  O    4.270007   2.719104   5.318548   4.214129   5.663230
    14  O    3.755881   2.684349   3.691276   4.126826   5.584187
    15  O    4.521933   2.653635   5.050193   5.504457   5.704300
    16  O    4.628494   5.398585   5.225117   2.695291   5.880230
    17  O    3.694143   3.874377   3.701871   2.692952   5.558124
    18  O    4.117387   3.853147   5.198242   2.737560   5.546975
    19  O    3.962786   4.790819   2.604299   3.854088   5.616611
    20  O    4.712293   5.611610   2.759591   5.545717   5.818915
    21  O    4.138813   4.063403   2.714805   5.033807   5.739682
    22  H    5.037323   6.127018   5.306371   6.579033   3.489906
    23  H    5.046790   6.426091   6.144620   5.587544   3.266909
    24  H    4.489515   4.765705   5.904076   5.763162   2.881335
    25  H    4.154135   2.987551   5.273685   3.660635   5.594105
    26  H    5.408710   3.540273   5.853272   6.236427   6.653014
    27  H    3.786966   3.069247   3.734820   3.691709   5.710116
    28  H    5.220877   5.922628   3.301014   6.272779   6.232042
    29  H    3.910211   3.450004   2.925765   4.716232   5.632890
    30  H    4.925121   5.695332   3.472236   4.747562   6.547740
    31  H    4.796139   4.613285   6.009676   3.265243   6.012115
    32  H    4.637265   5.717790   5.198623   2.741094   5.657333
    33  H    3.669549   4.154844   3.196283   2.915684   5.519271
                    6          7          8          9         10
     6  Si   0.000000
     7  Si   4.629864   0.000000
     8  Si   4.074141   4.599789   0.000000
     9  Si   6.448701   6.169643   6.364037   0.000000
    10  O    6.908581   6.944961   7.643285   1.650923   0.000000
    11  O    7.264967   7.492626   6.751661   1.657402   2.628404
    12  O    7.291723   5.864868   6.737466   1.649865   2.678160
    13  O    3.902292   5.872656   1.641392   7.150665   8.297876
    14  O    3.877082   3.600902   1.674173   7.116442   8.263981
    15  O    5.711360   5.457933   1.639550   6.949880   8.414503
    16  O    1.648858   5.689654   5.714257   7.296395   7.408469
    17  O    1.650974   3.685022   3.717478   7.163329   7.794738
    18  O    1.663557   5.795740   3.701341   7.105738   7.733154
    19  O    3.813881   1.683110   5.057278   6.965777   7.493988
    20  O    6.085274   1.645344   6.152775   6.735659   7.350523
    21  O    5.239196   1.636949   4.002274   7.002873   8.037248
    22  H    8.182556   6.628648   7.688669   2.255421   2.841015
    23  H    7.154625   7.707552   8.044962   2.245454   0.963906
    24  H    7.231364   7.475709   6.229898   2.267925   3.513475
    25  H    3.128653   5.855299   2.256052   7.133134   8.121197
    26  H    6.244172   6.086107   2.249625   7.908455   9.368859
    27  H    3.135132   3.587149   2.256066   7.306329   8.300152
    28  H    6.848723   2.243964   6.403788   7.046879   7.775434
    29  H    4.792391   2.249216   3.116405   7.005185   8.122091
    30  H    4.538986   2.268303   5.827278   7.851136   8.321426
    31  H    2.262249   6.678891   4.528537   7.491449   7.996393
    32  H    2.250533   5.768121   6.264739   6.949468   6.869361
    33  H    2.275463   2.927508   4.173884   7.063359   7.640009
                   11         12         13         14         15
    11  O    0.000000
    12  O    2.778729   0.000000
    13  O    7.339710   7.822821   0.000000
    14  O    7.817418   7.301730   2.723284   0.000000
    15  O    7.140400   7.092057   2.700021   2.694041   0.000000
    16  O    8.163267   8.246327   5.389801   5.428221   7.353220
    17  O    8.110072   7.684566   3.896456   2.865180   5.259411
    18  O    7.588211   8.072224   2.880577   3.916938   5.263798
    19  O    8.302219   6.962417   5.957553   3.872032   6.240087
    20  O    8.196077   6.106152   7.494163   5.155878   6.830660
    21  O    8.114114   6.625635   5.409998   2.810526   4.509414
    22  H    3.146742   0.963570   8.777228   8.238838   7.987523
    23  H    2.663560   3.499523   8.534113   8.773451   8.848076
    24  H    0.963666   3.165524   6.806459   7.423424   6.465821
    25  H    7.400152   7.934530   0.974105   3.002628   3.586120
    26  H    8.057727   8.044412   2.926319   3.024616   0.963315
    27  H    8.083848   7.615798   2.847618   0.976682   3.552203
    28  H    8.450923   6.228412   7.852613   5.437957   6.858212
    29  H    7.971393   6.800668   4.494964   1.861077   3.668572
    30  H    9.225631   7.767422   6.702232   4.488269   6.947481
    31  H    7.865089   8.596987   3.510715   4.861781   6.032715
    32  H    7.896871   7.918061   6.076358   6.014386   7.887130
    33  H    8.172874   7.421880   4.653133   3.120077   5.618885
                   16         17         18         19         20
    16  O    0.000000
    17  O    2.783011   0.000000
    18  O    2.680925   2.575658   0.000000
    19  O    4.539540   2.744041   5.168839   0.000000
    20  O    6.937845   5.180691   7.370284   2.663914   0.000000
    21  O    6.526592   4.033231   6.029509   2.763824   2.657239
    22  H    9.063863   8.590605   8.996167   7.737795   6.693747
    23  H    7.552395   8.200751   7.860892   8.150820   8.206602
    24  H    8.273575   8.004659   7.386017   8.351962   8.286092
    25  H    4.516978   3.352337   1.930013   5.693251   7.497121
    26  H    7.859531   5.680005   5.648359   6.780802   7.451592
    27  H    4.597969   1.964228   3.283345   3.422576   5.184180
    28  H    7.802771   5.888874   8.033020   3.493526   0.963988
    29  H    6.203846   3.587487   5.355228   3.077516   3.553721
    30  H    5.078890   3.345785   5.874609   0.965371   2.778454
    31  H    2.741337   3.405945   0.963870   5.980813   8.223033
    32  H    0.963674   3.403890   3.457991   4.647792   6.867788
    33  H    3.175817   0.983796   3.492706   1.779685   4.313665
                   21         22         23         24         25
    21  O    0.000000
    22  H    7.423087   0.000000
    23  H    8.782037   3.623268   0.000000
    24  H    7.909106   3.642698   3.582091   0.000000
    25  H    5.616723   8.889885   8.310647   6.967562   0.000000
    26  H    4.976482   8.932796   9.787569   7.354991   3.861883
    27  H    3.119721   8.556450   8.773600   7.771639   2.805632
    28  H    2.724676   6.766312   8.665960   8.488073   7.965291
    29  H    0.980165   7.659603   8.796801   7.681399   4.755841
    30  H    3.141043   8.502019   8.994793   9.290110   6.435764
    31  H    6.981445   9.496204   8.012996   7.692909   2.545589
    32  H    6.806873   8.677193   6.998230   8.117204   5.239820
    33  H    3.507390   8.290914   8.134760   8.134572   4.211278
                   26         27         28         29         30
    26  H    0.000000
    27  H    3.855361   0.000000
    28  H    7.446836   5.616131   0.000000
    29  H    4.094525   2.306600   3.682736   0.000000
    30  H    7.412715   4.014716   3.565908   3.566160   0.000000
    31  H    6.391665   4.234621   8.916127   6.317702   6.665250
    32  H    8.470737   5.236788   7.767393   6.595312   5.190150
    33  H    6.090279   2.337943   5.070523   3.288802   2.384576
                   31         32         33
    31  H    0.000000
    32  H    3.484510   0.000000
    33  H    4.299957   3.584124   0.000000
 Stoichiometry    H12O16Si4Zr
 Framework group  C1[X(H12O16Si4Zr)]
 Deg. of freedom    93
 Full point group                 C1      NOp   1
 Largest Abelian subgroup         C1      NOp   1
 Largest concise Abelian subgroup C1      NOp   1
                         Standard orientation:                         
 ---------------------------------------------------------------------
 Center     Atomic      Atomic             Coordinates (Angstroms)
 Number     Number       Type             X           Y           Z
 ---------------------------------------------------------------------
      1         40           0        0.657815   -0.124848   -0.072267
      2          8           0       -0.222218   -0.909089    1.475473
      3          8           0        0.102658    1.747684   -0.119964
      4          8           0       -0.268551   -0.975978   -1.599001
      5          8           0        2.592138   -0.435686   -0.084614
      6         14           0       -1.831482   -1.329201   -1.955750
      7         14           0       -1.116069    2.841595   -0.077378
      8         14           0       -1.722900   -1.157242    2.113311
      9         14           0        4.216382   -0.260295    0.010600
     10          8           0        4.967697   -0.210046   -1.458600
     11          8           0        4.887485   -1.555011    0.798199
     12          8           0        4.447528    1.188471    0.765387
     13          8           0       -2.318218   -2.627662    1.691847
     14          8           0       -2.723758    0.061601    1.551567
     15          8           0       -1.596040   -1.026912    3.742742
     16          8           0       -2.002162   -1.553423   -3.580351
     17          8           0       -2.825411   -0.184931   -1.301176
     18          8           0       -2.344272   -2.712689   -1.187356
     19          8           0       -2.041339    2.441776   -1.425294
     20          8           0       -0.636586    4.400866   -0.291683
     21          8           0       -1.965650    2.757969    1.319340
     22          1           0        5.336503    1.558862    0.733730
     23          1           0        5.315532   -1.048980   -1.781580
     24          1           0        4.444833   -1.866244    1.595599
     25          1           0       -2.404993   -2.811408    0.739173
     26          1           0       -2.379871   -1.232702    4.263545
     27          1           0       -3.060117   -0.084912    0.646412
     28          1           0       -0.528115    4.926185    0.509284
     29          1           0       -2.268976    1.865862    1.589272
     30          1           0       -2.649645    3.129406   -1.723740
     31          1           0       -2.304302   -3.526855   -1.701732
     32          1           0       -1.272085   -1.255643   -4.134411
     33          1           0       -2.610827    0.756832   -1.487968
 ---------------------------------------------------------------------
 Rotational constants (GHZ):           0.2124083           0.1338497           0.1240627
 General basis read from cards:  (5D, 7F)
 ======================================================================================================
                                       Pseudopotential Parameters
 ======================================================================================================
  Center     Atomic      Valence      Angular      Power
  Number     Number     Electrons     Momentum     of R      Exponent        Coefficient   SO-Coeffient
 ======================================================================================================
    1         40           12
                                      G and up 
                                                     2        1.0000000        0.00000000    0.00000000
                                      S - G
                                                     2        8.6365280      150.24299400    0.00000000
                                                     2        3.7176390       18.78003600    0.00000000
                                      P - G
                                                     2        7.6267280       33.19279100    0.00000000
                                                     2        7.4532070       66.38903900    0.00000000
                                                     2        3.3583890        4.62072600    0.00000000
                                                     2        3.2297380        9.26027000    0.00000000
                                      D - G
                                                     2        5.9380860       13.99338300    0.00000000
                                                     2        5.8255440       20.99588200    0.00000000
                                                     2        2.2050190        2.28516600    0.00000000
                                                     2        2.2062920        3.44126000    0.00000000
                                      F - G
                                                     2        4.8002150       -5.23932000    0.00000000
                                                     2        4.7989920       -6.98742400    0.00000000
    2          8
                                   No pseudopotential on this center.
    3          8
                                   No pseudopotential on this center.
    4          8
                                   No pseudopotential on this center.
    5          8
                                   No pseudopotential on this center.
    6         14
                                   No pseudopotential on this center.
    7         14
                                   No pseudopotential on this center.
    8         14
                                   No pseudopotential on this center.
    9         14
                                   No pseudopotential on this center.
   10          8
                                   No pseudopotential on this center.
   11          8
                                   No pseudopotential on this center.
   12          8
                                   No pseudopotential on this center.
   13          8
                                   No pseudopotential on this center.
   14          8
                                   No pseudopotential on this center.
   15          8
                                   No pseudopotential on this center.
   16          8
                                   No pseudopotential on this center.
   17          8
                                   No pseudopotential on this center.
   18          8
                                   No pseudopotential on this center.
   19          8
                                   No pseudopotential on this center.
   20          8
                                   No pseudopotential on this center.
   21          8
                                   No pseudopotential on this center.
   22          1
                                   No pseudopotential on this center.
   23          1
                                   No pseudopotential on this center.
   24          1
                                   No pseudopotential on this center.
   25          1
                                   No pseudopotential on this center.
   26          1
                                   No pseudopotential on this center.
   27          1
                                   No pseudopotential on this center.
   28          1
                                   No pseudopotential on this center.
   29          1
                                   No pseudopotential on this center.
   30          1
                                   No pseudopotential on this center.
   31          1
                                   No pseudopotential on this center.
   32          1
                                   No pseudopotential on this center.
   33          1
                                   No pseudopotential on this center.
 ======================================================================================================
 There are   570 symmetry adapted cartesian basis functions of A   symmetry.
 There are   524 symmetry adapted basis functions of A   symmetry.
   524 basis functions,  1074 primitive gaussians,   570 cartesian basis functions
   104 alpha electrons      104 beta electrons
       nuclear repulsion energy      2832.9568974620 Hartrees.
 NAtoms=   33 NActive=   33 NUniq=   33 SFac= 1.00D+00 NAtFMM=   60 NAOKFM=F Big=F
 Integral buffers will be    131072 words long.
 Raffenetti 2 integral format.
 Two-electron integral symmetry is turned on.
 Nuclear repulsion after empirical dispersion term =     2832.9160873684 Hartrees.
 One-electron integrals computed using PRISM.
 PrsmSu:  requested number of processors reduced to:   4 ShMem   1 Linda.
   1 Symmetry operations used in ECPInt.
 ECPInt:  NShTT=   13203 NPrTT=   78401 LenC2=   11526 LenP2D=   44636.
 LDataN:  DoStor=T MaxTD1= 8 Len=  415
 Number of processors reduced to  13 by ecpmxn.
 NBasis=   524 RedAO= T EigKep=  3.15D-05  NBF=   524
 NBsUse=   524 1.00D-06 EigRej= -1.00D+00 NBFU=   524
 Defaulting to unpruned grid for atomic number  40.
 ExpMin= 1.01D-02 ExpMax= 1.61D+04 ExpMxC= 2.43D+03 IAcc=3 IRadAn=         5 AccDes= 0.00D+00
 Harris functional with IExCor=  402 and IRadAn=       5 diagonalized for initial guess.
 HarFok:  IExCor=  402 AccDes= 0.00D+00 IRadAn=         5 IDoV= 1 UseB2=F ITyADJ=14
 ICtDFT=  3500011 ScaDFX=  1.000000  1.000000  1.000000  1.000000
 Defaulting to unpruned grid for atomic number  40.
 FoFCou: FMM=F IPFlag=           0 FMFlag=      100000 FMFlg1=           0
         NFxFlg=           0 DoJE=T BraDBF=F KetDBF=T FulRan=T
         wScrn=  0.000000 ICntrl=       500 IOpCl=  0 I1Cent=   200000004 NGrid=           0
         NMat0=    1 NMatS0=      1 NMatT0=    0 NMatD0=    1 NMtDS0=    0 NMtDT0=    0
 Petite list used in FoFCou.
 Requested convergence on RMS density matrix=1.00D-08 within 128 cycles.
 Requested convergence on MAX density matrix=1.00D-06.
 Requested convergence on             energy=1.00D-06.
 No special actions if energy rises.
 Defaulting to unpruned grid for atomic number  40.
 Defaulting to unpruned grid for atomic number  40.
 Defaulting to unpruned grid for atomic number  40.
 Defaulting to unpruned grid for atomic number  40.
 Defaulting to unpruned grid for atomic number  40.
 Defaulting to unpruned grid for atomic number  40.
 Defaulting to unpruned grid for atomic number  40.
 Defaulting to unpruned grid for atomic number  40.
 Defaulting to unpruned grid for atomic number  40.
 Defaulting to unpruned grid for atomic number  40.
 Defaulting to unpruned grid for atomic number  40.
 Defaulting to unpruned grid for atomic number  40.
 Defaulting to unpruned grid for atomic number  40.
 Defaulting to unpruned grid for atomic number  40.
 Defaulting to unpruned grid for atomic number  40.
 Defaulting to unpruned grid for atomic number  40.
 SCF Done:  E(RB3LYP) =  -2416.94684995     A.U. after   14 cycles
            NFock= 14  Conv=0.25D-08     -V/T= 2.0185

 **********************************************************************

            Population analysis using the SCF Density.

 **********************************************************************

 Orbital symmetries:
       Occupied  (A) (A) (A) (A) (A) (A) (A) (A) (A) (A) (A) (A)
                 (A) (A) (A) (A) (A) (A) (A) (A) (A) (A) (A) (A)
                 (A) (A) (A) (A) (A) (A) (A) (A) (A) (A) (A) (A)
                 (A) (A) (A) (A) (A) (A) (A) (A) (A) (A) (A) (A)
                 (A) (A) (A) (A) (A) (A) (A) (A) (A) (A) (A) (A)
                 (A) (A) (A) (A) (A) (A) (A) (A) (A) (A) (A) (A)
                 (A) (A) (A) (A) (A) (A) (A) (A) (A) (A) (A) (A)
                 (A) (A) (A) (A) (A) (A) (A) (A) (A) (A) (A) (A)
                 (A) (A) (A) (A) (A) (A) (A) (A)
       Virtual   (A) (A) (A) (A) (A) (A) (A) (A) (A) (A) (A) (A)
                 (A) (A) (A) (A) (A) (A) (A) (A) (A) (A) (A) (A)
                 (A) (A) (A) (A) (A) (A) (A) (A) (A) (A) (A) (A)
                 (A) (A) (A) (A) (A) (A) (A) (A) (A) (A) (A) (A)
                 (A) (A) (A) (A) (A) (A) (A) (A) (A) (A) (A) (A)
                 (A) (A) (A) (A) (A) (A) (A) (A) (A) (A) (A) (A)
                 (A) (A) (A) (A) (A) (A) (A) (A) (A) (A) (A) (A)
                 (A) (A) (A) (A) (A) (A) (A) (A) (A) (A) (A) (A)
                 (A) (A) (A) (A) (A) (A) (A) (A) (A) (A) (A) (A)
                 (A) (A) (A) (A) (A) (A) (A) (A) (A) (A) (A) (A)
                 (A) (A) (A) (A) (A) (A) (A) (A) (A) (A) (A) (A)
                 (A) (A) (A) (A) (A) (A) (A) (A) (A) (A) (A) (A)
                 (A) (A) (A) (A) (A) (A) (A) (A) (A) (A) (A) (A)
                 (A) (A) (A) (A) (A) (A) (A) (A) (A) (A) (A) (A)
                 (A) (A) (A) (A) (A) (A) (A) (A) (A) (A) (A) (A)
                 (A) (A) (A) (A) (A) (A) (A) (A) (A) (A) (A) (A)
                 (A) (A) (A) (A) (A) (A) (A) (A) (A) (A) (A) (A)
                 (A) (A) (A) (A) (A) (A) (A) (A) (A) (A) (A) (A)
                 (A) (A) (A) (A) (A) (A) (A) (A) (A) (A) (A) (A)
                 (A) (A) (A) (A) (A) (A) (A) (A) (A) (A) (A) (A)
                 (A) (A) (A) (A) (A) (A) (A) (A) (A) (A) (A) (A)
                 (A) (A) (A) (A) (A) (A) (A) (A) (A) (A) (A) (A)
                 (A) (A) (A) (A) (A) (A) (A) (A) (A) (A) (A) (A)
                 (A) (A) (A) (A) (A) (A) (A) (A) (A) (A) (A) (A)
                 (A) (A) (A) (A) (A) (A) (A) (A) (A) (A) (A) (A)
                 (A) (A) (A) (A) (A) (A) (A) (A) (A) (A) (A) (A)
                 (A) (A) (A) (A) (A) (A) (A) (A) (A) (A) (A) (A)
                 (A) (A) (A) (A) (A) (A) (A) (A) (A) (A) (A) (A)
                 (A) (A) (A) (A) (A) (A) (A) (A) (A) (A) (A) (A)
                 (A) (A) (A) (A) (A) (A) (A) (A) (A) (A) (A) (A)
                 (A) (A) (A) (A) (A) (A) (A) (A) (A) (A) (A) (A)
                 (A) (A) (A) (A) (A) (A) (A) (A) (A) (A) (A) (A)
                 (A) (A) (A) (A) (A) (A) (A) (A) (A) (A) (A) (A)
                 (A) (A) (A) (A) (A) (A) (A) (A) (A) (A) (A) (A)
                 (A) (A) (A) (A) (A) (A) (A) (A) (A) (A) (A) (A)
 The electronic state is 1-A.
 Alpha  occ. eigenvalues --  -66.22801 -66.21757 -66.21489 -66.21048 -19.18587
 Alpha  occ. eigenvalues --  -19.18352 -19.17781 -19.17025 -19.16733 -19.16531
 Alpha  occ. eigenvalues --  -19.16435 -19.16226 -19.16192 -19.16013 -19.16009
 Alpha  occ. eigenvalues --  -19.15502 -19.15336 -19.15266 -19.14901 -19.14713
 Alpha  occ. eigenvalues --   -5.36862  -5.35837  -5.35565  -5.35108  -3.72845
 Alpha  occ. eigenvalues --   -3.72819  -3.72772  -3.71829  -3.71782  -3.71747
 Alpha  occ. eigenvalues --   -3.71534  -3.71526  -3.71486  -3.71073  -3.71064
 Alpha  occ. eigenvalues --   -3.71039  -2.13367  -1.29610  -1.29525  -1.29370
 Alpha  occ. eigenvalues --   -1.05678  -1.04776  -1.04149  -1.03507  -1.02560
 Alpha  occ. eigenvalues --   -1.02169  -1.01473  -1.00920  -1.00758  -1.00674
 Alpha  occ. eigenvalues --   -0.99839  -0.99311  -0.97371  -0.96281  -0.95728
 Alpha  occ. eigenvalues --   -0.95411  -0.60988  -0.59161  -0.58973  -0.58500
 Alpha  occ. eigenvalues --   -0.55536  -0.54532  -0.53864  -0.53045  -0.52987
 Alpha  occ. eigenvalues --   -0.52498  -0.52158  -0.51708  -0.48776  -0.47603
 Alpha  occ. eigenvalues --   -0.47204  -0.46731  -0.43376  -0.42657  -0.41860
 Alpha  occ. eigenvalues --   -0.41395  -0.41112  -0.40526  -0.39827  -0.39342
 Alpha  occ. eigenvalues --   -0.38801  -0.38678  -0.38650  -0.38147  -0.38025
 Alpha  occ. eigenvalues --   -0.37630  -0.37480  -0.37201  -0.36549  -0.36406
 Alpha  occ. eigenvalues --   -0.36068  -0.35620  -0.35485  -0.35097  -0.34891
 Alpha  occ. eigenvalues --   -0.34607  -0.34010  -0.33695  -0.33493  -0.33251
 Alpha  occ. eigenvalues --   -0.32827  -0.32176  -0.32057  -0.31307
 Alpha virt. eigenvalues --   -0.04325  -0.03166  -0.03044  -0.02751  -0.02091
 Alpha virt. eigenvalues --   -0.01174  -0.00554  -0.00120   0.00112   0.00287
 Alpha virt. eigenvalues --    0.00766   0.00919   0.01031   0.01948   0.02344
 Alpha virt. eigenvalues --    0.03263   0.03325   0.03851   0.03957   0.04055
 Alpha virt. eigenvalues --    0.04170   0.04672   0.05549   0.05858   0.06198
 Alpha virt. eigenvalues --    0.06470   0.07078   0.07481   0.07709   0.08664
 Alpha virt. eigenvalues --    0.08798   0.09064   0.09189   0.09674   0.09939
 Alpha virt. eigenvalues --    0.10339   0.10676   0.10873   0.11291   0.11688
 Alpha virt. eigenvalues --    0.11813   0.12569   0.13255   0.13337   0.13546
 Alpha virt. eigenvalues --    0.14022   0.14472   0.14877   0.15024   0.15257
 Alpha virt. eigenvalues --    0.15333   0.15733   0.16202   0.16714   0.16935
 Alpha virt. eigenvalues --    0.17369   0.17523   0.17710   0.18142   0.18470
 Alpha virt. eigenvalues --    0.18495   0.18826   0.19217   0.19702   0.19776
 Alpha virt. eigenvalues --    0.20150   0.20253   0.20618   0.20896   0.21219
 Alpha virt. eigenvalues --    0.21756   0.22024   0.22348   0.22383   0.22737
 Alpha virt. eigenvalues --    0.23290   0.23732   0.24053   0.24132   0.24504
 Alpha virt. eigenvalues --    0.24778   0.25065   0.25643   0.25846   0.26144
 Alpha virt. eigenvalues --    0.26645   0.26668   0.26937   0.27211   0.27492
 Alpha virt. eigenvalues --    0.27931   0.28307   0.28576   0.28776   0.29040
 Alpha virt. eigenvalues --    0.29461   0.29749   0.30099   0.30330   0.30688
 Alpha virt. eigenvalues --    0.30803   0.31362   0.31473   0.31667   0.32049
 Alpha virt. eigenvalues --    0.32363   0.32752   0.33079   0.33550   0.34041
 Alpha virt. eigenvalues --    0.34455   0.34705   0.35347   0.35654   0.36282
 Alpha virt. eigenvalues --    0.36916   0.37504   0.38024   0.38479   0.38792
 Alpha virt. eigenvalues --    0.39423   0.39881   0.40111   0.41068   0.41571
 Alpha virt. eigenvalues --    0.42867   0.43111   0.43883   0.44243   0.44849
 Alpha virt. eigenvalues --    0.45398   0.45586   0.45956   0.46603   0.47421
 Alpha virt. eigenvalues --    0.47944   0.48695   0.48797   0.49384   0.49531
 Alpha virt. eigenvalues --    0.50060   0.50910   0.51090   0.51326   0.53108
 Alpha virt. eigenvalues --    0.54133   0.54396   0.55149   0.56664   0.57284
 Alpha virt. eigenvalues --    0.58185   0.58633   0.58992   0.59272   0.60359
 Alpha virt. eigenvalues --    0.61184   0.61710   0.62155   0.64226   0.65868
 Alpha virt. eigenvalues --    0.67020   0.68076   0.68488   0.68609   0.69466
 Alpha virt. eigenvalues --    0.69988   0.70628   0.73048   0.74470   0.75095
 Alpha virt. eigenvalues --    0.75462   0.77314   0.78587   0.78969   0.80336
 Alpha virt. eigenvalues --    0.81110   0.81491   0.82591   0.84128   0.85349
 Alpha virt. eigenvalues --    0.86608   0.87689   0.89740   0.90551   0.91245
 Alpha virt. eigenvalues --    0.94446   0.95709   0.96240   0.96880   0.97487
 Alpha virt. eigenvalues --    0.98079   0.98726   0.99218   0.99754   1.00444
 Alpha virt. eigenvalues --    1.00809   1.01469   1.02210   1.03253   1.04065
 Alpha virt. eigenvalues --    1.04331   1.05512   1.06445   1.06701   1.07998
 Alpha virt. eigenvalues --    1.09771   1.12349   1.15242   1.16197   1.16477
 Alpha virt. eigenvalues --    1.18696   1.19073   1.19803   1.20599   1.20974
 Alpha virt. eigenvalues --    1.21401   1.21738   1.22380   1.22913   1.22951
 Alpha virt. eigenvalues --    1.23457   1.23919   1.24349   1.25187   1.25705
 Alpha virt. eigenvalues --    1.26081   1.27163   1.27426   1.28129   1.28474
 Alpha virt. eigenvalues --    1.28992   1.29810   1.30111   1.30816   1.31459
 Alpha virt. eigenvalues --    1.32467   1.32687   1.32994   1.33556   1.34486
 Alpha virt. eigenvalues --    1.35323   1.35998   1.36575   1.36902   1.37777
 Alpha virt. eigenvalues --    1.39147   1.39745   1.40232   1.41163   1.41471
 Alpha virt. eigenvalues --    1.42793   1.43727   1.44304   1.45294   1.46343
 Alpha virt. eigenvalues --    1.46970   1.48771   1.50938   1.51292   1.52752
 Alpha virt. eigenvalues --    1.56732   1.57162   1.57669   1.59277   1.59812
 Alpha virt. eigenvalues --    1.60084   1.61220   1.61891   1.62439   1.63099
 Alpha virt. eigenvalues --    1.63215   1.63846   1.65208   1.65395   1.66628
 Alpha virt. eigenvalues --    1.67101   1.67984   1.69332   1.69700   1.70130
 Alpha virt. eigenvalues --    1.71381   1.71450   1.71575   1.72554   1.73355
 Alpha virt. eigenvalues --    1.74146   1.74981   1.75576   1.76066   1.76743
 Alpha virt. eigenvalues --    1.77212   1.77448   1.78501   1.78664   1.79571
 Alpha virt. eigenvalues --    1.80617   1.81475   1.82238   1.82440   1.83042
 Alpha virt. eigenvalues --    1.83360   1.84829   1.85103   1.85927   1.86616
 Alpha virt. eigenvalues --    1.87163   1.88088   1.88542   1.89847   1.90481
 Alpha virt. eigenvalues --    1.91273   1.91332   1.92499   1.92819   1.93927
 Alpha virt. eigenvalues --    1.94737   1.95006   1.95893   1.97307   1.98372
 Alpha virt. eigenvalues --    1.98982   2.00525   2.01166   2.02942   2.03638
 Alpha virt. eigenvalues --    2.05929   2.06573   2.07747   2.09732   2.10413
 Alpha virt. eigenvalues --    2.11153   2.13031   2.14196   2.16143   2.16298
 Alpha virt. eigenvalues --    2.17811   2.18830   2.19029   2.20793   2.26364
 Alpha virt. eigenvalues --    2.32537   2.33481   2.35483   2.39478   2.40418
 Alpha virt. eigenvalues --    2.41191   2.41359   2.41760   2.42732   2.43720
 Alpha virt. eigenvalues --    2.44025   2.45751   2.46700   2.47645   2.48970
 Alpha virt. eigenvalues --    2.50217   2.50307   2.51677   2.52771   2.53348
 Alpha virt. eigenvalues --    2.55417   2.58258   2.59259   2.60075   2.60684
 Alpha virt. eigenvalues --    2.61117   2.61808   2.62060   2.62423   2.62794
 Alpha virt. eigenvalues --    2.63151   2.64030   2.64587   2.64985   2.65970
 Alpha virt. eigenvalues --    2.66317   2.66589   2.67330   2.67559   2.69379
 Alpha virt. eigenvalues --    2.69691   2.70306   2.71215   2.71673   2.72387
 Alpha virt. eigenvalues --    2.72834   2.74344   2.75559   2.76745   2.77471
 Alpha virt. eigenvalues --    2.78940   2.80522   2.81494   2.82462   2.83431
 Alpha virt. eigenvalues --    2.83740   2.84697   2.86665   2.87787   2.88135
 Alpha virt. eigenvalues --    3.14614   3.20134   3.35854   3.41079   3.46812
 Alpha virt. eigenvalues --    3.47880   3.48587   3.48675   3.51102   3.51114
 Alpha virt. eigenvalues --    3.52903   3.54272   3.60305   3.61078   3.62056
 Alpha virt. eigenvalues --    3.66199   4.31353   4.58611   7.87985  31.29207
          Condensed to atoms (all electrons):
               1          2          3          4          5          6
     1  Zr  15.089543  -0.137149  -0.001974  -0.141389  -0.191402  -0.575006
     2  O   -0.137149   9.072194   0.019281  -0.042537  -0.056768   0.091088
     3  O   -0.001974   0.019281   8.829727   0.015110  -0.042721  -0.005301
     4  O   -0.141389  -0.042537   0.015110   8.811158  -0.059901  -0.672501
     5  O   -0.191402  -0.056768  -0.042721  -0.059901   9.430472  -0.006111
     6  Si  -0.575006   0.091088  -0.005301  -0.672501  -0.006111  13.963257
     7  Si  -0.615176  -0.028063  -0.876721  -0.006117  -0.033524   0.084403
     8  Si  -0.567204  -1.003838  -0.020632   0.073930  -0.013645  -0.025666
     9  Si  -0.331366  -0.041270  -0.027294  -0.033837  -1.251226   0.038013
    10  O   -0.014144   0.001031  -0.002019   0.001123   0.132825  -0.002319
    11  O   -0.058438   0.003546   0.002898   0.001117   0.311052  -0.001001
    12  O    0.038033  -0.000019   0.004666   0.002138   0.162496  -0.002752
    13  O   -0.042169   0.188449   0.001668  -0.015592  -0.000643   0.036805
    14  O   -0.022008   0.265698  -0.017674  -0.008921   0.001976   0.030051
    15  O   -0.081182   0.292777  -0.000724   0.001243   0.000548  -0.000554
    16  O   -0.126737   0.004677  -0.000480   0.344416   0.003187  -0.420526
    17  O   -0.083928  -0.039823   0.007882   0.219791   0.001329  -0.453315
    18  O   -0.028055  -0.014329   0.003732   0.198979  -0.000572  -0.451388
    19  O   -0.001438   0.009076   0.263891   0.010309   0.002146  -0.006823
    20  O   -0.146583  -0.000569   0.164183  -0.000882   0.001464   0.009071
    21  O    0.034854   0.010444   0.146439   0.003406   0.000231  -0.011737
    22  H   -0.008869  -0.000020  -0.000025  -0.000010   0.005674   0.000084
    23  H   -0.007361  -0.000013  -0.000007  -0.000056  -0.025422   0.000072
    24  H   -0.004621  -0.000224  -0.000011   0.000000  -0.005792   0.000048
    25  H    0.017390  -0.020119  -0.000111  -0.000268   0.000019   0.002400
    26  H    0.007377   0.000533   0.000014  -0.000011  -0.000004  -0.000146
    27  H    0.005505  -0.019429   0.000864  -0.001693   0.000009   0.008448
    28  H    0.005137  -0.000011  -0.018468  -0.000014  -0.000016  -0.000286
    29  H    0.004619  -0.007098  -0.020317  -0.000142  -0.000074   0.000086
    30  H    0.000901  -0.000013   0.000090  -0.000454  -0.000008  -0.000730
    31  H   -0.000036   0.000169  -0.000019  -0.018426  -0.000009   0.063671
    32  H    0.002005  -0.000023   0.000039   0.010423   0.000001   0.022894
    33  H   -0.016244   0.001007  -0.010100  -0.009577  -0.000104   0.053480
               7          8          9         10         11         12
     1  Zr  -0.615176  -0.567204  -0.331366  -0.014144  -0.058438   0.038033
     2  O   -0.028063  -1.003838  -0.041270   0.001031   0.003546  -0.000019
     3  O   -0.876721  -0.020632  -0.027294  -0.002019   0.002898   0.004666
     4  O   -0.006117   0.073930  -0.033837   0.001123   0.001117   0.002138
     5  O   -0.033524  -0.013645  -1.251226   0.132825   0.311052   0.162496
     6  Si   0.084403  -0.025666   0.038013  -0.002319  -0.001001  -0.002752
     7  Si  13.794763   0.181280   0.021141  -0.000209  -0.000803   0.004043
     8  Si   0.181280  13.796687   0.025452  -0.000856   0.001148  -0.000549
     9  Si   0.021141   0.025452  14.311187  -0.074584  -0.182469  -0.223426
    10  O   -0.000209  -0.000856  -0.074584   8.528206   0.014785   0.031335
    11  O   -0.000803   0.001148  -0.182469   0.014785   8.514177  -0.048759
    12  O    0.004043  -0.000549  -0.223426   0.031335  -0.048759   8.601576
    13  O    0.007458  -0.094739   0.000290   0.000000   0.000019   0.000010
    14  O    0.009832  -0.370232  -0.001439  -0.000002   0.000000   0.000020
    15  O   -0.002811  -0.305748  -0.000668   0.000000  -0.000026  -0.000020
    16  O    0.003871  -0.010069  -0.001030   0.000004  -0.000001  -0.000001
    17  O   -0.000441   0.097303   0.002656  -0.000002   0.000001  -0.000005
    18  O   -0.000664   0.074305   0.004274  -0.000003  -0.000002  -0.000001
    19  O   -0.406561  -0.015546   0.001072   0.000006  -0.000002  -0.000015
    20  O   -0.108317   0.009650   0.003211   0.000000  -0.000003  -0.000013
    21  O    0.023836  -0.039571  -0.001904   0.000002   0.000001   0.000030
    22  H   -0.000214   0.000086   0.047027  -0.006471  -0.005172   0.219920
    23  H    0.000056   0.000062   0.081072   0.228531  -0.006281   0.005956
    24  H    0.000061  -0.000139   0.037208   0.007445   0.242360  -0.007536
    25  H   -0.000471   0.057469  -0.000213   0.000000  -0.000000  -0.000000
    26  H   -0.000379   0.046027  -0.000044  -0.000000   0.000000  -0.000000
    27  H    0.001177   0.068241  -0.000015   0.000000  -0.000000  -0.000000
    28  H    0.056682  -0.000080  -0.000131  -0.000000  -0.000000  -0.000004
    29  H    0.048120   0.021666  -0.000056   0.000000   0.000000  -0.000001
    30  H    0.040179   0.000088   0.000024   0.000000  -0.000000   0.000000
    31  H    0.000153  -0.001968  -0.000055   0.000000  -0.000000  -0.000000
    32  H   -0.000657   0.000057   0.000005  -0.000000   0.000000   0.000000
    33  H    0.020625   0.000160   0.000080  -0.000000   0.000000   0.000000
              13         14         15         16         17         18
     1  Zr  -0.042169  -0.022008  -0.081182  -0.126737  -0.083928  -0.028055
     2  O    0.188449   0.265698   0.292777   0.004677  -0.039823  -0.014329
     3  O    0.001668  -0.017674  -0.000724  -0.000480   0.007882   0.003732
     4  O   -0.015592  -0.008921   0.001243   0.344416   0.219791   0.198979
     5  O   -0.000643   0.001976   0.000548   0.003187   0.001329  -0.000572
     6  Si   0.036805   0.030051  -0.000554  -0.420526  -0.453315  -0.451388
     7  Si   0.007458   0.009832  -0.002811   0.003871  -0.000441  -0.000664
     8  Si  -0.094739  -0.370232  -0.305748  -0.010069   0.097303   0.074305
     9  Si   0.000290  -0.001439  -0.000668  -0.001030   0.002656   0.004274
    10  O    0.000000  -0.000002   0.000000   0.000004  -0.000002  -0.000003
    11  O    0.000019   0.000000  -0.000026  -0.000001   0.000001  -0.000002
    12  O    0.000010   0.000020  -0.000020  -0.000001  -0.000005  -0.000001
    13  O    8.629459   0.087479  -0.091058   0.003721  -0.030844  -0.045410
    14  O    0.087479   8.676764   0.055448   0.003664  -0.035793  -0.026797
    15  O   -0.091058   0.055448   8.777259  -0.000175   0.003600   0.001668
    16  O    0.003721   0.003664  -0.000175   8.901029  -0.091448  -0.115008
    17  O   -0.030844  -0.035793   0.003600  -0.091448   8.935882   0.227844
    18  O   -0.045410  -0.026797   0.001668  -0.115008   0.227844   9.014074
    19  O    0.000188  -0.000347   0.000139  -0.001543  -0.029926   0.000175
    20  O    0.000008  -0.000226   0.000039   0.000065  -0.000986   0.000015
    21  O   -0.000240   0.016027  -0.000621  -0.000214  -0.005572   0.000475
    22  H   -0.000000   0.000000  -0.000000   0.000000   0.000000  -0.000000
    23  H    0.000000   0.000000  -0.000000  -0.000000   0.000000  -0.000000
    24  H   -0.000000   0.000000   0.000002   0.000000  -0.000000  -0.000000
    25  H    0.218273  -0.012002   0.008920  -0.000050   0.000628   0.014888
    26  H   -0.005134  -0.010053   0.217109   0.000000  -0.000003   0.000006
    27  H   -0.009806   0.219100   0.004626   0.000184   0.017902  -0.000269
    28  H   -0.000000  -0.000005  -0.000001  -0.000000   0.000004  -0.000000
    29  H    0.000791   0.017622  -0.002567  -0.000004  -0.000397   0.000006
    30  H    0.000001  -0.000002   0.000000   0.000117  -0.000396  -0.000007
    31  H    0.002354   0.000164  -0.000018   0.003811  -0.000774   0.218090
    32  H   -0.000008  -0.000006   0.000000   0.233457  -0.003637   0.003893
    33  H    0.000231   0.002070  -0.000035  -0.000116   0.230990   0.002103
              19         20         21         22         23         24
     1  Zr  -0.001438  -0.146583   0.034854  -0.008869  -0.007361  -0.004621
     2  O    0.009076  -0.000569   0.010444  -0.000020  -0.000013  -0.000224
     3  O    0.263891   0.164183   0.146439  -0.000025  -0.000007  -0.000011
     4  O    0.010309  -0.000882   0.003406  -0.000010  -0.000056   0.000000
     5  O    0.002146   0.001464   0.000231   0.005674  -0.025422  -0.005792
     6  Si  -0.006823   0.009071  -0.011737   0.000084   0.000072   0.000048
     7  Si  -0.406561  -0.108317   0.023836  -0.000214   0.000056   0.000061
     8  Si  -0.015546   0.009650  -0.039571   0.000086   0.000062  -0.000139
     9  Si   0.001072   0.003211  -0.001904   0.047027   0.081072   0.037208
    10  O    0.000006   0.000000   0.000002  -0.006471   0.228531   0.007445
    11  O   -0.000002  -0.000003   0.000001  -0.005172  -0.006281   0.242360
    12  O   -0.000015  -0.000013   0.000030   0.219920   0.005956  -0.007536
    13  O    0.000188   0.000008  -0.000240  -0.000000   0.000000  -0.000000
    14  O   -0.000347  -0.000226   0.016027   0.000000   0.000000   0.000000
    15  O    0.000139   0.000039  -0.000621  -0.000000  -0.000000   0.000002
    16  O   -0.001543   0.000065  -0.000214   0.000000  -0.000000   0.000000
    17  O   -0.029926  -0.000986  -0.005572   0.000000   0.000000  -0.000000
    18  O    0.000175   0.000015   0.000475  -0.000000  -0.000000  -0.000000
    19  O    8.872084   0.032058   0.023561  -0.000000   0.000000  -0.000000
    20  O    0.032058   8.656823  -0.050435   0.000001   0.000000  -0.000000
    21  O    0.023561  -0.050435   8.486332  -0.000000   0.000000   0.000000
    22  H   -0.000000   0.000001  -0.000000   0.361294   0.000053   0.000122
    23  H    0.000000   0.000000   0.000000   0.000053   0.350839   0.000012
    24  H   -0.000000  -0.000000   0.000000   0.000122   0.000012   0.365083
    25  H   -0.000024   0.000000  -0.000019   0.000000   0.000000   0.000000
    26  H    0.000001  -0.000000   0.000039  -0.000000  -0.000000  -0.000000
    27  H    0.000025   0.000191  -0.004020  -0.000000  -0.000000   0.000000
    28  H    0.004608   0.229581  -0.002085  -0.000000   0.000000  -0.000000
    29  H   -0.008570   0.007669   0.206457   0.000000   0.000000  -0.000000
    30  H    0.224239  -0.001487  -0.007145   0.000000   0.000000  -0.000000
    31  H    0.000004  -0.000000  -0.000000  -0.000000  -0.000000   0.000000
    32  H    0.000098  -0.000000   0.000001  -0.000000  -0.000000  -0.000000
    33  H    0.014825  -0.000082   0.001472  -0.000000  -0.000000  -0.000000
              25         26         27         28         29         30
     1  Zr   0.017390   0.007377   0.005505   0.005137   0.004619   0.000901
     2  O   -0.020119   0.000533  -0.019429  -0.000011  -0.007098  -0.000013
     3  O   -0.000111   0.000014   0.000864  -0.018468  -0.020317   0.000090
     4  O   -0.000268  -0.000011  -0.001693  -0.000014  -0.000142  -0.000454
     5  O    0.000019  -0.000004   0.000009  -0.000016  -0.000074  -0.000008
     6  Si   0.002400  -0.000146   0.008448  -0.000286   0.000086  -0.000730
     7  Si  -0.000471  -0.000379   0.001177   0.056682   0.048120   0.040179
     8  Si   0.057469   0.046027   0.068241  -0.000080   0.021666   0.000088
     9  Si  -0.000213  -0.000044  -0.000015  -0.000131  -0.000056   0.000024
    10  O    0.000000  -0.000000   0.000000  -0.000000   0.000000   0.000000
    11  O   -0.000000   0.000000  -0.000000  -0.000000   0.000000  -0.000000
    12  O   -0.000000  -0.000000  -0.000000  -0.000004  -0.000001   0.000000
    13  O    0.218273  -0.005134  -0.009806  -0.000000   0.000791   0.000001
    14  O   -0.012002  -0.010053   0.219100  -0.000005   0.017622  -0.000002
    15  O    0.008920   0.217109   0.004626  -0.000001  -0.002567   0.000000
    16  O   -0.000050   0.000000   0.000184  -0.000000  -0.000004   0.000117
    17  O    0.000628  -0.000003   0.017902   0.000004  -0.000397  -0.000396
    18  O    0.014888   0.000006  -0.000269  -0.000000   0.000006  -0.000007
    19  O   -0.000024   0.000001   0.000025   0.004608  -0.008570   0.224239
    20  O    0.000000  -0.000000   0.000191   0.229581   0.007669  -0.001487
    21  O   -0.000019   0.000039  -0.004020  -0.002085   0.206457  -0.007145
    22  H    0.000000  -0.000000  -0.000000  -0.000000   0.000000   0.000000
    23  H    0.000000  -0.000000  -0.000000   0.000000   0.000000   0.000000
    24  H    0.000000  -0.000000   0.000000  -0.000000  -0.000000  -0.000000
    25  H    0.298851  -0.000012   0.000116   0.000000   0.000001   0.000000
    26  H   -0.000012   0.365911   0.000036   0.000000   0.000021  -0.000000
    27  H    0.000116   0.000036   0.283336  -0.000000  -0.001499   0.000010
    28  H    0.000000   0.000000  -0.000000   0.349209  -0.000017  -0.000016
    29  H    0.000001   0.000021  -0.001499  -0.000017   0.285955   0.000155
    30  H    0.000000  -0.000000   0.000010  -0.000016   0.000155   0.334228
    31  H   -0.000492   0.000000   0.000013  -0.000000   0.000000  -0.000000
    32  H   -0.000001   0.000000  -0.000000   0.000000  -0.000000  -0.000000
    33  H    0.000006  -0.000000  -0.002408  -0.000002   0.000100  -0.001156
              31         32         33
     1  Zr  -0.000036   0.002005  -0.016244
     2  O    0.000169  -0.000023   0.001007
     3  O   -0.000019   0.000039  -0.010100
     4  O   -0.018426   0.010423  -0.009577
     5  O   -0.000009   0.000001  -0.000104
     6  Si   0.063671   0.022894   0.053480
     7  Si   0.000153  -0.000657   0.020625
     8  Si  -0.001968   0.000057   0.000160
     9  Si  -0.000055   0.000005   0.000080
    10  O    0.000000  -0.000000  -0.000000
    11  O   -0.000000   0.000000   0.000000
    12  O   -0.000000   0.000000   0.000000
    13  O    0.002354  -0.000008   0.000231
    14  O    0.000164  -0.000006   0.002070
    15  O   -0.000018   0.000000  -0.000035
    16  O    0.003811   0.233457  -0.000116
    17  O   -0.000774  -0.003637   0.230990
    18  O    0.218090   0.003893   0.002103
    19  O    0.000004   0.000098   0.014825
    20  O   -0.000000  -0.000000  -0.000082
    21  O   -0.000000   0.000001   0.001472
    22  H   -0.000000  -0.000000  -0.000000
    23  H   -0.000000  -0.000000  -0.000000
    24  H    0.000000  -0.000000  -0.000000
    25  H   -0.000492  -0.000001   0.000006
    26  H    0.000000   0.000000  -0.000000
    27  H    0.000013  -0.000000  -0.002408
    28  H   -0.000000   0.000000  -0.000002
    29  H    0.000000  -0.000000   0.000100
    30  H   -0.000000  -0.000000  -0.001156
    31  H    0.331367   0.000000  -0.000038
    32  H    0.000000   0.349876   0.000157
    33  H   -0.000038   0.000157   0.269238
 Mulliken charges:
               1
     1  Zr  -0.002884
     2  O   -0.548652
     3  O   -0.415885
     4  O   -0.680813
     5  O   -0.365489
     6  Si   2.232293
     7  Si   1.783442
     8  Si   2.016870
     9  Si   1.598316
    10  O   -0.844684
    11  O   -0.788147
    12  O   -0.787121
    13  O   -0.841561
    14  O   -0.880407
    15  O   -0.877168
    16  O   -0.734801
    17  O   -0.968523
    18  O   -1.082022
    19  O   -0.987706
    20  O   -0.804445
    21  O   -0.830044
    22  H    0.386520
    23  H    0.372486
    24  H    0.365982
    25  H    0.414820
    26  H    0.378712
    27  H    0.429356
    28  H    0.375914
    29  H    0.447473
    30  H    0.411383
    31  H    0.402040
    32  H    0.381427
    33  H    0.443317
 Sum of Mulliken charges =  -0.00000
 Mulliken charges with hydrogens summed into heavy atoms:
               1
     1  Zr  -0.002884
     2  O   -0.548652
     3  O   -0.415885
     4  O   -0.680813
     5  O   -0.365489
     6  Si   2.232293
     7  Si   1.783442
     8  Si   2.016870
     9  Si   1.598316
    10  O   -0.472198
    11  O   -0.422165
    12  O   -0.400600
    13  O   -0.426742
    14  O   -0.451051
    15  O   -0.498457
    16  O   -0.353373
    17  O   -0.525205
    18  O   -0.679982
    19  O   -0.576323
    20  O   -0.428531
    21  O   -0.382571
 Electronic spatial extent (au):  <R**2>=           9868.9775
 Charge=              0.0000 electrons
 Dipole moment (field-independent basis, Debye):
    X=              1.0655    Y=             -0.7288    Z=             -2.3132  Tot=              2.6490
 Quadrupole moment (field-independent basis, Debye-Ang):
   XX=           -160.2630   YY=           -154.6644   ZZ=           -157.8401
   XY=             -4.7599   XZ=              2.4394   YZ=              5.8064
 Traceless Quadrupole moment (field-independent basis, Debye-Ang):
   XX=             -2.6738   YY=              2.9248   ZZ=             -0.2509
   XY=             -4.7599   XZ=              2.4394   YZ=              5.8064
 Octapole moment (field-independent basis, Debye-Ang**2):
  XXX=             74.2156  YYY=              7.1670  ZZZ=            -15.6919  XYY=             -1.1210
  XXY=             20.5372  XXZ=             18.6765  XZZ=              3.9341  YZZ=            -17.1820
  YYZ=            -17.7477  XYZ=             28.4750
 Hexadecapole moment (field-independent basis, Debye-Ang**3):
 XXXX=          -6029.6170 YYYY=          -2839.5866 ZZZZ=          -2260.9115 XXXY=             56.0167
 XXXZ=            -33.6965 YYYX=              5.2010 YYYZ=            222.3967 ZZZX=           -169.8944
 ZZZY=            -58.3925 XXYY=          -1471.7415 XXZZ=          -1375.5217 YYZZ=           -922.7911
 XXYZ=             -5.4705 YYXZ=            119.2546 ZZXY=            -59.1639
 N-N= 2.832916087368D+03 E-N=-1.137842975577D+04  KE= 2.373154900470D+03
 PrsmSu:  requested number of processors reduced to:   2 ShMem   1 Linda.
 PrsmSu:  requested number of processors reduced to:  10 ShMem   1 Linda.
   1 Symmetry operations used in ECPInt.
 ECPInt:  NShTT=   13203 NPrTT=   78401 LenC2=   11526 LenP2D=   44636.
 LDataN:  DoStor=T MaxTD1= 9 Len=  602
 Number of processors reduced to  14 by ecpmxn.
 Calling FoFJK, ICntrl=      2127 FMM=F ISym2X=0 I1Cent= 0 IOpClX= 0 NMat=1 NMatS=1 NMatT=0.
 CoulSu:  requested number of processors reduced to:  10 ShMem   1 Linda.
 Defaulting to unpruned grid for atomic number  40.
 Defaulting to unpruned grid for atomic number  40.
 Defaulting to unpruned grid for atomic number  40.
 Defaulting to unpruned grid for atomic number  40.
 Defaulting to unpruned grid for atomic number  40.
 Defaulting to unpruned grid for atomic number  40.
 Defaulting to unpruned grid for atomic number  40.
 Defaulting to unpruned grid for atomic number  40.
 Defaulting to unpruned grid for atomic number  40.
 Defaulting to unpruned grid for atomic number  40.
 Defaulting to unpruned grid for atomic number  40.
 Defaulting to unpruned grid for atomic number  40.
 Defaulting to unpruned grid for atomic number  40.
 Defaulting to unpruned grid for atomic number  40.
 Defaulting to unpruned grid for atomic number  40.
 Defaulting to unpruned grid for atomic number  40.
 ***** Axes restored to original set *****
 -------------------------------------------------------------------
 Center     Atomic                   Forces (Hartrees/Bohr)
 Number     Number              X              Y              Z
 -------------------------------------------------------------------
      1       40          -0.000033303   -0.000003175   -0.000316440
      2        8           0.000025530    0.000011106    0.000103401
      3        8          -0.000014932   -0.000026293    0.000036811
      4        8           0.000006775    0.000018123    0.000063754
      5        8          -0.000030762    0.000035500    0.000203504
      6       14          -0.000001058   -0.000002440   -0.000041943
      7       14           0.000037334    0.000006331   -0.000046243
      8       14          -0.000051189   -0.000035133   -0.000058476
      9       14           0.000025624   -0.000037989   -0.000169083
     10        8           0.000013661    0.000024616    0.000045659
     11        8           0.000011689    0.000020311    0.000020072
     12        8           0.000013189    0.000007665    0.000046211
     13        8           0.000006849    0.000026231    0.000020569
     14        8           0.000015351   -0.000006447    0.000014982
     15        8           0.000026187    0.000009685    0.000013661
     16        8          -0.000008403    0.000001020    0.000027426
     17        8           0.000001672    0.000004027    0.000012379
     18        8          -0.000013996    0.000007167    0.000018223
     19        8          -0.000003526    0.000004839    0.000010548
     20        8          -0.000013848   -0.000002787    0.000009720
     21        8          -0.000010251   -0.000007768    0.000029225
     22        1           0.000001264   -0.000007739   -0.000000716
     23        1          -0.000023900   -0.000011031   -0.000007660
     24        1          -0.000001868   -0.000037676    0.000002276
     25        1           0.000001973   -0.000004677   -0.000011151
     26        1          -0.000007996   -0.000000103    0.000005164
     27        1           0.000000805    0.000003711   -0.000008973
     28        1           0.000006689    0.000000660   -0.000003786
     29        1          -0.000001354    0.000007021   -0.000006809
     30        1           0.000003393    0.000000015   -0.000001516
     31        1           0.000008542   -0.000004344   -0.000004322
     32        1           0.000010205    0.000002123   -0.000006794
     33        1          -0.000000346   -0.000002548    0.000000329
 -------------------------------------------------------------------
 Cartesian Forces:  Max     0.000316440 RMS     0.000047272

 GradGradGradGradGradGradGradGradGradGradGradGradGradGradGradGradGradGrad
 Berny optimization.
 FormGI is forming the generalized inverse of G from B-inverse, IUseBI=4.
 Internal  Forces:  Max     0.000167304 RMS     0.000027762
 Search for a local minimum.
 Step number   1 out of a maximum of  148
 All quantities printed in internal units (Hartrees-Bohrs-Radians)
 Mixed Optimization -- En-DIIS/RFO-DIIS
 Second derivative matrix not updated -- first step.
 ITU=  0
     Eigenvalues ---    0.00230   0.00230   0.00230   0.00230   0.03240
     Eigenvalues ---    0.03358   0.03498   0.03580   0.03665   0.03666
     Eigenvalues ---    0.03680   0.03686   0.03693   0.03739   0.03789
     Eigenvalues ---    0.03792   0.03816   0.03834   0.03850   0.03857
     Eigenvalues ---    0.08404   0.09407   0.11077   0.11224   0.11819
     Eigenvalues ---    0.11833   0.11884   0.12136   0.12177   0.12239
     Eigenvalues ---    0.12563   0.12783   0.12895   0.13099   0.13313
     Eigenvalues ---    0.16000   0.16000   0.16000   0.16000   0.16000
     Eigenvalues ---    0.16000   0.16000   0.16000   0.16000   0.16000
     Eigenvalues ---    0.16000   0.16000   0.19173   0.19893   0.20028
     Eigenvalues ---    0.20179   0.20203   0.20204   0.20208   0.20515
     Eigenvalues ---    0.20653   0.20795   0.20988   0.21175   0.21186
     Eigenvalues ---    0.21263   0.25000   0.25000   0.25000   0.38002
     Eigenvalues ---    0.39187   0.40660   0.41547   0.42502   0.42510
     Eigenvalues ---    0.42670   0.42743   0.42823   0.43362   0.43950
     Eigenvalues ---    0.43980   0.44272   0.44485   0.44689   0.44768
     Eigenvalues ---    0.50655   0.51353   0.52035   0.52547   0.54334
     Eigenvalues ---    0.54624   0.54642   0.54649   0.54691   0.54692
     Eigenvalues ---    0.54712   0.547661000.000001000.000001000.00000
     Eigenvalues --- 1000.000001000.000001000.000001000.000001000.00000
     Eigenvalues --- 1000.000001000.000001000.000001000.000001000.00000
     Eigenvalues --- 1000.000001000.000001000.000001000.000001000.00000
     Eigenvalues --- 1000.000001000.000001000.000001000.000001000.00000
     Eigenvalues --- 1000.000001000.000001000.000001000.000001000.00000
     Eigenvalues --- 1000.000001000.000001000.000001000.000001000.00000
     Eigenvalues --- 1000.000001000.000001000.000001000.000001000.00000
     Eigenvalues --- 1000.000001000.000001000.000001000.000001000.00000
     Eigenvalues --- 1000.000001000.000001000.00000
 RFO step:  Lambda=-3.93766208D-06 EMin= 2.30000000D-03
 Linear search not attempted -- first point.
 Iteration  1 RMS(Cart)=  0.01590001 RMS(Int)=  0.00009722
 Iteration  2 RMS(Cart)=  0.00015450 RMS(Int)=  0.00000006
 Iteration  3 RMS(Cart)=  0.00000001 RMS(Int)=  0.00000006
 Iteration  1 RMS(Cart)=  0.00000000 RMS(Int)=  0.00000000
 Variable       Old X    -DE/DX   Delta X   Delta X   Delta X     New X
                                 (Linear)    (Quad)   (Total)
    R1        3.67647   0.00005   0.00000   0.00025   0.00025   3.67672
    R2        3.69191  -0.00002   0.00000  -0.00009  -0.00009   3.69182
    R3        3.73836  -0.00007   0.00000  -0.00034  -0.00034   3.73802
    R4        3.70231   0.00000   0.00000   0.00002   0.00002   3.70233
    R5        3.11688  -0.00000   0.00000  -0.00001  -0.00001   3.11687
    R6        3.09578  -0.00000   0.00000  -0.00001  -0.00001   3.09577
    R7        3.10214  -0.00000   0.00000  -0.00000  -0.00000   3.10214
    R8        3.09246   0.00003   0.00000   0.00008   0.00008   3.09253
    R9        3.11589  -0.00002   0.00000  -0.00005  -0.00005   3.11584
   R10        3.11989   0.00000   0.00000   0.00001   0.00001   3.11990
   R11        3.14367   0.00001   0.00000   0.00001   0.00001   3.14368
   R12        3.18062  -0.00001   0.00000  -0.00002  -0.00002   3.18060
   R13        3.10925  -0.00001   0.00000  -0.00001  -0.00001   3.10924
   R14        3.09339   0.00003   0.00000   0.00006   0.00006   3.09344
   R15        3.10178  -0.00002   0.00000  -0.00006  -0.00006   3.10173
   R16        3.16373  -0.00002   0.00000  -0.00004  -0.00004   3.16369
   R17        3.09830   0.00002   0.00000   0.00005   0.00005   3.09835
   R18        3.11979  -0.00004   0.00000  -0.00009  -0.00009   3.11971
   R19        3.13204   0.00002   0.00000   0.00006   0.00006   3.13209
   R20        3.11779   0.00003   0.00000   0.00007   0.00007   3.11786
   R21        1.82152   0.00000   0.00000   0.00000   0.00000   1.82152
   R22        1.82107   0.00002   0.00000   0.00003   0.00003   1.82110
   R23        1.82088  -0.00000   0.00000  -0.00000  -0.00000   1.82088
   R24        1.84079   0.00001   0.00000   0.00002   0.00002   1.84081
   R25        1.84566   0.00001   0.00000   0.00002   0.00002   1.84568
   R26        1.82040   0.00001   0.00000   0.00002   0.00002   1.82042
   R27        1.82108   0.00001   0.00000   0.00002   0.00002   1.82110
   R28        1.85911  -0.00000   0.00000  -0.00001  -0.00001   1.85910
   R29        1.82145   0.00001   0.00000   0.00001   0.00001   1.82146
   R30        1.82429  -0.00000   0.00000  -0.00000  -0.00000   1.82428
   R31        1.82167  -0.00000   0.00000  -0.00000  -0.00000   1.82167
   R32        1.85224  -0.00001   0.00000  -0.00001  -0.00001   1.85223
    A1        1.85172  -0.00002   0.00000  -0.00041  -0.00041   1.85131
    A2        1.80156   0.00002   0.00000   0.00008   0.00008   1.80164
    A3        1.96889  -0.00009   0.00000  -0.00078  -0.00078   1.96811
    A4        1.83430  -0.00000   0.00000   0.00032   0.00032   1.83463
    A5        2.01803   0.00002   0.00000   0.00011   0.00011   2.01813
    A6        1.97057   0.00008   0.00000   0.00068   0.00068   1.97125
    A7        2.46523  -0.00002   0.00000  -0.00009  -0.00009   2.46515
    A8        2.58825   0.00002   0.00000   0.00007   0.00007   2.58832
    A9        2.35482  -0.00004   0.00000  -0.00014  -0.00014   2.35468
   A10        2.86714   0.00017   0.00000   0.00000  -0.00000   2.86714
   A11        1.91977   0.00000   0.00000   0.00004   0.00004   1.91981
   A12        1.91547  -0.00001   0.00000  -0.00005  -0.00005   1.91542
   A13        1.95201  -0.00001   0.00000  -0.00005  -0.00005   1.95196
   A14        2.00708   0.00001   0.00000   0.00006   0.00006   2.00715
   A15        1.88610   0.00001   0.00000   0.00006   0.00006   1.88615
   A16        1.78002  -0.00001   0.00000  -0.00007  -0.00007   1.77995
   A17        1.80239   0.00001   0.00000   0.00005   0.00005   1.80244
   A18        1.99614   0.00001   0.00000   0.00007   0.00007   1.99620
[...]
 Alpha virt. eigenvalues --    3.47848   3.48599   3.48665   3.51066   3.51118
 Alpha virt. eigenvalues --    3.52863   3.54107   3.60312   3.61078   3.62056
 Alpha virt. eigenvalues --    3.66194   4.33215   4.59348   7.89793  31.29284
          Condensed to atoms (all electrons):
               1          2          3          4          5          6
     1  Zr  15.077971  -0.119537  -0.001834  -0.134512  -0.188276  -0.599920
     2  O   -0.119537   9.063550   0.019252  -0.042740  -0.056977   0.087848
     3  O   -0.001834   0.019252   8.828447   0.015973  -0.044050  -0.003985
     4  O   -0.134512  -0.042740   0.015973   8.808304  -0.060820  -0.671250
     5  O   -0.188276  -0.056977  -0.044050  -0.060820   9.418758  -0.006872
     6  Si  -0.599920   0.087848  -0.003985  -0.671250  -0.006872  13.984813
     7  Si  -0.613333  -0.028902  -0.875432  -0.007101  -0.034005   0.083935
     8  Si  -0.592397  -1.002735  -0.019927   0.071513  -0.014346  -0.016013
     9  Si  -0.324260  -0.040526  -0.026760  -0.032373  -1.222073   0.038783
    10  O   -0.016118   0.001051  -0.001984   0.000938   0.130950  -0.002273
    11  O   -0.062698   0.003315   0.002952   0.001169   0.308714  -0.000868
    12  O    0.042933  -0.000035   0.004606   0.002044   0.153436  -0.002985
    13  O   -0.033556   0.186072   0.001627  -0.015532  -0.000651   0.034680
    14  O   -0.015323   0.263438  -0.017906  -0.008688   0.001877   0.028301
    15  O   -0.084082   0.293460  -0.000676   0.001223   0.000582   0.000144
    16  O   -0.124742   0.004698  -0.000515   0.344398   0.003200  -0.422802
    17  O   -0.083711  -0.039741   0.008297   0.217487   0.001345  -0.451064
    18  O   -0.026045  -0.014672   0.003745   0.197819  -0.000598  -0.451157
    19  O    0.001946   0.008893   0.265214   0.010379   0.002160  -0.007716
    20  O   -0.146228  -0.000579   0.164070  -0.000851   0.001491   0.009125
    21  O    0.036287   0.010128   0.145743   0.003447   0.000201  -0.012032
    22  H   -0.008941  -0.000018  -0.000017  -0.000009   0.005764   0.000087
    23  H   -0.007517  -0.000013  -0.000006  -0.000056  -0.025421   0.000084
    24  H   -0.004915  -0.000198  -0.000012   0.000003  -0.005766   0.000069
    25  H    0.016592  -0.019928  -0.000110  -0.000330   0.000018   0.002755
    26  H    0.007332   0.000621   0.000014  -0.000011  -0.000004  -0.000159
    27  H    0.003917  -0.019221   0.000859  -0.001674   0.000011   0.008852
    28  H    0.005051  -0.000011  -0.018394  -0.000014  -0.000015  -0.000283
    29  H    0.004142  -0.007046  -0.020282  -0.000142  -0.000074   0.000129
    30  H    0.000749  -0.000012   0.000035  -0.000454  -0.000008  -0.000668
    31  H   -0.000167   0.000172  -0.000020  -0.018446  -0.000010   0.063863
    32  H    0.002122  -0.000024   0.000040   0.010438   0.000001   0.022789
    33  H   -0.015972   0.001020  -0.010134  -0.009638  -0.000102   0.053321
               7          8          9         10         11         12
     1  Zr  -0.613333  -0.592397  -0.324260  -0.016118  -0.062698   0.042933
     2  O   -0.028902  -1.002735  -0.040526   0.001051   0.003315  -0.000035
     3  O   -0.875432  -0.019927  -0.026760  -0.001984   0.002952   0.004606
     4  O   -0.007101   0.071513  -0.032373   0.000938   0.001169   0.002044
     5  O   -0.034005  -0.014346  -1.222073   0.130950   0.308714   0.153436
     6  Si   0.083935  -0.016013   0.038783  -0.002273  -0.000868  -0.002985
     7  Si  13.794630   0.182408   0.020305  -0.000207  -0.000882   0.003882
     8  Si   0.182408  13.814107   0.025970  -0.000978   0.001222  -0.000885
     9  Si   0.020305   0.025970  14.243418  -0.068503  -0.173548  -0.212119
    10  O   -0.000207  -0.000978  -0.068503   8.526057   0.014166   0.030897
    11  O   -0.000882   0.001222  -0.173548   0.014166   8.512857  -0.050328
    12  O    0.003882  -0.000885  -0.212119   0.030897  -0.050328   8.600828
    13  O    0.007212  -0.096035   0.000167   0.000000   0.000019   0.000008
    14  O    0.009356  -0.369790  -0.001479  -0.000002   0.000001   0.000019
    15  O   -0.002603  -0.305095  -0.000588  -0.000000  -0.000025  -0.000017
    16  O    0.003871  -0.010409  -0.001064   0.000005  -0.000002  -0.000001
    17  O   -0.000619   0.096822   0.002641  -0.000001   0.000002  -0.000005
    18  O   -0.000791   0.074795   0.004194  -0.000002  -0.000001  -0.000001
    19  O   -0.409494  -0.016080   0.001040   0.000006  -0.000002  -0.000022
    20  O   -0.108942   0.009590   0.003140   0.000003  -0.000003  -0.000025
    21  O    0.024671  -0.039758  -0.001805   0.000001   0.000001   0.000024
    22  H   -0.000186   0.000091   0.047179  -0.006447  -0.005126   0.219606
    23  H    0.000057   0.000062   0.081145   0.228706  -0.006245   0.005957
    24  H    0.000054  -0.000109   0.037385   0.007446   0.242441  -0.007512
    25  H   -0.000453   0.057424  -0.000208   0.000000  -0.000000  -0.000000
    26  H   -0.000384   0.046041  -0.000045  -0.000000   0.000000  -0.000000
    27  H    0.001338   0.068641  -0.000007   0.000000  -0.000000  -0.000000
    28  H    0.056647  -0.000064  -0.000135  -0.000000  -0.000000  -0.000004
    29  H    0.048215   0.021891  -0.000059   0.000000   0.000000  -0.000001
    30  H    0.040371   0.000107   0.000022   0.000000   0.000000   0.000000
    31  H    0.000155  -0.001977  -0.000055   0.000000  -0.000000   0.000000
    32  H   -0.000663   0.000055   0.000010  -0.000000   0.000000  -0.000000
    33  H    0.020631   0.000117   0.000079  -0.000000   0.000000   0.000000
              13         14         15         16         17         18
     1  Zr  -0.033556  -0.015323  -0.084082  -0.124742  -0.083711  -0.026045
     2  O    0.186072   0.263438   0.293460   0.004698  -0.039741  -0.014672
     3  O    0.001627  -0.017906  -0.000676  -0.000515   0.008297   0.003745
     4  O   -0.015532  -0.008688   0.001223   0.344398   0.217487   0.197819
     5  O   -0.000651   0.001877   0.000582   0.003200   0.001345  -0.000598
     6  Si   0.034680   0.028301   0.000144  -0.422802  -0.451064  -0.451157
     7  Si   0.007212   0.009356  -0.002603   0.003871  -0.000619  -0.000791
     8  Si  -0.096035  -0.369790  -0.305095  -0.010409   0.096822   0.074795
     9  Si   0.000167  -0.001479  -0.000588  -0.001064   0.002641   0.004194
    10  O    0.000000  -0.000002  -0.000000   0.000005  -0.000001  -0.000002
    11  O    0.000019   0.000001  -0.000025  -0.000002   0.000002  -0.000001
    12  O    0.000008   0.000019  -0.000017  -0.000001  -0.000005  -0.000001
    13  O    8.627050   0.087123  -0.090458   0.003741  -0.030882  -0.045650
    14  O    0.087123   8.674204   0.055633   0.003655  -0.035610  -0.026785
    15  O   -0.090458   0.055633   8.777350  -0.000175   0.003602   0.001676
    16  O    0.003741   0.003655  -0.000175   8.901805  -0.091874  -0.115234
    17  O   -0.030882  -0.035610   0.003602  -0.091874   8.936236   0.227972
    18  O   -0.045650  -0.026785   0.001676  -0.115234   0.227972   9.013080
    19  O    0.000175  -0.000503   0.000142  -0.001515  -0.029876   0.000160
    20  O    0.000008  -0.000247   0.000039   0.000065  -0.000980   0.000015
    21  O   -0.000247   0.015858  -0.000628  -0.000213  -0.005610   0.000476
    22  H   -0.000000  -0.000000   0.000000   0.000000   0.000000  -0.000000
    23  H    0.000000   0.000000  -0.000000  -0.000000   0.000000  -0.000000
    24  H   -0.000000   0.000000   0.000002   0.000000  -0.000000  -0.000000
    25  H    0.218592  -0.011961   0.008901  -0.000053   0.000621   0.014935
    26  H   -0.005109  -0.010076   0.216993   0.000000  -0.000003   0.000006
    27  H   -0.009720   0.219323   0.004635   0.000182   0.017927  -0.000248
    28  H    0.000000  -0.000006  -0.000001  -0.000000   0.000004  -0.000000
    29  H    0.000795   0.017627  -0.002568  -0.000004  -0.000397   0.000006
    30  H    0.000001   0.000001   0.000000   0.000115  -0.000404  -0.000007
    31  H    0.002354   0.000165  -0.000018   0.003728  -0.000745   0.218134
    32  H   -0.000008  -0.000006   0.000000   0.233427  -0.003645   0.003898
    33  H    0.000230   0.002086  -0.000035  -0.000080   0.230939   0.002092
              19         20         21         22         23         24
     1  Zr   0.001946  -0.146228   0.036287  -0.008941  -0.007517  -0.004915
     2  O    0.008893  -0.000579   0.010128  -0.000018  -0.000013  -0.000198
     3  O    0.265214   0.164070   0.145743  -0.000017  -0.000006  -0.000012
     4  O    0.010379  -0.000851   0.003447  -0.000009  -0.000056   0.000003
     5  O    0.002160   0.001491   0.000201   0.005764  -0.025421  -0.005766
     6  Si  -0.007716   0.009125  -0.012032   0.000087   0.000084   0.000069
     7  Si  -0.409494  -0.108942   0.024671  -0.000186   0.000057   0.000054
     8  Si  -0.016080   0.009590  -0.039758   0.000091   0.000062  -0.000109
     9  Si   0.001040   0.003140  -0.001805   0.047179   0.081145   0.037385
    10  O    0.000006   0.000003   0.000001  -0.006447   0.228706   0.007446
    11  O   -0.000002  -0.000003   0.000001  -0.005126  -0.006245   0.242441
    12  O   -0.000022  -0.000025   0.000024   0.219606   0.005957  -0.007512
    13  O    0.000175   0.000008  -0.000247  -0.000000   0.000000  -0.000000
    14  O   -0.000503  -0.000247   0.015858  -0.000000   0.000000   0.000000
    15  O    0.000142   0.000039  -0.000628   0.000000  -0.000000   0.000002
    16  O   -0.001515   0.000065  -0.000213   0.000000  -0.000000   0.000000
    17  O   -0.029876  -0.000980  -0.005610   0.000000   0.000000  -0.000000
    18  O    0.000160   0.000015   0.000476  -0.000000  -0.000000  -0.000000
    19  O    8.872398   0.032068   0.023244  -0.000000   0.000000  -0.000000
    20  O    0.032068   8.657286  -0.050316   0.000000   0.000000  -0.000000
    21  O    0.023244  -0.050316   8.485627  -0.000000   0.000000   0.000000
    22  H   -0.000000   0.000000  -0.000000   0.361517   0.000054   0.000126
    23  H    0.000000   0.000000   0.000000   0.000054   0.350893   0.000012
    24  H   -0.000000  -0.000000   0.000000   0.000126   0.000012   0.365230
    25  H   -0.000024   0.000000  -0.000019   0.000000   0.000000   0.000000
    26  H    0.000001  -0.000000   0.000039  -0.000000  -0.000000  -0.000000
    27  H    0.000040   0.000192  -0.003996  -0.000000  -0.000000   0.000000
    28  H    0.004622   0.229573  -0.002076  -0.000000   0.000000  -0.000000
    29  H   -0.008566   0.007665   0.206459   0.000000   0.000000  -0.000000
    30  H    0.224183  -0.001497  -0.007161   0.000000   0.000000  -0.000000
    31  H    0.000004  -0.000000  -0.000000  -0.000000  -0.000000   0.000000
    32  H    0.000097  -0.000000   0.000001  -0.000000  -0.000000  -0.000000
    33  H    0.014827  -0.000081   0.001477  -0.000000  -0.000000  -0.000000
              25         26         27         28         29         30
     1  Zr   0.016592   0.007332   0.003917   0.005051   0.004142   0.000749
     2  O   -0.019928   0.000621  -0.019221  -0.000011  -0.007046  -0.000012
     3  O   -0.000110   0.000014   0.000859  -0.018394  -0.020282   0.000035
     4  O   -0.000330  -0.000011  -0.001674  -0.000014  -0.000142  -0.000454
     5  O    0.000018  -0.000004   0.000011  -0.000015  -0.000074  -0.000008
     6  Si   0.002755  -0.000159   0.008852  -0.000283   0.000129  -0.000668
     7  Si  -0.000453  -0.000384   0.001338   0.056647   0.048215   0.040371
     8  Si   0.057424   0.046041   0.068641  -0.000064   0.021891   0.000107
     9  Si  -0.000208  -0.000045  -0.000007  -0.000135  -0.000059   0.000022
    10  O    0.000000  -0.000000   0.000000  -0.000000   0.000000   0.000000
    11  O   -0.000000   0.000000  -0.000000  -0.000000   0.000000   0.000000
    12  O   -0.000000  -0.000000  -0.000000  -0.000004  -0.000001   0.000000
    13  O    0.218592  -0.005109  -0.009720   0.000000   0.000795   0.000001
    14  O   -0.011961  -0.010076   0.219323  -0.000006   0.017627   0.000001
    15  O    0.008901   0.216993   0.004635  -0.000001  -0.002568   0.000000
    16  O   -0.000053   0.000000   0.000182  -0.000000  -0.000004   0.000115
    17  O    0.000621  -0.000003   0.017927   0.000004  -0.000397  -0.000404
    18  O    0.014935   0.000006  -0.000248  -0.000000   0.000006  -0.000007
    19  O   -0.000024   0.000001   0.000040   0.004622  -0.008566   0.224183
    20  O    0.000000  -0.000000   0.000192   0.229573   0.007665  -0.001497
    21  O   -0.000019   0.000039  -0.003996  -0.002076   0.206459  -0.007161
    22  H    0.000000  -0.000000  -0.000000  -0.000000   0.000000   0.000000
    23  H    0.000000  -0.000000  -0.000000   0.000000   0.000000   0.000000
    24  H    0.000000  -0.000000   0.000000  -0.000000  -0.000000  -0.000000
    25  H    0.298880  -0.000012   0.000113   0.000000   0.000001   0.000000
    26  H   -0.000012   0.365994   0.000036   0.000000   0.000021  -0.000000
    27  H    0.000113   0.000036   0.283375  -0.000000  -0.001510   0.000009
    28  H    0.000000   0.000000  -0.000000   0.349185  -0.000017  -0.000016
    29  H    0.000001   0.000021  -0.001510  -0.000017   0.285922   0.000156
    30  H    0.000000  -0.000000   0.000009  -0.000016   0.000156   0.334283
    31  H   -0.000500   0.000000   0.000013  -0.000000   0.000000  -0.000000
    32  H   -0.000001   0.000000  -0.000000   0.000000  -0.000000  -0.000000
    33  H    0.000006  -0.000000  -0.002400  -0.000002   0.000099  -0.001162
              31         32         33
     1  Zr  -0.000167   0.002122  -0.015972
     2  O    0.000172  -0.000024   0.001020
     3  O   -0.000020   0.000040  -0.010134
     4  O   -0.018446   0.010438  -0.009638
     5  O   -0.000010   0.000001  -0.000102
     6  Si   0.063863   0.022789   0.053321
     7  Si   0.000155  -0.000663   0.020631
     8  Si  -0.001977   0.000055   0.000117
     9  Si  -0.000055   0.000010   0.000079
    10  O    0.000000  -0.000000  -0.000000
    11  O   -0.000000   0.000000   0.000000
    12  O    0.000000  -0.000000   0.000000
    13  O    0.002354  -0.000008   0.000230
    14  O    0.000165  -0.000006   0.002086
    15  O   -0.000018   0.000000  -0.000035
    16  O    0.003728   0.233427  -0.000080
    17  O   -0.000745  -0.003645   0.230939
    18  O    0.218134   0.003898   0.002092
    19  O    0.000004   0.000097   0.014827
    20  O   -0.000000  -0.000000  -0.000081
    21  O   -0.000000   0.000001   0.001477
    22  H   -0.000000  -0.000000  -0.000000
    23  H   -0.000000  -0.000000  -0.000000
    24  H    0.000000  -0.000000  -0.000000
    25  H   -0.000500  -0.000001   0.000006
    26  H    0.000000   0.000000  -0.000000
    27  H    0.000013  -0.000000  -0.002400
    28  H   -0.000000   0.000000  -0.000002
    29  H    0.000000  -0.000000   0.000099
    30  H   -0.000000  -0.000000  -0.001162
    31  H    0.331512   0.000001  -0.000038
    32  H    0.000001   0.349990   0.000157
    33  H   -0.000038   0.000157   0.269212
 Mulliken charges:
               1
     1  Zr   0.005044
     2  O   -0.550600
     3  O   -0.418831
     4  O   -0.680493
     5  O   -0.368438
     6  Si   2.230469
     7  Si   1.786259
     8  Si   2.015744
     9  Si   1.600129
    10  O   -0.843710
    11  O   -0.787131
    12  O   -0.790300
    13  O   -0.842008
    14  O   -0.880286
    15  O   -0.877414
    16  O   -0.734208
    17  O   -0.968728
    18  O   -1.081813
    19  O   -0.987800
    20  O   -0.804581
    21  O   -0.829822
    22  H    0.386320
    23  H    0.372287
    24  H    0.365744
    25  H    0.414760
    26  H    0.378704
    27  H    0.429314
    28  H    0.375957
    29  H    0.447534
    30  H    0.411356
    31  H    0.401873
    32  H    0.381320
    33  H    0.443351
 Sum of Mulliken charges =  -0.00000
 Mulliken charges with hydrogens summed into heavy atoms:
               1
     1  Zr   0.005044
     2  O   -0.550600
     3  O   -0.418831
     4  O   -0.680493
     5  O   -0.368438
     6  Si   2.230469
     7  Si   1.786259
     8  Si   2.015744
     9  Si   1.600129
    10  O   -0.471423
    11  O   -0.421387
    12  O   -0.403980
    13  O   -0.427248
    14  O   -0.450973
    15  O   -0.498710
    16  O   -0.352888
    17  O   -0.525377
    18  O   -0.679939
    19  O   -0.576445
    20  O   -0.428624
    21  O   -0.382288
 Electronic spatial extent (au):  <R**2>=           9867.8970
 Charge=             -0.0000 electrons
 Dipole moment (field-independent basis, Debye):
    X=              1.0555    Y=             -0.7695    Z=             -2.3979  Tot=              2.7306
 Quadrupole moment (field-independent basis, Debye-Ang):
   XX=           -160.2434   YY=           -154.7476   ZZ=           -157.6936
   XY=             -4.9242   XZ=              2.3332   YZ=              5.7858
 Traceless Quadrupole moment (field-independent basis, Debye-Ang):
   XX=             -2.6819   YY=              2.8140   ZZ=             -0.1320
   XY=             -4.9242   XZ=              2.3332   YZ=              5.7858
 Octapole moment (field-independent basis, Debye-Ang**2):
  XXX=             74.1962  YYY=              6.7968  ZZZ=            -18.7072  XYY=             -2.4833
  XXY=             20.4996  XXZ=             19.2496  XZZ=              5.3599  YZZ=            -17.4622
  YYZ=            -15.5526  XYZ=             28.2999
 Hexadecapole moment (field-independent basis, Debye-Ang**3):
 XXXX=          -6031.7414 YYYY=          -2837.9175 ZZZZ=          -2256.0114 XXXY=             52.7550
 XXXZ=            -20.1552 YYYX=              5.3624 YYYZ=            219.0103 ZZZX=           -183.1684
 ZZZY=            -55.4933 XXYY=          -1482.5022 XXZZ=          -1363.3026 YYZZ=           -925.2042
 XXYZ=             -5.6466 YYXZ=            129.3240 ZZXY=            -58.6708
 N-N= 2.832932584254D+03 E-N=-1.137846527266D+04  KE= 2.373154954131D+03
 1\1\GINC-GRA1255\FOpt\RB3LYP\Gen\H12O16Si4Zr1\SARASHS\14-Aug-2020\0\\#
 n B3LYP/Gen Pseudo=cards EmpiricalDispersion=GD3 Opt=modredundant\\Tit
 le\\0,1\Zr,0.6566236889,-0.1331725528,-0.0406754178\O,-0.2040391475,-1
 .0242860705,1.4592983856\O,0.0927949069,1.7355197421,0.0436679451\O,-0
 .2812197945,-0.8849003846,-1.6120557229\O,2.5921004902,-0.4319859758,-
 0.0920811054\Si,-1.8467204265,-1.2208199095,-1.974476377\Si,-1.1304048
 402,2.8174055029,0.1742741672\Si,-1.6960402726,-1.3232745991,2.0956445
 176\Si,4.2157764245,-0.2622022076,0.0215840875\O,4.9601715165,0.003535
 4741,-1.4277072629\O,4.8978984679,-1.6524555044,0.6123320959\O,4.44207
 72325,1.0640582864,0.9765632518\O,-2.2891241559,-2.7650306978,1.582054
 0765\O,-2.7091437834,-0.0747473454,1.6291904765\O,-1.5509139,-1.302804
 8509,3.7286241635\O,-2.035027832,-1.3350329972,-3.6085287027\O,-2.8378
 51544,-0.1286332534,-1.2325064865\O,-2.3450000081,-2.6557040678,-1.296
 0757087\O,-2.0691927323,2.5051423501,-1.1873610255\O,-0.6605874567,4.3
 901887351,0.0613656563\O,-1.9636262451,2.6344877999,1.5713748186\H,5.3
 291847402,1.4397201006,0.9966378913\H,5.3067072096,-0.7784674755,-1.87
 21100332\H,4.4660736006,-2.0730502842,1.364191668\H,-2.3847272665,-2.8
 845738283,0.6200523288\H,-2.3280735221,-1.546081586,4.2432343008\H,-3.
 0539648955,-0.1611363085,0.7195034299\H,-0.5450525831,4.8602649419,0.8
 950040527\H,-2.2603789624,1.7247009664,1.7833738662\H,-2.6847313794,3.
 207759407,-1.4310394808\H,-2.3050841706,-3.4333747107,-1.8641433566\H,
 -1.3129706225,-0.995906723,-4.1491779274\H,-2.6303227368,0.8247980266,
 -1.3579125723\\Version=ES64L-G16RevB.01\State=1-A\HF=-2416.9468558\RMS
 D=8.716e-09\RMSF=8.585e-06\Dipole=0.41162,-0.2366674,-0.9636731\Quadru
 pole=-1.9535325,1.4738816,0.4796509,-3.7617034,1.4785192,4.4329735\PG=
 C01 [X(H12O16Si4Zr1)]\\@


 Life may have no meaning.  Or even worse, it may have a
 meaning of which I disapprove.
                                 -- Ashleigh Brilliant
 Job cpu time:       0 days 16 hours 29 minutes 49.8 seconds.
 Elapsed time:       0 days  1 hours 16 minutes 26.2 seconds.
 File lengths (MBytes):  RWF=    167 Int=      0 D2E=      0 Chk=     21 Scr=      1
 Normal termination of Gaussian 16 at Fri Aug 14 04:28:20 2020.
