 Entering Gaussian System, Link 0=g16
 Initial command:
 /opt/software/gaussian/g16.b01/l1.exe "/localscratch/sarashs.37242650.0/Gau-258972.inp" -scrdir="/localscratch/sarashs.37242650.0/"
 Entering Link 1 = /opt/software/gaussian/g16.b01/l1.exe PID=    258973.
  
 Copyright (c) 1988-2017, Gaussian, Inc.  All Rights Reserved.
  
 This is part of the Gaussian(R) 16 program.  It is based on
 the Gaussian(R) 09 system (copyright 2009, Gaussian, Inc.),
 the Gaussian(R) 03 system (copyright 2003, Gaussian, Inc.),
 the Gaussian(R) 98 system (copyright 1998, Gaussian, Inc.),
 the Gaussian(R) 94 system (copyright 1995, Gaussian, Inc.),
 the Gaussian 92(TM) system (copyright 1992, Gaussian, Inc.),
 the Gaussian 90(TM) system (copyright 1990, Gaussian, Inc.),
 the Gaussian 88(TM) system (copyright 1988, Gaussian, Inc.),
 the Gaussian 86(TM) system (copyright 1986, Carnegie Mellon
 University), and the Gaussian 82(TM) system (copyright 1983,
 Carnegie Mellon University). Gaussian is a federally registered
 trademark of Gaussian, Inc.
  
 This software contains proprietary and confidential information,
 including trade secrets, belonging to Gaussian, Inc.
  
 This software is provided under written license and may be
 used, copied, transmitted, or stored only in accord with that
 written license.
  
 The following legend is applicable only to US Government
 contracts under FAR:
  
                    RESTRICTED RIGHTS LEGEND
  
 Use, reproduction and disclosure by the US Government is
 subject to restrictions as set forth in subparagraphs (a)
 and (c) of the Commercial Computer Software - Restricted
 Rights clause in FAR 52.227-19.
  
 Gaussian, Inc.
 340 Quinnipiac St., Bldg. 40, Wallingford CT 06492
  
  
 ---------------------------------------------------------------
 Warning -- This program may not be used in any manner that
 competes with the business of Gaussian, Inc. or will provide
 assistance to any competitor of Gaussian, Inc.  The licensee
 of this program is prohibited from giving any competitor of
 Gaussian, Inc. access to this program.  By using this program,
 the user acknowledges that Gaussian, Inc. is engaged in the
 business of creating and licensing software in the field of
 computational chemistry and represents and warrants to the
 licensee that it is not a competitor of Gaussian, Inc. and that
 it will not use this program in any manner prohibited above.
 ---------------------------------------------------------------
  

 Cite this work as:
 Gaussian 16, Revision B.01,
 M. J. Frisch, G. W. Trucks, H. B. Schlegel, G. E. Scuseria, 
 M. A. Robb, J. R. Cheeseman, G. Scalmani, V. Barone, 
 G. A. Petersson, H. Nakatsuji, X. Li, M. Caricato, A. V. Marenich, 
 J. Bloino, B. G. Janesko, R. Gomperts, B. Mennucci, H. P. Hratchian, 
 J. V. Ortiz, A. F. Izmaylov, J. L. Sonnenberg, D. Williams-Young, 
 F. Ding, F. Lipparini, F. Egidi, J. Goings, B. Peng, A. Petrone, 
 T. Henderson, D. Ranasinghe, V. G. Zakrzewski, J. Gao, N. Rega, 
 G. Zheng, W. Liang, M. Hada, M. Ehara, K. Toyota, R. Fukuda, 
 J. Hasegawa, M. Ishida, T. Nakajima, Y. Honda, O. Kitao, H. Nakai, 
 T. Vreven, K. Throssell, J. A. Montgomery, Jr., J. E. Peralta, 
 F. Ogliaro, M. J. Bearpark, J. J. Heyd, E. N. Brothers, K. N. Kudin, 
 V. N. Staroverov, T. A. Keith, R. Kobayashi, J. Normand, 
 K. Raghavachari, A. P. Rendell, J. C. Burant, S. S. Iyengar, 
 J. Tomasi, M. Cossi, J. M. Millam, M. Klene, C. Adamo, R. Cammi, 
 J. W. Ochterski, R. L. Martin, K. Morokuma, O. Farkas, 
 J. B. Foresman, and D. J. Fox, Gaussian, Inc., Wallingford CT, 2016.
 
 ******************************************
 Gaussian 16:  ES64L-G16RevB.01 20-Dec-2017
                14-Aug-2020 
 ******************************************
 %NProcShared=16
 Will use up to   16 processors via shared memory.
 ------------------------------------------------------------------
 #n B3LYP/Gen Pseudo=cards EmpiricalDispersion=GD3 Opt=modredundant
 ------------------------------------------------------------------
 1/18=120,19=15,26=3,38=1/1,3;
 2/9=110,12=2,17=6,18=5,40=1/2;
 3/5=7,11=2,16=1,17=8,25=1,30=1,71=1,74=-5,124=31/1,2,3;
 4//1;
 5/5=2,38=5/2;
 6/7=2,8=2,9=2,10=2,28=1/1;
 7//1,2,3,16;
 1/18=20,19=15,26=3/3(2);
 2/9=110/2;
 99//99;
 2/9=110/2;
 3/5=7,6=1,11=2,16=1,17=8,25=1,30=1,71=1,74=-5,82=7,124=31/1,2,3;
 4/5=5,16=3,69=1/1;
 5/5=2,38=5/2;
 7//1,2,3,16;
 1/18=20,19=15,26=3/3(-5);
 2/9=110/2;
 6/7=2,8=2,9=2,10=2,19=2,28=1/1;
 99/9=1/99;
 -----
 Title
 -----
 Symbolic Z-matrix:
 Charge =  0 Multiplicity = 1
 Zr                    0.65976  -0.11536  -0.12304 
 O                    -0.2416   -0.73676   1.48519 
 O                     0.11727   1.74606  -0.3631 
 O                    -0.25594  -1.10934  -1.56768 
 O                     2.59206  -0.4363   -0.08284 
 Si                   -1.81728  -1.48792  -1.90487 
 Si                   -1.09473   2.84534  -0.44319 
 Si                   -1.75049  -0.91206   2.12782 
 Si                    4.21631  -0.26105   0.01252 
 O                     4.95566  -0.09972  -1.45475 
 O                     4.89877  -1.60704   0.69775 
 O                     4.44778   1.12944   0.86985 
 O                    -2.35083  -2.41391   1.84822 
 O                    -2.73747   0.25014   1.43641 
 O                    -1.63997  -0.62074   3.73748 
 O                    -1.97226  -1.87194  -3.50088 
 O                    -2.81063  -0.2788   -1.37857 
 O                    -2.34708  -2.7852   -1.00832 
 O                    -2.00831   2.31822  -1.75483 
 O                    -0.60294   4.37289  -0.80632 
 O                    -1.95951   2.90584   0.94536 
 H                     5.33501   1.50516   0.85865 
 H                     5.3042   -0.91111  -1.84112 
 H                     4.46373  -1.97795   1.47352 
 H                    -2.42874  -2.69119   0.91767 
 H                    -2.43057  -0.7694    4.26743 
 H                    -3.0652    0.016     0.54665 
 H                    -0.49952   4.9748   -0.06047 
 H                    -2.27144   2.0467    1.29937 
 H                    -2.60897   2.97597  -2.12701 
 H                    -2.30696  -3.64676  -1.43861 
 H                    -1.23447  -1.63478  -4.07367 
 H                    -2.588     0.6385   -1.65579 
 
 The following ModRedundant input section has been read:
 A       1       5       9 F                                                   
 

 GradGradGradGradGradGradGradGradGradGradGradGradGradGradGradGradGradGrad
 Berny optimization.
 Initialization pass.
                           ----------------------------
                           !    Initial Parameters    !
                           ! (Angstroms and Degrees)  !
 --------------------------                            --------------------------
 ! Name  Definition              Value          Derivative Info.                !
 --------------------------------------------------------------------------------
 ! R1    R(1,2)                  1.9455         estimate D2E/DX2                !
 ! R2    R(1,3)                  1.9537         estimate D2E/DX2                !
 ! R3    R(1,4)                  1.9783         estimate D2E/DX2                !
 ! R4    R(1,5)                  1.9592         estimate D2E/DX2                !
 ! R5    R(2,8)                  1.6494         estimate D2E/DX2                !
 ! R6    R(3,7)                  1.6382         estimate D2E/DX2                !
 ! R7    R(4,6)                  1.6416         estimate D2E/DX2                !
 ! R8    R(5,9)                  1.6365         estimate D2E/DX2                !
 ! R9    R(6,16)                 1.6489         estimate D2E/DX2                !
 ! R10   R(6,17)                 1.651          estimate D2E/DX2                !
 ! R11   R(6,18)                 1.6636         estimate D2E/DX2                !
 ! R12   R(7,19)                 1.6831         estimate D2E/DX2                !
 ! R13   R(7,20)                 1.6453         estimate D2E/DX2                !
 ! R14   R(7,21)                 1.6369         estimate D2E/DX2                !
 ! R15   R(8,13)                 1.6414         estimate D2E/DX2                !
 ! R16   R(8,14)                 1.6742         estimate D2E/DX2                !
 ! R17   R(8,15)                 1.6395         estimate D2E/DX2                !
 ! R18   R(9,10)                 1.6509         estimate D2E/DX2                !
 ! R19   R(9,11)                 1.6574         estimate D2E/DX2                !
 ! R20   R(9,12)                 1.6499         estimate D2E/DX2                !
 ! R21   R(10,23)                0.9639         estimate D2E/DX2                !
 ! R22   R(11,24)                0.9637         estimate D2E/DX2                !
 ! R23   R(12,22)                0.9636         estimate D2E/DX2                !
 ! R24   R(13,25)                0.9741         estimate D2E/DX2                !
 ! R25   R(14,27)                0.9767         estimate D2E/DX2                !
 ! R26   R(15,26)                0.9633         estimate D2E/DX2                !
 ! R27   R(16,32)                0.9637         estimate D2E/DX2                !
 ! R28   R(17,33)                0.9838         estimate D2E/DX2                !
 ! R29   R(18,31)                0.9639         estimate D2E/DX2                !
 ! R30   R(19,30)                0.9654         estimate D2E/DX2                !
 ! R31   R(20,28)                0.964          estimate D2E/DX2                !
 ! R32   R(21,29)                0.9802         estimate D2E/DX2                !
 ! A1    A(2,1,3)              106.096          estimate D2E/DX2                !
 ! A2    A(2,1,4)              103.2218         estimate D2E/DX2                !
 ! A3    A(2,1,5)              112.8091         estimate D2E/DX2                !
 ! A4    A(3,1,4)              105.0976         estimate D2E/DX2                !
 ! A5    A(3,1,5)              115.6243         estimate D2E/DX2                !
 ! A6    A(4,1,5)              112.9052         estimate D2E/DX2                !
 ! A7    A(1,2,8)              141.248          estimate D2E/DX2                !
 ! A8    A(1,3,7)              148.2963         estimate D2E/DX2                !
 ! A9    A(1,4,6)              134.9209         estimate D2E/DX2                !
 ! A10   A(1,5,9)              164.2749         Frozen                          !
 ! A11   A(4,6,16)             109.9945         estimate D2E/DX2                !
 ! A12   A(4,6,17)             109.7482         estimate D2E/DX2                !
 ! A13   A(4,6,18)             111.842          estimate D2E/DX2                !
 ! A14   A(16,6,17)            114.9976         estimate D2E/DX2                !
 ! A15   A(16,6,18)            108.0656         estimate D2E/DX2                !
 ! A16   A(17,6,18)            101.9874         estimate D2E/DX2                !
 ! A17   A(3,7,19)             103.2687         estimate D2E/DX2                !
 ! A18   A(3,7,20)             114.3707         estimate D2E/DX2                !
 ! A19   A(3,7,21)             111.9732         estimate D2E/DX2                !
 ! A20   A(19,7,20)            106.3204         estimate D2E/DX2                !
 ! A21   A(19,7,21)            112.6975         estimate D2E/DX2                !
 ! A22   A(20,7,21)            108.1078         estimate D2E/DX2                !
 ! A23   A(2,8,13)             111.4369         estimate D2E/DX2                !
 ! A24   A(2,8,14)             107.7358         estimate D2E/DX2                !
 ! A25   A(2,8,15)             107.5758         estimate D2E/DX2                !
 ! A26   A(13,8,14)            110.4387         estimate D2E/DX2                !
 ! A27   A(13,8,15)            110.7612         estimate D2E/DX2                !
 ! A28   A(14,8,15)            108.7749         estimate D2E/DX2                !
 ! A29   A(5,9,10)             113.7768         estimate D2E/DX2                !
 ! A30   A(5,9,11)             110.2316         estimate D2E/DX2                !
 ! A31   A(5,9,12)             105.0573         estimate D2E/DX2                !
 ! A32   A(10,9,11)            105.2125         estimate D2E/DX2                !
 ! A33   A(10,9,12)            108.46           estimate D2E/DX2                !
 ! A34   A(11,9,12)            114.3199         estimate D2E/DX2                !
 ! A35   A(9,10,23)            115.8441         estimate D2E/DX2                !
 ! A36   A(9,11,24)            117.3556         estimate D2E/DX2                !
 ! A37   A(9,12,22)            116.857          estimate D2E/DX2                !
 ! A38   A(8,13,25)            116.9            estimate D2E/DX2                !
 ! A39   A(8,14,27)            114.0562         estimate D2E/DX2                !
 ! A40   A(8,15,26)            117.2167         estimate D2E/DX2                !
 ! A41   A(6,16,32)            116.4907         estimate D2E/DX2                !
 ! A42   A(6,17,33)            117.186          estimate D2E/DX2                !
 ! A43   A(6,18,31)            116.3083         estimate D2E/DX2                !
 ! A44   A(7,19,30)            115.137          estimate D2E/DX2                !
 ! A45   A(7,20,28)            116.1677         estimate D2E/DX2                !
 ! A46   A(7,21,29)            116.2375         estimate D2E/DX2                !
 ! D1    D(3,1,2,8)             57.7299         estimate D2E/DX2                !
 ! D2    D(4,1,2,8)            -52.5295         estimate D2E/DX2                !
 ! D3    D(5,1,2,8)           -174.706          estimate D2E/DX2                !
 ! D4    D(2,1,3,7)            -50.0975         estimate D2E/DX2                !
 ! D5    D(4,1,3,7)             58.8323         estimate D2E/DX2                !
 ! D6    D(5,1,3,7)           -175.9637         estimate D2E/DX2                !
 ! D7    D(2,1,4,6)             42.7684         estimate D2E/DX2                !
 ! D8    D(3,1,4,6)            -68.2312         estimate D2E/DX2                !
 ! D9    D(5,1,4,6)            164.8804         estimate D2E/DX2                !
 ! D10   D(2,1,5,9)           -106.9249         estimate D2E/DX2                !
 ! D11   D(3,1,5,9)             15.4384         estimate D2E/DX2                !
 ! D12   D(4,1,5,9)            136.5203         estimate D2E/DX2                !
 ! D13   D(1,2,8,13)            93.5296         estimate D2E/DX2                !
 ! D14   D(1,2,8,14)           -27.7662         estimate D2E/DX2                !
 ! D15   D(1,2,8,15)          -144.8804         estimate D2E/DX2                !
 ! D16   D(1,3,7,19)           -61.1017         estimate D2E/DX2                !
 ! D17   D(1,3,7,20)          -176.1754         estimate D2E/DX2                !
 ! D18   D(1,3,7,21)            60.4085         estimate D2E/DX2                !
 ! D19   D(1,4,6,16)           160.1672         estimate D2E/DX2                !
 ! D20   D(1,4,6,17)            32.6925         estimate D2E/DX2                !
 ! D21   D(1,4,6,18)           -79.7427         estimate D2E/DX2                !
 ! D22   D(1,5,9,10)           -94.4783         estimate D2E/DX2                !
 ! D23   D(1,5,9,11)           147.6194         estimate D2E/DX2                !
 ! D24   D(1,5,9,12)            24.0006         estimate D2E/DX2                !
 ! D25   D(4,6,16,32)          -14.2001         estimate D2E/DX2                !
 ! D26   D(17,6,16,32)         110.2978         estimate D2E/DX2                !
 ! D27   D(18,6,16,32)        -136.5526         estimate D2E/DX2                !
 ! D28   D(4,6,17,33)           51.0101         estimate D2E/DX2                !
 ! D29   D(16,6,17,33)         -73.617          estimate D2E/DX2                !
 ! D30   D(18,6,17,33)         169.7173         estimate D2E/DX2                !
 ! D31   D(4,6,18,31)          -96.4419         estimate D2E/DX2                !
 ! D32   D(16,6,18,31)          24.7709         estimate D2E/DX2                !
 ! D33   D(17,6,18,31)         146.349          estimate D2E/DX2                !
 ! D34   D(3,7,19,30)         -162.1836         estimate D2E/DX2                !
 ! D35   D(20,7,19,30)         -41.4661         estimate D2E/DX2                !
 ! D36   D(21,7,19,30)          76.7963         estimate D2E/DX2                !
 ! D37   D(3,7,20,28)          -98.427          estimate D2E/DX2                !
 ! D38   D(19,7,20,28)         148.295          estimate D2E/DX2                !
 ! D39   D(21,7,20,28)          27.0455         estimate D2E/DX2                !
 ! D40   D(3,7,21,29)          -49.8996         estimate D2E/DX2                !
 ! D41   D(19,7,21,29)          66.0151         estimate D2E/DX2                !
 ! D42   D(20,7,21,29)        -176.7757         estimate D2E/DX2                !
 ! D43   D(2,8,13,25)          -58.4673         estimate D2E/DX2                !
 ! D44   D(14,8,13,25)          61.2406         estimate D2E/DX2                !
 ! D45   D(15,8,13,25)        -178.1887         estimate D2E/DX2                !
 ! D46   D(2,8,14,27)           80.2916         estimate D2E/DX2                !
 ! D47   D(13,8,14,27)         -41.6249         estimate D2E/DX2                !
 ! D48   D(15,8,14,27)        -163.3762         estimate D2E/DX2                !
 ! D49   D(2,8,15,26)         -174.1992         estimate D2E/DX2                !
 ! D50   D(13,8,15,26)         -52.1887         estimate D2E/DX2                !
 ! D51   D(14,8,15,26)          69.3659         estimate D2E/DX2                !
 ! D52   D(5,9,10,23)          -94.8502         estimate D2E/DX2                !
 ! D53   D(11,9,10,23)          25.9079         estimate D2E/DX2                !
 ! D54   D(12,9,10,23)         148.64           estimate D2E/DX2                !
 ! D55   D(5,9,11,24)          -43.8205         estimate D2E/DX2                !
 ! D56   D(10,9,11,24)        -166.8799         estimate D2E/DX2                !
 ! D57   D(12,9,11,24)          74.2393         estimate D2E/DX2                !
 ! D58   D(5,9,12,22)         -166.4771         estimate D2E/DX2                !
 ! D59   D(10,9,12,22)         -44.4742         estimate D2E/DX2                !
 ! D60   D(11,9,12,22)          72.5545         estimate D2E/DX2                !
 --------------------------------------------------------------------------------
 Trust Radius=3.00D-01 FncErr=1.00D-07 GrdErr=1.00D-06 EigMax=2.50D+02 EigMin=1.00D-04
 Number of steps in this run=    148 maximum allowed number of steps=    198.
 GradGradGradGradGradGradGradGradGradGradGradGradGradGradGradGradGradGrad

                          Input orientation:                          
 ---------------------------------------------------------------------
 Center     Atomic      Atomic             Coordinates (Angstroms)
 Number     Number       Type             X           Y           Z
 ---------------------------------------------------------------------
      1         40           0        0.659760   -0.115360   -0.123040
      2          8           0       -0.241600   -0.736760    1.485190
      3          8           0        0.117270    1.746060   -0.363100
      4          8           0       -0.255940   -1.109340   -1.567680
      5          8           0        2.592060   -0.436300   -0.082840
      6         14           0       -1.817280   -1.487920   -1.904870
      7         14           0       -1.094730    2.845340   -0.443190
      8         14           0       -1.750490   -0.912060    2.127820
      9         14           0        4.216310   -0.261050    0.012520
     10          8           0        4.955660   -0.099720   -1.454750
     11          8           0        4.898770   -1.607040    0.697750
     12          8           0        4.447780    1.129440    0.869850
     13          8           0       -2.350830   -2.413910    1.848220
     14          8           0       -2.737470    0.250140    1.436410
     15          8           0       -1.639970   -0.620740    3.737480
     16          8           0       -1.972260   -1.871940   -3.500880
     17          8           0       -2.810630   -0.278800   -1.378570
     18          8           0       -2.347080   -2.785200   -1.008320
     19          8           0       -2.008310    2.318220   -1.754830
     20          8           0       -0.602940    4.372890   -0.806320
     21          8           0       -1.959510    2.905840    0.945360
     22          1           0        5.335010    1.505160    0.858650
     23          1           0        5.304200   -0.911110   -1.841120
     24          1           0        4.463730   -1.977950    1.473520
     25          1           0       -2.428740   -2.691190    0.917670
     26          1           0       -2.430570   -0.769400    4.267430
     27          1           0       -3.065200    0.016000    0.546650
     28          1           0       -0.499520    4.974800   -0.060470
     29          1           0       -2.271440    2.046700    1.299370
     30          1           0       -2.608970    2.975970   -2.127010
     31          1           0       -2.306960   -3.646760   -1.438610
     32          1           0       -1.234470   -1.634780   -4.073670
     33          1           0       -2.588000    0.638500   -1.655790
 ---------------------------------------------------------------------
                    Distance matrix (angstroms):
                    1          2          3          4          5
     1  Zr   0.000000
     2  O    1.945505   0.000000
     3  O    1.953665   3.115984   0.000000
     4  O    1.978254   3.075555   3.121475   0.000000
     5  O    1.959184   3.252480   3.311469   3.281591   0.000000
     6  Si   3.345828   3.813072   4.071629   1.641585   4.885486
     7  Si   3.456367   4.156672   1.638223   4.196134   4.948882
     8  Si   3.392699   1.649379   4.093753   3.991155   4.896030
     9  Si   3.562113   4.718900   4.579488   4.818469   1.636458
    10  O    4.497605   6.005046   5.292317   5.309695   2.753548
    11  O    4.568152   5.272651   5.935607   5.652514   2.702011
    12  O    4.109070   5.084450   4.544635   5.751406   2.608229
    13  O    4.269994   2.719094   5.318534   4.214124   5.663223
    14  O    3.755882   2.684347   3.691281   4.126831   5.584193
    15  O    4.521922   2.653622   5.050187   5.504452   5.704291
    16  O    4.628488   5.398584   5.225105   2.695288   5.880228
    17  O    3.694141   3.874373   3.701869   2.692954   5.558128
    18  O    4.117384   3.853147   5.198235   2.737564   5.546977
    19  O    3.962783   4.790814   2.604298   3.854088   5.616612
    20  O    4.712289   5.611605   2.759598   5.545712   5.818914
    21  O    4.138805   4.063393   2.714806   5.033805   5.739676
    22  H    5.044578   6.042958   5.364282   6.631848   3.489906
    23  H    5.015560   6.469207   6.012432   5.570388   3.266909
    24  H    4.526415   4.866294   6.011085   5.681432   2.881335
    25  H    4.154132   2.987550   5.273682   3.660638   5.594102
    26  H    5.408709   3.540270   5.853276   6.236432   6.653016
    27  H    3.786960   3.069238   3.734818   3.691710   5.710116
    28  H    5.220879   5.922627   3.301027   6.272780   6.232044
    29  H    3.910203   3.449990   2.925769   4.716228   5.632888
    30  H    4.925121   5.695331   3.472239   4.747563   6.547742
    31  H    4.796138   4.613287   6.009669   3.265248   6.012118
    32  H    4.637264   5.717793   5.198616   2.741094   5.657332
    33  H    3.669547   4.154839   3.196283   2.915684   5.519274
                    6          7          8          9         10
     6  Si   0.000000
     7  Si   4.629874   0.000000
     8  Si   4.074146   4.599801   0.000000
     9  Si   6.448706   6.169642   6.364040   0.000000
    10  O    6.928378   6.804693   7.646382   1.650923   0.000000
    11  O    7.203690   7.552978   6.836721   1.657402   2.628404
    12  O    7.334891   5.948765   6.645958   1.649865   2.678160
    13  O    3.902284   5.872653   1.641383   7.150659   8.345651
    14  O    3.877081   3.600910   1.674182   7.116448   8.225902
    15  O    5.711353   5.457930   1.639539   6.949872   8.410294
    16  O    1.648860   5.689662   5.714264   7.296393   7.437976
    17  O    1.650972   3.685037   3.717484   7.163332   7.768728
    18  O    1.663558   5.795751   3.701344   7.105740   7.793659
    19  O    3.813883   1.683117   5.057287   6.965777   7.377897
    20  O    6.085271   1.645336   6.152784   6.735657   7.163989
    21  O    5.239195   1.636941   4.002282   7.002866   7.912869
    22  H    8.231089   6.695702   7.593290   2.255421   2.841015
    23  H    7.145086   7.550591   8.094513   2.245454   0.963906
    24  H    7.148758   7.604892   6.338830   2.267925   3.513475
    25  H    3.128654   5.855313   2.256056   7.133132   8.177619
    26  H    6.244172   6.086112   2.249620   7.908457   9.367401
    27  H    3.135128   3.587158   2.256071   7.306329   8.267599
    28  H    6.848726   2.243958   6.403800   7.046879   7.579826
    29  H    4.792385   2.249219   3.116405   7.005183   8.026411
    30  H    4.538990   2.268311   5.827293   7.851136   8.193621
    31  H    2.262250   6.678901   4.528539   7.491453   8.082537
    32  H    2.250540   5.768136   6.264749   6.949467   6.894408
    33  H    2.275459   2.927524   4.173891   7.063362   7.582361
                   11         12         13         14         15
    11  O    0.000000
    12  O    2.778729   0.000000
    13  O    7.384533   7.728754   0.000000
    14  O    7.893472   7.260990   2.723278   0.000000
    15  O    7.277903   6.953210   2.700016   2.694042   0.000000
    16  O    8.056657   8.326372   5.389798   5.428223   7.353215
    17  O    8.093836   7.728069   3.896445   2.865178   5.259404
    18  O    7.536649   8.063625   2.880571   3.916937   5.263792
    19  O    8.314479   7.069883   5.957545   3.872033   6.240082
    20  O    8.263813   6.232117   7.494155   5.155882   6.830658
    21  O    8.213611   6.649411   5.409993   2.810533   4.509413
    22  H    3.146742   0.963570   8.683922   8.189861   7.839481
    23  H    2.663560   3.499523   8.629549   8.761231   8.912160
    24  H    0.963666   3.165524   6.838764   7.538106   6.650014
    25  H    7.410543   7.866767   0.974103   3.002637   3.586119
    26  H    8.195333   7.903217   2.926320   3.024620   0.963325
    27  H    8.129078   7.601913   2.847608   0.976679   3.552199
    28  H    8.546172   6.334672   7.852610   5.437967   6.858215
    29  H    8.069924   6.795128   4.494951   1.861073   3.668565
    30  H    9.238474   7.885973   6.702231   4.488276   6.947483
    31  H    7.787621   8.588806   3.510711   4.861780   6.032709
    32  H    7.770705   8.022921   6.076355   6.014392   7.887127
    33  H    8.162924   7.491467   4.653122   3.120075   5.618880
                   16         17         18         19         20
    16  O    0.000000
    17  O    2.783013   0.000000
    18  O    2.680931   2.575656   0.000000
    19  O    4.539541   2.744048   5.168843   0.000000
    20  O    6.937838   5.180693   7.370284   2.663908   0.000000
    21  O    6.526591   4.033235   6.029512   2.763821   2.657236
    22  H    9.154589   8.633604   8.994847   7.836817   6.801121
    23  H    7.524950   8.152560   7.921354   7.994299   7.992857
    24  H    8.134978   7.996114   7.293718   8.412290   8.438127
    25  H    4.516982   3.352340   1.930011   5.693260   7.497127
    26  H    7.859535   5.680004   5.648359   6.780805   7.451598
    27  H    4.597971   1.964226   3.283344   3.422579   5.184182
    28  H    7.802771   5.888882   8.033025   3.493525   0.963994
    29  H    6.203841   3.587484   5.355223   3.077515   3.553728
    30  H    5.078893   3.345797   5.874618   0.965373   2.778446
    31  H    2.741344   3.405942   0.963870   5.980817   8.223032
    32  H    0.963674   3.403899   3.457996   4.647801   6.867787
    33  H    3.175815   0.983796   3.492704   1.779693   4.313668
                   21         22         23         24         25
    21  O    0.000000
    22  H    7.428287   0.000000
    23  H    8.665741   3.623268   0.000000
    24  H    8.086308   3.642698   3.582091   0.000000
    25  H    5.616733   8.825455   8.401069   6.951534   0.000000
    26  H    4.976488   8.780526   9.857035   7.536438   3.861887
    27  H    3.119727   8.536889   8.752590   7.843450   2.805640
    28  H    2.724676   6.850177   8.455638   8.679154   7.965303
    29  H    0.980176   7.638428   8.717892   7.847971   4.755843
    30  H    3.141047   8.613029   8.820963   9.355652   6.435780
    31  H    6.981447   9.498389   8.097873   7.556962   2.545584
    32  H    6.806877   8.794605   6.947099   7.959809   5.239824
    33  H    3.507394   8.357487   8.045027   8.146489   4.211282
                   26         27         28         29         30
    26  H    0.000000
    27  H    3.855361   0.000000
    28  H    7.446845   5.616138   0.000000
    29  H    4.094523   2.306596   3.682748   0.000000
    30  H    7.412725   4.014726   3.565906   3.566167   0.000000
    31  H    6.391664   4.234619   8.916132   6.317696   6.665257
    32  H    8.470743   5.236793   7.767398   6.595314   5.190159
    33  H    6.090279   2.337941   5.070532   3.288800   2.384587
                   31         32         33
    31  H    0.000000
    32  H    3.484514   0.000000
    33  H    4.299954   3.584130   0.000000
 Stoichiometry    H12O16Si4Zr
 Framework group  C1[X(H12O16Si4Zr)]
 Deg. of freedom    93
 Full point group                 C1      NOp   1
 Largest Abelian subgroup         C1      NOp   1
 Largest concise Abelian subgroup C1      NOp   1
                         Standard orientation:                         
 ---------------------------------------------------------------------
 Center     Atomic      Atomic             Coordinates (Angstroms)
 Number     Number       Type             X           Y           Z
 ---------------------------------------------------------------------
      1         40           0        0.657757   -0.125373   -0.070850
      2          8           0       -0.223672   -0.902806    1.479528
      3          8           0        0.103564    1.747211   -0.126612
      4          8           0       -0.268031   -0.982314   -1.594679
      5          8           0        2.591940   -0.437211   -0.080656
      6         14           0       -1.830909   -1.336234   -1.950989
      7         14           0       -1.114645    2.841903   -0.089305
      8         14           0       -1.724883   -1.147608    2.117407
      9         14           0        4.216207   -0.262229    0.014895
     10          8           0        4.939391    0.042826   -1.437515
     11          8           0        4.912452   -1.663414    0.561616
     12          8           0        4.449714    1.041413    0.998790
     13          8           0       -2.320651   -2.619442    1.701592
     14          8           0       -2.724780    0.069413    1.549998
     15          8           0       -1.599012   -1.010637    3.746359
     16          8           0       -2.000634   -1.567046   -3.574767
     17          8           0       -2.824697   -0.188798   -1.301771
     18          8           0       -2.344879   -2.716301   -1.177248
     19          8           0       -2.039241    2.436997   -1.436174
     20          8           0       -0.634256    4.400035   -0.309718
     21          8           0       -1.965172    2.764432    1.307182
     22          1           0        5.334904    1.421745    1.014732
     23          1           0        5.287899   -0.725889   -1.903062
     24          1           0        4.487379   -2.109266    1.302685
     25          1           0       -2.406895   -2.807076    0.749630
     26          1           0       -2.383290   -1.213901    4.267499
     27          1           0       -3.060615   -0.080656    0.645235
     28          1           0       -0.526043    4.928595    0.489155
     29          1           0       -2.269124    1.873584    1.580582
     30          1           0       -2.647009    3.123697   -1.737847
     31          1           0       -2.304980   -3.532594   -1.688246
     32          1           0       -1.270049   -1.271912   -4.129573
     33          1           0       -2.609526    0.752083   -1.492295
 ---------------------------------------------------------------------
 Rotational constants (GHZ):           0.2123966           0.1338333           0.1240794
 General basis read from cards:  (5D, 7F)
 ======================================================================================================
                                       Pseudopotential Parameters
 ======================================================================================================
  Center     Atomic      Valence      Angular      Power
  Number     Number     Electrons     Momentum     of R      Exponent        Coefficient   SO-Coeffient
 ======================================================================================================
    1         40           12
                                      G and up 
                                                     2        1.0000000        0.00000000    0.00000000
                                      S - G
                                                     2        8.6365280      150.24299400    0.00000000
                                                     2        3.7176390       18.78003600    0.00000000
                                      P - G
                                                     2        7.6267280       33.19279100    0.00000000
                                                     2        7.4532070       66.38903900    0.00000000
                                                     2        3.3583890        4.62072600    0.00000000
                                                     2        3.2297380        9.26027000    0.00000000
                                      D - G
                                                     2        5.9380860       13.99338300    0.00000000
                                                     2        5.8255440       20.99588200    0.00000000
                                                     2        2.2050190        2.28516600    0.00000000
                                                     2        2.2062920        3.44126000    0.00000000
                                      F - G
                                                     2        4.8002150       -5.23932000    0.00000000
                                                     2        4.7989920       -6.98742400    0.00000000
    2          8
                                   No pseudopotential on this center.
    3          8
                                   No pseudopotential on this center.
    4          8
                                   No pseudopotential on this center.
    5          8
                                   No pseudopotential on this center.
    6         14
                                   No pseudopotential on this center.
    7         14
                                   No pseudopotential on this center.
    8         14
                                   No pseudopotential on this center.
    9         14
                                   No pseudopotential on this center.
   10          8
                                   No pseudopotential on this center.
   11          8
                                   No pseudopotential on this center.
   12          8
                                   No pseudopotential on this center.
   13          8
                                   No pseudopotential on this center.
   14          8
                                   No pseudopotential on this center.
   15          8
                                   No pseudopotential on this center.
   16          8
                                   No pseudopotential on this center.
   17          8
                                   No pseudopotential on this center.
   18          8
                                   No pseudopotential on this center.
   19          8
                                   No pseudopotential on this center.
   20          8
                                   No pseudopotential on this center.
   21          8
                                   No pseudopotential on this center.
   22          1
                                   No pseudopotential on this center.
   23          1
                                   No pseudopotential on this center.
   24          1
                                   No pseudopotential on this center.
   25          1
                                   No pseudopotential on this center.
   26          1
                                   No pseudopotential on this center.
   27          1
                                   No pseudopotential on this center.
   28          1
                                   No pseudopotential on this center.
   29          1
                                   No pseudopotential on this center.
   30          1
                                   No pseudopotential on this center.
   31          1
                                   No pseudopotential on this center.
   32          1
                                   No pseudopotential on this center.
   33          1
                                   No pseudopotential on this center.
 ======================================================================================================
 There are   570 symmetry adapted cartesian basis functions of A   symmetry.
 There are   524 symmetry adapted basis functions of A   symmetry.
   524 basis functions,  1074 primitive gaussians,   570 cartesian basis functions
   104 alpha electrons      104 beta electrons
       nuclear repulsion energy      2832.8155169284 Hartrees.
 NAtoms=   33 NActive=   33 NUniq=   33 SFac= 1.00D+00 NAtFMM=   60 NAOKFM=F Big=F
 Integral buffers will be    131072 words long.
 Raffenetti 2 integral format.
 Two-electron integral symmetry is turned on.
 Nuclear repulsion after empirical dispersion term =     2832.7747215933 Hartrees.
 One-electron integrals computed using PRISM.
 PrsmSu:  requested number of processors reduced to:   4 ShMem   1 Linda.
   1 Symmetry operations used in ECPInt.
 ECPInt:  NShTT=   13203 NPrTT=   78401 LenC2=   11522 LenP2D=   44633.
 LDataN:  DoStor=T MaxTD1= 8 Len=  415
 Number of processors reduced to  13 by ecpmxn.
 NBasis=   524 RedAO= T EigKep=  3.18D-05  NBF=   524
 NBsUse=   524 1.00D-06 EigRej= -1.00D+00 NBFU=   524
 Defaulting to unpruned grid for atomic number  40.
 ExpMin= 1.01D-02 ExpMax= 1.61D+04 ExpMxC= 2.43D+03 IAcc=3 IRadAn=         5 AccDes= 0.00D+00
 Harris functional with IExCor=  402 and IRadAn=       5 diagonalized for initial guess.
 HarFok:  IExCor=  402 AccDes= 0.00D+00 IRadAn=         5 IDoV= 1 UseB2=F ITyADJ=14
 ICtDFT=  3500011 ScaDFX=  1.000000  1.000000  1.000000  1.000000
 Defaulting to unpruned grid for atomic number  40.
 FoFCou: FMM=F IPFlag=           0 FMFlag=      100000 FMFlg1=           0
         NFxFlg=           0 DoJE=T BraDBF=F KetDBF=T FulRan=T
         wScrn=  0.000000 ICntrl=       500 IOpCl=  0 I1Cent=   200000004 NGrid=           0
         NMat0=    1 NMatS0=      1 NMatT0=    0 NMatD0=    1 NMtDS0=    0 NMtDT0=    0
 Petite list used in FoFCou.
 Requested convergence on RMS density matrix=1.00D-08 within 128 cycles.
 Requested convergence on MAX density matrix=1.00D-06.
 Requested convergence on             energy=1.00D-06.
 No special actions if energy rises.
 Defaulting to unpruned grid for atomic number  40.
 Defaulting to unpruned grid for atomic number  40.
 Defaulting to unpruned grid for atomic number  40.
 Defaulting to unpruned grid for atomic number  40.
 Defaulting to unpruned grid for atomic number  40.
 Defaulting to unpruned grid for atomic number  40.
 Defaulting to unpruned grid for atomic number  40.
 Defaulting to unpruned grid for atomic number  40.
 Defaulting to unpruned grid for atomic number  40.
 Defaulting to unpruned grid for atomic number  40.
 Defaulting to unpruned grid for atomic number  40.
 Defaulting to unpruned grid for atomic number  40.
 Defaulting to unpruned grid for atomic number  40.
 Defaulting to unpruned grid for atomic number  40.
 Defaulting to unpruned grid for atomic number  40.
 Defaulting to unpruned grid for atomic number  40.
 SCF Done:  E(RB3LYP) =  -2416.94684460     A.U. after   14 cycles
            NFock= 14  Conv=0.25D-08     -V/T= 2.0185

 **********************************************************************

            Population analysis using the SCF Density.

 **********************************************************************

 Orbital symmetries:
       Occupied  (A) (A) (A) (A) (A) (A) (A) (A) (A) (A) (A) (A)
                 (A) (A) (A) (A) (A) (A) (A) (A) (A) (A) (A) (A)
                 (A) (A) (A) (A) (A) (A) (A) (A) (A) (A) (A) (A)
                 (A) (A) (A) (A) (A) (A) (A) (A) (A) (A) (A) (A)
                 (A) (A) (A) (A) (A) (A) (A) (A) (A) (A) (A) (A)
                 (A) (A) (A) (A) (A) (A) (A) (A) (A) (A) (A) (A)
                 (A) (A) (A) (A) (A) (A) (A) (A) (A) (A) (A) (A)
                 (A) (A) (A) (A) (A) (A) (A) (A) (A) (A) (A) (A)
                 (A) (A) (A) (A) (A) (A) (A) (A)
       Virtual   (A) (A) (A) (A) (A) (A) (A) (A) (A) (A) (A) (A)
                 (A) (A) (A) (A) (A) (A) (A) (A) (A) (A) (A) (A)
                 (A) (A) (A) (A) (A) (A) (A) (A) (A) (A) (A) (A)
                 (A) (A) (A) (A) (A) (A) (A) (A) (A) (A) (A) (A)
                 (A) (A) (A) (A) (A) (A) (A) (A) (A) (A) (A) (A)
                 (A) (A) (A) (A) (A) (A) (A) (A) (A) (A) (A) (A)
                 (A) (A) (A) (A) (A) (A) (A) (A) (A) (A) (A) (A)
                 (A) (A) (A) (A) (A) (A) (A) (A) (A) (A) (A) (A)
                 (A) (A) (A) (A) (A) (A) (A) (A) (A) (A) (A) (A)
                 (A) (A) (A) (A) (A) (A) (A) (A) (A) (A) (A) (A)
                 (A) (A) (A) (A) (A) (A) (A) (A) (A) (A) (A) (A)
                 (A) (A) (A) (A) (A) (A) (A) (A) (A) (A) (A) (A)
                 (A) (A) (A) (A) (A) (A) (A) (A) (A) (A) (A) (A)
                 (A) (A) (A) (A) (A) (A) (A) (A) (A) (A) (A) (A)
                 (A) (A) (A) (A) (A) (A) (A) (A) (A) (A) (A) (A)
                 (A) (A) (A) (A) (A) (A) (A) (A) (A) (A) (A) (A)
                 (A) (A) (A) (A) (A) (A) (A) (A) (A) (A) (A) (A)
                 (A) (A) (A) (A) (A) (A) (A) (A) (A) (A) (A) (A)
                 (A) (A) (A) (A) (A) (A) (A) (A) (A) (A) (A) (A)
                 (A) (A) (A) (A) (A) (A) (A) (A) (A) (A) (A) (A)
                 (A) (A) (A) (A) (A) (A) (A) (A) (A) (A) (A) (A)
                 (A) (A) (A) (A) (A) (A) (A) (A) (A) (A) (A) (A)
                 (A) (A) (A) (A) (A) (A) (A) (A) (A) (A) (A) (A)
                 (A) (A) (A) (A) (A) (A) (A) (A) (A) (A) (A) (A)
                 (A) (A) (A) (A) (A) (A) (A) (A) (A) (A) (A) (A)
                 (A) (A) (A) (A) (A) (A) (A) (A) (A) (A) (A) (A)
                 (A) (A) (A) (A) (A) (A) (A) (A) (A) (A) (A) (A)
                 (A) (A) (A) (A) (A) (A) (A) (A) (A) (A) (A) (A)
                 (A) (A) (A) (A) (A) (A) (A) (A) (A) (A) (A) (A)
                 (A) (A) (A) (A) (A) (A) (A) (A) (A) (A) (A) (A)
                 (A) (A) (A) (A) (A) (A) (A) (A) (A) (A) (A) (A)
                 (A) (A) (A) (A) (A) (A) (A) (A) (A) (A) (A) (A)
                 (A) (A) (A) (A) (A) (A) (A) (A) (A) (A) (A) (A)
                 (A) (A) (A) (A) (A) (A) (A) (A) (A) (A) (A) (A)
                 (A) (A) (A) (A) (A) (A) (A) (A) (A) (A) (A) (A)
 The electronic state is 1-A.
 Alpha  occ. eigenvalues --  -66.22811 -66.21755 -66.21493 -66.21023 -19.18595
 Alpha  occ. eigenvalues --  -19.18353 -19.17797 -19.17029 -19.16735 -19.16545
 Alpha  occ. eigenvalues --  -19.16449 -19.16214 -19.16175 -19.16017 -19.15976
 Alpha  occ. eigenvalues --  -19.15504 -19.15332 -19.15237 -19.14891 -19.14699
 Alpha  occ. eigenvalues --   -5.36871  -5.35836  -5.35568  -5.35083  -3.72855
 Alpha  occ. eigenvalues --   -3.72828  -3.72781  -3.71828  -3.71780  -3.71745
 Alpha  occ. eigenvalues --   -3.71537  -3.71528  -3.71489  -3.71048  -3.71039
 Alpha  occ. eigenvalues --   -3.71014  -2.13361  -1.29604  -1.29520  -1.29362
 Alpha  occ. eigenvalues --   -1.05686  -1.04777  -1.04156  -1.03484  -1.02572
 Alpha  occ. eigenvalues --   -1.02172  -1.01472  -1.00920  -1.00769  -1.00653
 Alpha  occ. eigenvalues --   -0.99824  -0.99298  -0.97372  -0.96285  -0.95723
 Alpha  occ. eigenvalues --   -0.95392  -0.60996  -0.59160  -0.58977  -0.58475
 Alpha  occ. eigenvalues --   -0.55548  -0.54533  -0.53870  -0.53037  -0.52993
 Alpha  occ. eigenvalues --   -0.52485  -0.52135  -0.51709  -0.48784  -0.47603
 Alpha  occ. eigenvalues --   -0.47203  -0.46705  -0.43377  -0.42645  -0.41865
 Alpha  occ. eigenvalues --   -0.41399  -0.41107  -0.40529  -0.39837  -0.39318
 Alpha  occ. eigenvalues --   -0.38816  -0.38686  -0.38646  -0.38140  -0.38009
 Alpha  occ. eigenvalues --   -0.37621  -0.37496  -0.37167  -0.36517  -0.36419
 Alpha  occ. eigenvalues --   -0.36106  -0.35645  -0.35450  -0.35081  -0.34910
 Alpha  occ. eigenvalues --   -0.34605  -0.33988  -0.33698  -0.33461  -0.33276
 Alpha  occ. eigenvalues --   -0.32798  -0.32180  -0.32049  -0.31295
 Alpha virt. eigenvalues --   -0.04332  -0.03153  -0.03031  -0.02757  -0.02096
 Alpha virt. eigenvalues --   -0.01169  -0.00561  -0.00150   0.00137   0.00293
 Alpha virt. eigenvalues --    0.00761   0.00941   0.01023   0.01949   0.02343
 Alpha virt. eigenvalues --    0.03212   0.03342   0.03842   0.03925   0.04075
 Alpha virt. eigenvalues --    0.04152   0.04785   0.05585   0.05836   0.06157
 Alpha virt. eigenvalues --    0.06483   0.07109   0.07428   0.07719   0.08660
 Alpha virt. eigenvalues --    0.08787   0.09022   0.09187   0.09683   0.09982
 Alpha virt. eigenvalues --    0.10407   0.10633   0.10834   0.11189   0.11701
 Alpha virt. eigenvalues --    0.11834   0.12542   0.13274   0.13331   0.13764
 Alpha virt. eigenvalues --    0.14051   0.14351   0.14872   0.15150   0.15343
 Alpha virt. eigenvalues --    0.15406   0.15752   0.16173   0.16711   0.16922
 Alpha virt. eigenvalues --    0.17405   0.17501   0.17668   0.18090   0.18322
 Alpha virt. eigenvalues --    0.18515   0.18771   0.19199   0.19632   0.19743
 Alpha virt. eigenvalues --    0.20095   0.20397   0.20653   0.21043   0.21202
 Alpha virt. eigenvalues --    0.21739   0.21856   0.22257   0.22503   0.22812
 Alpha virt. eigenvalues --    0.23384   0.23799   0.24019   0.24195   0.24476
 Alpha virt. eigenvalues --    0.24979   0.25142   0.25523   0.25800   0.26157
 Alpha virt. eigenvalues --    0.26502   0.26708   0.26891   0.27277   0.27369
 Alpha virt. eigenvalues --    0.27948   0.28196   0.28476   0.28880   0.29029
 Alpha virt. eigenvalues --    0.29476   0.29651   0.29963   0.30451   0.30602
 Alpha virt. eigenvalues --    0.30857   0.31329   0.31443   0.31541   0.32214
 Alpha virt. eigenvalues --    0.32377   0.32828   0.33108   0.33550   0.34033
 Alpha virt. eigenvalues --    0.34390   0.34681   0.35321   0.35763   0.36279
 Alpha virt. eigenvalues --    0.36978   0.37609   0.38000   0.38390   0.38875
 Alpha virt. eigenvalues --    0.39246   0.39898   0.40046   0.41174   0.41630
 Alpha virt. eigenvalues --    0.42450   0.43211   0.43879   0.44407   0.44911
 Alpha virt. eigenvalues --    0.45228   0.45778   0.45990   0.46732   0.47490
 Alpha virt. eigenvalues --    0.47821   0.48415   0.48969   0.49387   0.49605
 Alpha virt. eigenvalues --    0.49962   0.50702   0.51085   0.51360   0.53180
 Alpha virt. eigenvalues --    0.54094   0.54482   0.55172   0.56901   0.57300
 Alpha virt. eigenvalues --    0.58270   0.58788   0.59193   0.59501   0.60325
 Alpha virt. eigenvalues --    0.61265   0.61687   0.62100   0.63940   0.65913
 Alpha virt. eigenvalues --    0.66773   0.67810   0.68360   0.69036   0.69482
 Alpha virt. eigenvalues --    0.70243   0.70429   0.72897   0.74387   0.75158
 Alpha virt. eigenvalues --    0.75514   0.77472   0.78578   0.79018   0.80439
 Alpha virt. eigenvalues --    0.81134   0.81488   0.82597   0.84151   0.85480
 Alpha virt. eigenvalues --    0.86819   0.87658   0.89850   0.90641   0.91154
 Alpha virt. eigenvalues --    0.94268   0.95706   0.96332   0.96895   0.97492
 Alpha virt. eigenvalues --    0.98164   0.98868   0.99278   0.99828   1.00226
 Alpha virt. eigenvalues --    1.00671   1.01465   1.01945   1.03199   1.04043
 Alpha virt. eigenvalues --    1.04252   1.05603   1.06291   1.06710   1.07891
 Alpha virt. eigenvalues --    1.09750   1.12331   1.15227   1.16184   1.16441
 Alpha virt. eigenvalues --    1.18730   1.19062   1.19946   1.20606   1.21032
 Alpha virt. eigenvalues --    1.21386   1.21782   1.22291   1.22742   1.22965
 Alpha virt. eigenvalues --    1.23493   1.24015   1.24197   1.25235   1.25723
 Alpha virt. eigenvalues --    1.25984   1.27137   1.27598   1.28083   1.28437
 Alpha virt. eigenvalues --    1.28968   1.29805   1.30142   1.30971   1.31385
 Alpha virt. eigenvalues --    1.32415   1.32632   1.33013   1.33373   1.34468
 Alpha virt. eigenvalues --    1.35174   1.36115   1.36459   1.36872   1.37784
 Alpha virt. eigenvalues --    1.39175   1.39740   1.40183   1.41268   1.41557
 Alpha virt. eigenvalues --    1.42727   1.43642   1.44154   1.45122   1.46386
 Alpha virt. eigenvalues --    1.47030   1.48932   1.51259   1.51539   1.52828
 Alpha virt. eigenvalues --    1.56744   1.57402   1.57889   1.59319   1.59702
 Alpha virt. eigenvalues --    1.60055   1.61151   1.61963   1.62533   1.62999
 Alpha virt. eigenvalues --    1.63261   1.63796   1.65176   1.65407   1.66543
 Alpha virt. eigenvalues --    1.67524   1.68063   1.69209   1.69437   1.70064
 Alpha virt. eigenvalues --    1.71337   1.71508   1.71696   1.72734   1.73146
 Alpha virt. eigenvalues --    1.74044   1.74989   1.75674   1.76086   1.76517
 Alpha virt. eigenvalues --    1.77131   1.77302   1.78494   1.78875   1.79729
 Alpha virt. eigenvalues --    1.80492   1.81407   1.82171   1.82581   1.83050
 Alpha virt. eigenvalues --    1.83352   1.84803   1.85061   1.85886   1.86607
 Alpha virt. eigenvalues --    1.87233   1.88077   1.88770   1.89719   1.90474
 Alpha virt. eigenvalues --    1.91131   1.91500   1.92558   1.92757   1.93944
 Alpha virt. eigenvalues --    1.94679   1.95024   1.95909   1.97225   1.98368
 Alpha virt. eigenvalues --    1.98790   2.00453   2.01155   2.02630   2.03699
 Alpha virt. eigenvalues --    2.05843   2.06521   2.07606   2.09850   2.10414
 Alpha virt. eigenvalues --    2.11318   2.13005   2.14435   2.16140   2.16365
 Alpha virt. eigenvalues --    2.17732   2.18839   2.19165   2.20855   2.26594
 Alpha virt. eigenvalues --    2.32551   2.33452   2.35425   2.39472   2.40438
 Alpha virt. eigenvalues --    2.41146   2.41381   2.41655   2.42766   2.43763
 Alpha virt. eigenvalues --    2.44002   2.45629   2.46687   2.47578   2.49061
 Alpha virt. eigenvalues --    2.50211   2.50312   2.51665   2.52706   2.53311
 Alpha virt. eigenvalues --    2.55469   2.58403   2.59182   2.60059   2.60704
 Alpha virt. eigenvalues --    2.61121   2.61751   2.62093   2.62468   2.62788
 Alpha virt. eigenvalues --    2.63167   2.64038   2.64663   2.64992   2.65959
 Alpha virt. eigenvalues --    2.66271   2.66667   2.67332   2.67562   2.69375
 Alpha virt. eigenvalues --    2.69759   2.70310   2.71221   2.71673   2.72390
 Alpha virt. eigenvalues --    2.72910   2.74351   2.75562   2.76774   2.77479
 Alpha virt. eigenvalues --    2.78946   2.80589   2.81451   2.82456   2.83498
 Alpha virt. eigenvalues --    2.83746   2.84707   2.86684   2.87791   2.88144
 Alpha virt. eigenvalues --    3.14890   3.20645   3.35858   3.41137   3.46720
 Alpha virt. eigenvalues --    3.47825   3.48555   3.48620   3.51074   3.51104
 Alpha virt. eigenvalues --    3.52870   3.53931   3.60311   3.61071   3.62067
 Alpha virt. eigenvalues --    3.66193   4.34199   4.60747   7.92663  31.29271
          Condensed to atoms (all electrons):
               1          2          3          4          5          6
     1  Zr  15.084838  -0.111288  -0.002326  -0.128478  -0.194550  -0.622862
     2  O   -0.111288   9.054709   0.019730  -0.042139  -0.058249   0.084947
     3  O   -0.002326   0.019730   8.827127   0.016697  -0.045253  -0.002704
     4  O   -0.128478  -0.042139   0.016697   8.812556  -0.060130  -0.679641
     5  O   -0.194550  -0.058249  -0.045253  -0.060130   9.427132  -0.008351
     6  Si  -0.622862   0.084947  -0.002704  -0.679641  -0.008351  14.017952
     7  Si  -0.613027  -0.028453  -0.873531  -0.008393  -0.034247   0.083472
     8  Si  -0.618724  -0.994405  -0.019568   0.068817  -0.015108  -0.006262
     9  Si  -0.307234  -0.040177  -0.025820  -0.032535  -1.212631   0.039138
    10  O   -0.014296   0.001014  -0.001893   0.000754   0.126555  -0.002410
    11  O   -0.071671   0.003282   0.003072   0.001405   0.318071  -0.000538
    12  O    0.047179   0.000117   0.004659   0.002003   0.143141  -0.003158
    13  O   -0.030235   0.183955   0.001639  -0.015515  -0.000702   0.034074
    14  O   -0.012357   0.260576  -0.017598  -0.008641   0.001813   0.027655
    15  O   -0.084835   0.292610  -0.000657   0.001228   0.000615   0.000312
    16  O   -0.123634   0.004686  -0.000510   0.346237   0.003245  -0.427433
    17  O   -0.077742  -0.039862   0.008298   0.216578   0.001310  -0.452460
    18  O   -0.025775  -0.014513   0.003743   0.197496  -0.000668  -0.450596
    19  O    0.003984   0.008878   0.266063   0.010193   0.002105  -0.008037
    20  O   -0.144954  -0.000581   0.163221  -0.000831   0.001491   0.009031
    21  O    0.036913   0.010169   0.146376   0.003429   0.000190  -0.011939
    22  H   -0.009071  -0.000014   0.000000  -0.000008   0.005966   0.000088
    23  H   -0.008103  -0.000012  -0.000003  -0.000054  -0.025008   0.000106
    24  H   -0.005930  -0.000150  -0.000011   0.000006  -0.004844   0.000101
    25  H    0.016680  -0.019883  -0.000111  -0.000355   0.000019   0.002827
    26  H    0.007128   0.000710   0.000014  -0.000011  -0.000004  -0.000145
    27  H    0.002854  -0.018903   0.000813  -0.001755   0.000013   0.009283
    28  H    0.005007  -0.000011  -0.018371  -0.000014  -0.000015  -0.000276
    29  H    0.003672  -0.007036  -0.020252  -0.000139  -0.000073   0.000202
    30  H    0.000557  -0.000012   0.000047  -0.000455  -0.000008  -0.000600
    31  H   -0.000100   0.000180  -0.000020  -0.018441  -0.000010   0.063723
    32  H    0.002174  -0.000024   0.000041   0.010447   0.000001   0.022713
    33  H   -0.015686   0.001028  -0.010106  -0.009599  -0.000098   0.052959
               7          8          9         10         11         12
     1  Zr  -0.613027  -0.618724  -0.307234  -0.014296  -0.071671   0.047179
     2  O   -0.028453  -0.994405  -0.040177   0.001014   0.003282   0.000117
     3  O   -0.873531  -0.019568  -0.025820  -0.001893   0.003072   0.004659
     4  O   -0.008393   0.068817  -0.032535   0.000754   0.001405   0.002003
     5  O   -0.034247  -0.015108  -1.212631   0.126555   0.318071   0.143141
     6  Si   0.083472  -0.006262   0.039138  -0.002410  -0.000538  -0.003158
     7  Si  13.794457   0.183368   0.018383  -0.000208  -0.000946   0.003872
     8  Si   0.183368  13.818033   0.027379  -0.001144   0.001234  -0.001172
     9  Si   0.018383   0.027379  14.202502  -0.063051  -0.183130  -0.196742
    10  O   -0.000208  -0.001144  -0.063051   8.520622   0.015519   0.031711
    11  O   -0.000946   0.001234  -0.183130   0.015519   8.521485  -0.052834
    12  O    0.003872  -0.001172  -0.196742   0.031711  -0.052834   8.598507
    13  O    0.007163  -0.095837   0.000199   0.000000   0.000017   0.000006
    14  O    0.008929  -0.365767  -0.001550  -0.000002   0.000003   0.000014
    15  O   -0.002403  -0.304338  -0.000607   0.000000  -0.000021  -0.000010
    16  O    0.003728  -0.010525  -0.001001   0.000005  -0.000004  -0.000001
    17  O   -0.001234   0.096135   0.002400  -0.000001   0.000003  -0.000006
    18  O   -0.000745   0.075527   0.004048  -0.000001   0.000002  -0.000001
    19  O   -0.412081  -0.016430   0.001024   0.000008  -0.000002  -0.000029
    20  O   -0.109237   0.009729   0.003080   0.000006  -0.000003  -0.000042
    21  O    0.025087  -0.040797  -0.001683   0.000000   0.000001   0.000017
    22  H   -0.000148   0.000093   0.047389  -0.006612  -0.004968   0.219590
    23  H    0.000064   0.000062   0.080999   0.228721  -0.005954   0.005767
    24  H    0.000046  -0.000026   0.036832   0.007241   0.242834  -0.007304
    25  H   -0.000455   0.057257  -0.000209   0.000000  -0.000000  -0.000000
    26  H   -0.000379   0.046244  -0.000042  -0.000000   0.000000  -0.000000
    27  H    0.001526   0.068561   0.000001   0.000000  -0.000000  -0.000000
    28  H    0.056588  -0.000052  -0.000141  -0.000000  -0.000000  -0.000003
    29  H    0.048177   0.022209  -0.000057   0.000000   0.000000  -0.000001
    30  H    0.040399   0.000127   0.000021  -0.000000   0.000000   0.000000
    31  H    0.000154  -0.002016  -0.000048   0.000000  -0.000000   0.000000
    32  H   -0.000666   0.000052   0.000013  -0.000000   0.000000  -0.000000
    33  H    0.020630   0.000038   0.000074  -0.000000   0.000000   0.000000
              13         14         15         16         17         18
     1  Zr  -0.030235  -0.012357  -0.084835  -0.123634  -0.077742  -0.025775
     2  O    0.183955   0.260576   0.292610   0.004686  -0.039862  -0.014513
     3  O    0.001639  -0.017598  -0.000657  -0.000510   0.008298   0.003743
     4  O   -0.015515  -0.008641   0.001228   0.346237   0.216578   0.197496
     5  O   -0.000702   0.001813   0.000615   0.003245   0.001310  -0.000668
     6  Si   0.034074   0.027655   0.000312  -0.427433  -0.452460  -0.450596
     7  Si   0.007163   0.008929  -0.002403   0.003728  -0.001234  -0.000745
     8  Si  -0.095837  -0.365767  -0.304338  -0.010525   0.096135   0.075527
     9  Si   0.000199  -0.001550  -0.000607  -0.001001   0.002400   0.004048
    10  O    0.000000  -0.000002   0.000000   0.000005  -0.000001  -0.000001
    11  O    0.000017   0.000003  -0.000021  -0.000004   0.000003   0.000002
    12  O    0.000006   0.000014  -0.000010  -0.000001  -0.000006  -0.000001
    13  O    8.627192   0.086589  -0.090266   0.003746  -0.030917  -0.045656
    14  O    0.086589   8.672058   0.055584   0.003669  -0.035941  -0.026928
    15  O   -0.090266   0.055584   8.777382  -0.000174   0.003597   0.001677
    16  O    0.003746   0.003669  -0.000174   8.903714  -0.091820  -0.114877
    17  O   -0.030917  -0.035941   0.003597  -0.091820   8.935177   0.227056
    18  O   -0.045656  -0.026928   0.001677  -0.114877   0.227056   9.012141
    19  O    0.000175  -0.000519   0.000141  -0.001543  -0.030152   0.000153
    20  O    0.000008  -0.000269   0.000037   0.000066  -0.000979   0.000014
    21  O   -0.000266   0.015980  -0.000602  -0.000213  -0.005551   0.000479
    22  H   -0.000000  -0.000000   0.000000   0.000000   0.000000  -0.000000
    23  H    0.000000   0.000000  -0.000000  -0.000000   0.000000  -0.000000
    24  H   -0.000000   0.000000   0.000001   0.000000  -0.000000  -0.000000
    25  H    0.218455  -0.011894   0.008909  -0.000057   0.000634   0.014953
    26  H   -0.005108  -0.010119   0.216892   0.000000  -0.000002   0.000006
    27  H   -0.009653   0.219560   0.004638   0.000182   0.017945  -0.000244
    28  H    0.000000  -0.000005  -0.000001  -0.000000   0.000004  -0.000000
    29  H    0.000802   0.017544  -0.002576  -0.000004  -0.000393   0.000006
    30  H    0.000001   0.000004   0.000000   0.000114  -0.000402  -0.000007
    31  H    0.002362   0.000169  -0.000018   0.003756  -0.000732   0.218176
    32  H   -0.000008  -0.000006   0.000000   0.233417  -0.003638   0.003873
    33  H    0.000228   0.002101  -0.000035  -0.000102   0.231021   0.002106
              19         20         21         22         23         24
     1  Zr   0.003984  -0.144954   0.036913  -0.009071  -0.008103  -0.005930
     2  O    0.008878  -0.000581   0.010169  -0.000014  -0.000012  -0.000150
     3  O    0.266063   0.163221   0.146376   0.000000  -0.000003  -0.000011
     4  O    0.010193  -0.000831   0.003429  -0.000008  -0.000054   0.000006
     5  O    0.002105   0.001491   0.000190   0.005966  -0.025008  -0.004844
     6  Si  -0.008037   0.009031  -0.011939   0.000088   0.000106   0.000101
     7  Si  -0.412081  -0.109237   0.025087  -0.000148   0.000064   0.000046
     8  Si  -0.016430   0.009729  -0.040797   0.000093   0.000062  -0.000026
     9  Si   0.001024   0.003080  -0.001683   0.047389   0.080999   0.036832
    10  O    0.000008   0.000006   0.000000  -0.006612   0.228721   0.007241
    11  O   -0.000002  -0.000003   0.000001  -0.004968  -0.005954   0.242834
    12  O   -0.000029  -0.000042   0.000017   0.219590   0.005767  -0.007304
    13  O    0.000175   0.000008  -0.000266  -0.000000   0.000000  -0.000000
    14  O   -0.000519  -0.000269   0.015980  -0.000000   0.000000   0.000000
    15  O    0.000141   0.000037  -0.000602   0.000000  -0.000000   0.000001
    16  O   -0.001543   0.000066  -0.000213   0.000000  -0.000000   0.000000
    17  O   -0.030152  -0.000979  -0.005551   0.000000   0.000000  -0.000000
    18  O    0.000153   0.000014   0.000479  -0.000000  -0.000000  -0.000000
    19  O    8.873753   0.032266   0.023363  -0.000000   0.000000  -0.000000
    20  O    0.032266   8.657351  -0.050486   0.000000   0.000000  -0.000000
    21  O    0.023363  -0.050486   8.484826  -0.000000   0.000000   0.000000
    22  H   -0.000000   0.000000  -0.000000   0.362312   0.000061   0.000122
    23  H    0.000000   0.000000   0.000000   0.000061   0.351208   0.000017
    24  H   -0.000000  -0.000000   0.000000   0.000122   0.000017   0.365248
    25  H   -0.000024   0.000000  -0.000019   0.000000   0.000000   0.000000
    26  H    0.000001  -0.000000   0.000040  -0.000000  -0.000000  -0.000000
    27  H    0.000038   0.000193  -0.004018  -0.000000  -0.000000   0.000000
    28  H    0.004627   0.229597  -0.002046  -0.000000   0.000000  -0.000000
    29  H   -0.008569   0.007670   0.206462   0.000000   0.000000  -0.000000
    30  H    0.224127  -0.001470  -0.007146   0.000000  -0.000000  -0.000000
    31  H    0.000004  -0.000000  -0.000000  -0.000000  -0.000000   0.000000
    32  H    0.000097  -0.000000   0.000001  -0.000000  -0.000000  -0.000000
    33  H    0.014823  -0.000080   0.001472  -0.000000  -0.000000  -0.000000
              25         26         27         28         29         30
     1  Zr   0.016680   0.007128   0.002854   0.005007   0.003672   0.000557
     2  O   -0.019883   0.000710  -0.018903  -0.000011  -0.007036  -0.000012
     3  O   -0.000111   0.000014   0.000813  -0.018371  -0.020252   0.000047
     4  O   -0.000355  -0.000011  -0.001755  -0.000014  -0.000139  -0.000455
     5  O    0.000019  -0.000004   0.000013  -0.000015  -0.000073  -0.000008
     6  Si   0.002827  -0.000145   0.009283  -0.000276   0.000202  -0.000600
     7  Si  -0.000455  -0.000379   0.001526   0.056588   0.048177   0.040399
     8  Si   0.057257   0.046244   0.068561  -0.000052   0.022209   0.000127
     9  Si  -0.000209  -0.000042   0.000001  -0.000141  -0.000057   0.000021
    10  O    0.000000  -0.000000   0.000000  -0.000000   0.000000  -0.000000
    11  O   -0.000000   0.000000  -0.000000  -0.000000   0.000000   0.000000
    12  O   -0.000000  -0.000000  -0.000000  -0.000003  -0.000001   0.000000
    13  O    0.218455  -0.005108  -0.009653   0.000000   0.000802   0.000001
    14  O   -0.011894  -0.010119   0.219560  -0.000005   0.017544   0.000004
    15  O    0.008909   0.216892   0.004638  -0.000001  -0.002576   0.000000
    16  O   -0.000057   0.000000   0.000182  -0.000000  -0.000004   0.000114
    17  O    0.000634  -0.000002   0.017945   0.000004  -0.000393  -0.000402
    18  O    0.014953   0.000006  -0.000244  -0.000000   0.000006  -0.000007
    19  O   -0.000024   0.000001   0.000038   0.004627  -0.008569   0.224127
    20  O    0.000000  -0.000000   0.000193   0.229597   0.007670  -0.001470
    21  O   -0.000019   0.000040  -0.004018  -0.002046   0.206462  -0.007146
    22  H    0.000000  -0.000000  -0.000000  -0.000000   0.000000   0.000000
    23  H    0.000000  -0.000000  -0.000000   0.000000   0.000000  -0.000000
    24  H    0.000000  -0.000000   0.000000  -0.000000  -0.000000  -0.000000
    25  H    0.298942  -0.000012   0.000109   0.000000   0.000001   0.000000
    26  H   -0.000012   0.366110   0.000035   0.000000   0.000021  -0.000000
    27  H    0.000109   0.000035   0.283399  -0.000000  -0.001493   0.000009
    28  H    0.000000   0.000000  -0.000000   0.349133  -0.000017  -0.000016
    29  H    0.000001   0.000021  -0.001493  -0.000017   0.285919   0.000156
    30  H    0.000000  -0.000000   0.000009  -0.000016   0.000156   0.334283
    31  H   -0.000495   0.000000   0.000013  -0.000000   0.000000  -0.000000
    32  H   -0.000001   0.000000  -0.000000   0.000000  -0.000000  -0.000000
    33  H    0.000006  -0.000000  -0.002412  -0.000002   0.000099  -0.001159
              31         32         33
     1  Zr  -0.000100   0.002174  -0.015686
     2  O    0.000180  -0.000024   0.001028
     3  O   -0.000020   0.000041  -0.010106
     4  O   -0.018441   0.010447  -0.009599
     5  O   -0.000010   0.000001  -0.000098
     6  Si   0.063723   0.022713   0.052959
     7  Si   0.000154  -0.000666   0.020630
     8  Si  -0.002016   0.000052   0.000038
     9  Si  -0.000048   0.000013   0.000074
    10  O    0.000000  -0.000000  -0.000000
    11  O   -0.000000   0.000000   0.000000
    12  O    0.000000  -0.000000   0.000000
    13  O    0.002362  -0.000008   0.000228
    14  O    0.000169  -0.000006   0.002101
    15  O   -0.000018   0.000000  -0.000035
    16  O    0.003756   0.233417  -0.000102
    17  O   -0.000732  -0.003638   0.231021
    18  O    0.218176   0.003873   0.002106
    19  O    0.000004   0.000097   0.014823
    20  O   -0.000000  -0.000000  -0.000080
    21  O   -0.000000   0.000001   0.001472
    22  H   -0.000000  -0.000000  -0.000000
    23  H   -0.000000  -0.000000  -0.000000
    24  H    0.000000  -0.000000  -0.000000
    25  H   -0.000495  -0.000001   0.000006
    26  H    0.000000   0.000000  -0.000000
    27  H    0.000013  -0.000000  -0.002412
    28  H   -0.000000   0.000000  -0.000002
    29  H    0.000000  -0.000000   0.000099
    30  H   -0.000000  -0.000000  -0.001159
    31  H    0.331435   0.000002  -0.000038
    32  H    0.000002   0.350078   0.000157
    33  H   -0.000038   0.000157   0.269300
 Mulliken charges:
               1
     1  Zr   0.011894
     2  O   -0.550881
     3  O   -0.422806
     4  O   -0.680714
     5  O   -0.371716
     6  Si   2.228827
     7  Si   1.790108
     8  Si   2.017306
     9  Si   1.603176
    10  O   -0.842539
    11  O   -0.786859
    12  O   -0.795280
    13  O   -0.842450
    14  O   -0.880648
    15  O   -0.877078
    16  O   -0.734666
    17  O   -0.968326
    18  O   -1.081445
    19  O   -0.988438
    20  O   -0.804831
    21  O   -0.830037
    22  H    0.385201
    23  H    0.372130
    24  H    0.365816
    25  H    0.414721
    26  H    0.378619
    27  H    0.429307
    28  H    0.376012
    29  H    0.447668
    30  H    0.411430
    31  H    0.401945
    32  H    0.381278
    33  H    0.443276
 Sum of Mulliken charges =  -0.00000
 Mulliken charges with hydrogens summed into heavy atoms:
               1
     1  Zr   0.011894
     2  O   -0.550881
     3  O   -0.422806
     4  O   -0.680714
     5  O   -0.371716
     6  Si   2.228827
     7  Si   1.790108
     8  Si   2.017306
     9  Si   1.603176
    10  O   -0.470408
    11  O   -0.421043
    12  O   -0.410079
    13  O   -0.427730
    14  O   -0.451342
    15  O   -0.498459
    16  O   -0.353389
    17  O   -0.525049
    18  O   -0.679500
    19  O   -0.577008
    20  O   -0.428819
    21  O   -0.382370
 Electronic spatial extent (au):  <R**2>=           9869.1196
 Charge=             -0.0000 electrons
 Dipole moment (field-independent basis, Debye):
    X=              1.0925    Y=             -0.8304    Z=             -2.5390  Tot=              2.8861
 Quadrupole moment (field-independent basis, Debye-Ang):
   XX=           -160.1411   YY=           -154.6200   ZZ=           -157.7734
   XY=             -5.1064   XZ=              1.9472   YZ=              5.6161
 Traceless Quadrupole moment (field-independent basis, Debye-Ang):
   XX=             -2.6296   YY=              2.8915   ZZ=             -0.2619
   XY=             -5.1064   XZ=              1.9472   YZ=              5.6161
 Octapole moment (field-independent basis, Debye-Ang**2):
  XXX=             74.4374  YYY=              5.4433  ZZZ=            -22.3517  XYY=             -3.2916
  XXY=             19.7390  XXZ=             19.6511  XZZ=              6.9538  YZZ=            -16.5281
  YYZ=            -13.1650  XYZ=             27.3656
 Hexadecapole moment (field-independent basis, Debye-Ang**3):
 XXXX=          -6033.4089 YYYY=          -2827.7041 ZZZZ=          -2261.5429 XXXY=             57.2211
 XXXZ=            -12.0763 YYYX=              0.0371 YYYZ=            212.2739 ZZZX=           -201.3718
 ZZZY=            -51.3113 XXYY=          -1495.9928 XXZZ=          -1346.9870 YYZZ=           -927.9756
 XXYZ=            -12.1114 YYXZ=            143.5928 ZZXY=            -57.6388
 N-N= 2.832774721593D+03 E-N=-1.137815445844D+04  KE= 2.373155035969D+03
 PrsmSu:  requested number of processors reduced to:   2 ShMem   1 Linda.
 PrsmSu:  requested number of processors reduced to:  10 ShMem   1 Linda.
   1 Symmetry operations used in ECPInt.
 ECPInt:  NShTT=   13203 NPrTT=   78401 LenC2=   11522 LenP2D=   44633.
 LDataN:  DoStor=T MaxTD1= 9 Len=  602
 Number of processors reduced to  14 by ecpmxn.
 Calling FoFJK, ICntrl=      2127 FMM=F ISym2X=0 I1Cent= 0 IOpClX= 0 NMat=1 NMatS=1 NMatT=0.
 CoulSu:  requested number of processors reduced to:  10 ShMem   1 Linda.
 Defaulting to unpruned grid for atomic number  40.
 Defaulting to unpruned grid for atomic number  40.
 Defaulting to unpruned grid for atomic number  40.
 Defaulting to unpruned grid for atomic number  40.
 Defaulting to unpruned grid for atomic number  40.
 Defaulting to unpruned grid for atomic number  40.
 Defaulting to unpruned grid for atomic number  40.
 Defaulting to unpruned grid for atomic number  40.
 Defaulting to unpruned grid for atomic number  40.
 Defaulting to unpruned grid for atomic number  40.
 Defaulting to unpruned grid for atomic number  40.
 Defaulting to unpruned grid for atomic number  40.
 Defaulting to unpruned grid for atomic number  40.
 Defaulting to unpruned grid for atomic number  40.
 Defaulting to unpruned grid for atomic number  40.
 Defaulting to unpruned grid for atomic number  40.
 ***** Axes restored to original set *****
 -------------------------------------------------------------------
 Center     Atomic                   Forces (Hartrees/Bohr)
 Number     Number              X              Y              Z
 -------------------------------------------------------------------
      1       40          -0.000001377    0.000012584    0.000410108
      2        8          -0.000041486   -0.000020681   -0.000151160
      3        8           0.000046234    0.000037531   -0.000049366
      4        8           0.000006685   -0.000044363   -0.000062151
      5        8           0.000056759   -0.000055632   -0.000276962
      6       14          -0.000034138    0.000031577    0.000039836
      7       14          -0.000027431   -0.000009703    0.000050075
      8       14           0.000071207    0.000049457    0.000089564
      9       14          -0.000060515    0.000116527    0.000239070
     10        8           0.000008770   -0.000028288   -0.000063929
     11        8           0.000002736   -0.000080899   -0.000030989
     12        8          -0.000024172   -0.000028925   -0.000067300
     13        8          -0.000020061   -0.000039805   -0.000031081
     14        8          -0.000023585    0.000007498   -0.000033900
     15        8          -0.000036400   -0.000017488   -0.000037013
     16        8           0.000008480   -0.000009177   -0.000014574
     17        8           0.000020932   -0.000017023   -0.000028065
     18        8           0.000001557    0.000000646   -0.000010571
     19        8           0.000001300    0.000003447   -0.000014580
     20        8           0.000021145    0.000007301   -0.000004033
     21        8          -0.000005226   -0.000001255   -0.000029501
     22        1           0.000005269    0.000001190    0.000000122
     23        1           0.000013948   -0.000002388    0.000002868
     24        1           0.000006336    0.000061494    0.000011115
     25        1           0.000000452    0.000010473    0.000016199
     26        1           0.000007650    0.000006509    0.000001966
     27        1          -0.000000189    0.000004180    0.000019322
     28        1          -0.000004735   -0.000000791    0.000001334
     29        1           0.000012277    0.000002550    0.000010436
     30        1           0.000002974   -0.000001627    0.000004808
     31        1          -0.000000841   -0.000004525   -0.000002767
     32        1          -0.000012026    0.000004364    0.000002645
     33        1          -0.000002527    0.000005239    0.000008474
 -------------------------------------------------------------------
 Cartesian Forces:  Max     0.000410108 RMS     0.000065191

 GradGradGradGradGradGradGradGradGradGradGradGradGradGradGradGradGradGrad
 Berny optimization.
 FormGI is forming the generalized inverse of G from B-inverse, IUseBI=4.
 Internal  Forces:  Max     0.000196125 RMS     0.000038261
 Search for a local minimum.
 Step number   1 out of a maximum of  148
 All quantities printed in internal units (Hartrees-Bohrs-Radians)
 Mixed Optimization -- En-DIIS/RFO-DIIS
 Second derivative matrix not updated -- first step.
 ITU=  0
     Eigenvalues ---    0.00230   0.00230   0.00230   0.00230   0.03240
     Eigenvalues ---    0.03358   0.03498   0.03580   0.03665   0.03666
     Eigenvalues ---    0.03680   0.03686   0.03693   0.03739   0.03789
     Eigenvalues ---    0.03792   0.03816   0.03834   0.03851   0.03857
     Eigenvalues ---    0.08405   0.09407   0.11077   0.11224   0.11819
     Eigenvalues ---    0.11833   0.11884   0.12136   0.12177   0.12239
     Eigenvalues ---    0.12563   0.12783   0.12896   0.13099   0.13313
     Eigenvalues ---    0.16000   0.16000   0.16000   0.16000   0.16000
     Eigenvalues ---    0.16000   0.16000   0.16000   0.16000   0.16000
     Eigenvalues ---    0.16000   0.16000   0.19173   0.19893   0.20028
     Eigenvalues ---    0.20179   0.20203   0.20204   0.20208   0.20515
     Eigenvalues ---    0.20653   0.20795   0.20988   0.21175   0.21186
     Eigenvalues ---    0.21263   0.25000   0.25000   0.25000   0.38001
     Eigenvalues ---    0.39186   0.40660   0.41547   0.42502   0.42510
     Eigenvalues ---    0.42670   0.42743   0.42822   0.43364   0.43950
     Eigenvalues ---    0.43982   0.44274   0.44484   0.44690   0.44768
     Eigenvalues ---    0.50655   0.51351   0.52035   0.52547   0.54334
     Eigenvalues ---    0.54623   0.54642   0.54649   0.54691   0.54692
     Eigenvalues ---    0.54712   0.547641000.000001000.000001000.00000
     Eigenvalues --- 1000.000001000.000001000.000001000.000001000.00000
     Eigenvalues --- 1000.000001000.000001000.000001000.000001000.00000
     Eigenvalues --- 1000.000001000.000001000.000001000.000001000.00000
     Eigenvalues --- 1000.000001000.000001000.000001000.000001000.00000
     Eigenvalues --- 1000.000001000.000001000.000001000.000001000.00000
     Eigenvalues --- 1000.000001000.000001000.000001000.000001000.00000
     Eigenvalues --- 1000.000001000.000001000.000001000.000001000.00000
     Eigenvalues --- 1000.000001000.000001000.000001000.000001000.00000
     Eigenvalues --- 1000.000001000.000001000.00000
 RFO step:  Lambda=-7.57619357D-06 EMin= 2.30000000D-03
 Linear search not attempted -- first point.
 Iteration  1 RMS(Cart)=  0.02212904 RMS(Int)=  0.00019215
 Iteration  2 RMS(Cart)=  0.00030569 RMS(Int)=  0.00000009
 Iteration  3 RMS(Cart)=  0.00000004 RMS(Int)=  0.00000009
 Iteration  1 RMS(Cart)=  0.00000000 RMS(Int)=  0.00000000
 Variable       Old X    -DE/DX   Delta X   Delta X   Delta X     New X
                                 (Linear)    (Quad)   (Total)
    R1        3.67647  -0.00008   0.00000  -0.00040  -0.00040   3.67607
    R2        3.69189   0.00003   0.00000   0.00012   0.00012   3.69202
    R3        3.73836   0.00007   0.00000   0.00037   0.00037   3.73873
    R4        3.70232   0.00001   0.00000   0.00003   0.00003   3.70235
    R5        3.11688   0.00001   0.00000   0.00001   0.00001   3.11689
    R6        3.09579   0.00000   0.00000   0.00001   0.00001   3.09580
    R7        3.10215   0.00001   0.00000   0.00003   0.00003   3.10218
    R8        3.09246  -0.00004   0.00000  -0.00008  -0.00008   3.09238
    R9        3.11589   0.00001   0.00000   0.00003   0.00003   3.11592
   R10        3.11988  -0.00003   0.00000  -0.00006  -0.00006   3.11982
   R11        3.14367  -0.00000   0.00000  -0.00001  -0.00001   3.14366
   R12        3.18063   0.00001   0.00000   0.00002   0.00002   3.18065
   R13        3.10923   0.00001   0.00000   0.00002   0.00002   3.10926
   R14        3.09337  -0.00002   0.00000  -0.00004  -0.00004   3.09333
   R15        3.10176   0.00004   0.00000   0.00008   0.00008   3.10185
   R16        3.16375   0.00003   0.00000   0.00007   0.00007   3.16381
   R17        3.09828  -0.00004   0.00000  -0.00009  -0.00009   3.09819
   R18        3.11979   0.00006   0.00000   0.00015   0.00015   3.11994
   R19        3.13204   0.00001   0.00000   0.00002   0.00002   3.13206
   R20        3.11779  -0.00006   0.00000  -0.00014  -0.00014   3.11766
   R21        1.82152   0.00000   0.00000   0.00001   0.00001   1.82153
   R22        1.82107  -0.00002   0.00000  -0.00003  -0.00003   1.82103
   R23        1.82088   0.00001   0.00000   0.00001   0.00001   1.82089
   R24        1.84079  -0.00002   0.00000  -0.00004  -0.00004   1.84075
   R25        1.84566  -0.00002   0.00000  -0.00004  -0.00004   1.84562
   R26        1.82042  -0.00001   0.00000  -0.00001  -0.00001   1.82041
   R27        1.82108  -0.00001   0.00000  -0.00002  -0.00002   1.82106
   R28        1.85910   0.00000   0.00000   0.00000   0.00000   1.85911
   R29        1.82145   0.00001   0.00000   0.00001   0.00001   1.82146
   R30        1.82429  -0.00000   0.00000  -0.00001  -0.00001   1.82428
   R31        1.82168  -0.00000   0.00000  -0.00000  -0.00000   1.82168
   R32        1.85226  -0.00000   0.00000  -0.00000  -0.00000   1.85226
    A1        1.85172   0.00002   0.00000   0.00043   0.00043   1.85216
    A2        1.80156  -0.00006   0.00000  -0.00025  -0.00025   1.80131
    A3        1.96889   0.00017   0.00000   0.00126   0.00126   1.97015
    A4        1.83430   0.00004   0.00000  -0.00025  -0.00025   1.83405
    A5        2.01802  -0.00009   0.00000  -0.00051  -0.00051   2.01752
    A6        1.97057  -0.00007   0.00000  -0.00069  -0.00069   1.96987
    A7        2.46524   0.00001   0.00000   0.00004   0.00004   2.46528
    A8        2.58826  -0.00003   0.00000  -0.00010  -0.00010   2.58816
    A9        2.35481   0.00001   0.00000   0.00005   0.00005   2.35487
   A10        2.86714  -0.00020   0.00000   0.00000  -0.00000   2.86714
   A11        1.91977  -0.00000   0.00000  -0.00003  -0.00003   1.91974
   A12        1.91547   0.00000   0.00000   0.00004   0.00004   1.91550
   A13        1.95201   0.00000   0.00000   0.00002   0.00002   1.95203
   A14        2.00709  -0.00001   0.00000  -0.00003  -0.00003   2.00705
   A15        1.88610  -0.00001   0.00000  -0.00007  -0.00007   1.88603
   A16        1.78002   0.00001   0.00000   0.00008   0.00008   1.78010
   A17        1.80238  -0.00001   0.00000  -0.00004  -0.00004   1.80234
   A18        1.99615  -0.00001   0.00000  -0.00006  -0.00006   1.99609
[...]
     7  Si  -0.614842  -0.028150  -0.875820  -0.007046  -0.033873   0.084225
     8  Si  -0.587823  -0.999508  -0.020263   0.071354  -0.014271  -0.017220
     9  Si  -0.321063  -0.040629  -0.026495  -0.033157  -1.233163   0.038772
    10  O   -0.014043   0.001025  -0.002033   0.000956   0.130055  -0.002420
    11  O   -0.064549   0.003430   0.002986   0.001224   0.313962  -0.000804
    12  O    0.042507  -0.000012   0.004696   0.002082   0.154200  -0.002975
    13  O   -0.036598   0.186501   0.001653  -0.015673  -0.000676   0.035593
    14  O   -0.018154   0.263522  -0.017623  -0.008726   0.001908   0.029025
    15  O   -0.083475   0.292838  -0.000696   0.001233   0.000583  -0.000057
    16  O   -0.125160   0.004684  -0.000504   0.344229   0.003208  -0.421798
    17  O   -0.081076  -0.039973   0.007993   0.218437   0.001299  -0.453045
    18  O   -0.027013  -0.014468   0.003738   0.198045  -0.000611  -0.449934
    19  O    0.001234   0.008985   0.264970   0.010185   0.002128  -0.007484
    20  O   -0.145828  -0.000576   0.163829  -0.000860   0.001475   0.009049
    21  O    0.036004   0.010342   0.146352   0.003403   0.000212  -0.011860
    22  H   -0.008960  -0.000018  -0.000013  -0.000009   0.005768   0.000086
    23  H   -0.007676  -0.000013  -0.000006  -0.000056  -0.025268   0.000086
    24  H   -0.005248  -0.000190  -0.000011   0.000003  -0.005390   0.000071
    25  H    0.017075  -0.020011  -0.000111  -0.000312   0.000019   0.002618
    26  H    0.007280   0.000627   0.000014  -0.000011  -0.000004  -0.000149
    27  H    0.004336  -0.019232   0.000840  -0.001700   0.000010   0.008739
    28  H    0.005079  -0.000011  -0.018413  -0.000014  -0.000015  -0.000282
    29  H    0.004229  -0.007073  -0.020290  -0.000141  -0.000073   0.000135
    30  H    0.000716  -0.000012   0.000060  -0.000453  -0.000008  -0.000657
    31  H   -0.000213   0.000171  -0.000020  -0.018457  -0.000009   0.063887
    32  H    0.002089  -0.000024   0.000040   0.010322   0.000001   0.023005
    33  H   -0.016069   0.001027  -0.010107  -0.009618  -0.000101   0.053319
               7          8          9         10         11         12
     1  Zr  -0.614842  -0.587823  -0.321063  -0.014043  -0.064549   0.042507
     2  O   -0.028150  -0.999508  -0.040629   0.001025   0.003430  -0.000012
     3  O   -0.875820  -0.020263  -0.026495  -0.002033   0.002986   0.004696
     4  O   -0.007046   0.071354  -0.033157   0.000956   0.001224   0.002082
     5  O   -0.033873  -0.014271  -1.233163   0.130055   0.313962   0.154200
     6  Si   0.084225  -0.017220   0.038772  -0.002420  -0.000804  -0.002975
     7  Si  13.795563   0.182173   0.019998  -0.000250  -0.000870   0.004013
     8  Si   0.182173  13.804358   0.026119  -0.000990   0.001187  -0.000825
     9  Si   0.019998   0.026119  14.261515  -0.069164  -0.181873  -0.213126
    10  O   -0.000250  -0.000990  -0.069164   8.524916   0.014682   0.031775
    11  O   -0.000870   0.001187  -0.181873   0.014682   8.517340  -0.050745
    12  O    0.004013  -0.000825  -0.213126   0.031775  -0.050745   8.601205
    13  O    0.007327  -0.095395   0.000230   0.000000   0.000018   0.000009
    14  O    0.009527  -0.368085  -0.001475  -0.000002   0.000001   0.000017
    15  O   -0.002560  -0.304471  -0.000638   0.000000  -0.000024  -0.000016
    16  O    0.003799  -0.010278  -0.001023   0.000005  -0.000003  -0.000001
    17  O   -0.000714   0.096756   0.002548  -0.000002   0.000002  -0.000006
    18  O   -0.000705   0.074649   0.004191  -0.000002  -0.000001  -0.000001
    19  O   -0.409046  -0.016051   0.001046   0.000007  -0.000002  -0.000022
    20  O   -0.108888   0.009658   0.003161   0.000002  -0.000003  -0.000029
    21  O    0.024470  -0.040201  -0.001810   0.000001   0.000001   0.000024
    22  H   -0.000185   0.000089   0.047299  -0.006543  -0.005072   0.219709
    23  H    0.000060   0.000062   0.081051   0.228618  -0.006158   0.005897
    24  H    0.000054  -0.000089   0.037217   0.007361   0.242446  -0.007440
    25  H   -0.000461   0.057384  -0.000212   0.000000  -0.000000  -0.000000
    26  H   -0.000381   0.046064  -0.000043  -0.000000   0.000000  -0.000000
    27  H    0.001320   0.068454  -0.000008   0.000000  -0.000000  -0.000000
    28  H    0.056611  -0.000068  -0.000136  -0.000000  -0.000000  -0.000004
    29  H    0.048139   0.021904  -0.000057   0.000000   0.000000  -0.000001
    30  H    0.040293   0.000111   0.000023  -0.000000   0.000000   0.000000
    31  H    0.000155  -0.001969  -0.000052   0.000000  -0.000000   0.000000
    32  H   -0.000665   0.000053   0.000009  -0.000000   0.000000  -0.000000
    33  H    0.020638   0.000114   0.000077  -0.000000   0.000000   0.000000
              13         14         15         16         17         18
     1  Zr  -0.036598  -0.018154  -0.083475  -0.125160  -0.081076  -0.027013
     2  O    0.186501   0.263522   0.292838   0.004684  -0.039973  -0.014468
     3  O    0.001653  -0.017623  -0.000696  -0.000504   0.007993   0.003738
     4  O   -0.015673  -0.008726   0.001233   0.344229   0.218437   0.198045
     5  O   -0.000676   0.001908   0.000583   0.003208   0.001299  -0.000611
     6  Si   0.035593   0.029025  -0.000057  -0.421798  -0.453045  -0.449934
     7  Si   0.007327   0.009527  -0.002560   0.003799  -0.000714  -0.000705
     8  Si  -0.095395  -0.368085  -0.304471  -0.010278   0.096756   0.074649
     9  Si   0.000230  -0.001475  -0.000638  -0.001023   0.002548   0.004191
    10  O    0.000000  -0.000002   0.000000   0.000005  -0.000002  -0.000002
    11  O    0.000018   0.000001  -0.000024  -0.000003   0.000002  -0.000001
    12  O    0.000009   0.000017  -0.000016  -0.000001  -0.000006  -0.000001
    13  O    8.628160   0.087152  -0.090589   0.003735  -0.030918  -0.045620
    14  O    0.087152   8.674413   0.055524   0.003664  -0.035817  -0.026836
    15  O   -0.090589   0.055524   8.776829  -0.000174   0.003598   0.001674
    16  O    0.003735   0.003664  -0.000174   8.901502  -0.092074  -0.115251
    17  O   -0.030918  -0.035817   0.003598  -0.092074   8.936130   0.227938
    18  O   -0.045620  -0.026836   0.001674  -0.115251   0.227938   9.012122
    19  O    0.000183  -0.000436   0.000139  -0.001551  -0.030064   0.000164
    20  O    0.000008  -0.000249   0.000039   0.000065  -0.000979   0.000015
    21  O   -0.000251   0.016006  -0.000614  -0.000213  -0.005581   0.000476
    22  H   -0.000000  -0.000000  -0.000000   0.000000   0.000000  -0.000000
    23  H    0.000000   0.000000  -0.000000  -0.000000   0.000000  -0.000000
    24  H   -0.000000   0.000000   0.000002   0.000000  -0.000000  -0.000000
    25  H    0.218383  -0.011968   0.008902  -0.000050   0.000624   0.014865
    26  H   -0.005132  -0.010088   0.217064   0.000000  -0.000003   0.000006
    27  H   -0.009731   0.219304   0.004635   0.000183   0.017930  -0.000252
    28  H   -0.000000  -0.000005  -0.000001  -0.000000   0.000004  -0.000000
    29  H    0.000795   0.017586  -0.002572  -0.000004  -0.000396   0.000006
    30  H    0.000001   0.000001   0.000000   0.000115  -0.000396  -0.000007
    31  H    0.002351   0.000165  -0.000018   0.003693  -0.000723   0.218214
    32  H   -0.000008  -0.000006   0.000000   0.233333  -0.003675   0.003925
    33  H    0.000231   0.002090  -0.000035  -0.000095   0.230958   0.002091
              19         20         21         22         23         24
     1  Zr   0.001234  -0.145828   0.036004  -0.008960  -0.007676  -0.005248
     2  O    0.008985  -0.000576   0.010342  -0.000018  -0.000013  -0.000190
     3  O    0.264970   0.163829   0.146352  -0.000013  -0.000006  -0.000011
     4  O    0.010185  -0.000860   0.003403  -0.000009  -0.000056   0.000003
     5  O    0.002128   0.001475   0.000212   0.005768  -0.025268  -0.005390
     6  Si  -0.007484   0.009049  -0.011860   0.000086   0.000086   0.000071
     7  Si  -0.409046  -0.108888   0.024470  -0.000185   0.000060   0.000054
     8  Si  -0.016051   0.009658  -0.040201   0.000089   0.000062  -0.000089
     9  Si   0.001046   0.003161  -0.001810   0.047299   0.081051   0.037217
    10  O    0.000007   0.000002   0.000001  -0.006543   0.228618   0.007361
    11  O   -0.000002  -0.000003   0.000001  -0.005072  -0.006158   0.242446
    12  O   -0.000022  -0.000029   0.000024   0.219709   0.005897  -0.007440
    13  O    0.000183   0.000008  -0.000251  -0.000000   0.000000  -0.000000
    14  O   -0.000436  -0.000249   0.016006  -0.000000   0.000000   0.000000
    15  O    0.000139   0.000039  -0.000614  -0.000000  -0.000000   0.000002
    16  O   -0.001551   0.000065  -0.000213   0.000000  -0.000000   0.000000
    17  O   -0.030064  -0.000979  -0.005581   0.000000   0.000000  -0.000000
    18  O    0.000164   0.000015   0.000476  -0.000000  -0.000000  -0.000000
    19  O    8.872703   0.032302   0.023428  -0.000000   0.000000  -0.000000
    20  O    0.032302   8.657044  -0.050467   0.000000   0.000000  -0.000000
    21  O    0.023428  -0.050467   8.485508  -0.000000   0.000000   0.000000
    22  H   -0.000000   0.000000  -0.000000   0.361705   0.000056   0.000122
    23  H    0.000000   0.000000   0.000000   0.000056   0.351035   0.000014
    24  H   -0.000000  -0.000000   0.000000   0.000122   0.000014   0.365218
    25  H   -0.000024   0.000000  -0.000019   0.000000   0.000000   0.000000
    26  H    0.000001  -0.000000   0.000039  -0.000000  -0.000000  -0.000000
    27  H    0.000031   0.000192  -0.004014  -0.000000  -0.000000   0.000000
    28  H    0.004626   0.229610  -0.002080  -0.000000   0.000000  -0.000000
    29  H   -0.008565   0.007667   0.206455   0.000000   0.000000  -0.000000
    30  H    0.224196  -0.001484  -0.007146   0.000000   0.000000  -0.000000
    31  H    0.000004  -0.000000  -0.000000  -0.000000  -0.000000   0.000000
    32  H    0.000097   0.000000   0.000001  -0.000000  -0.000000  -0.000000
    33  H    0.014857  -0.000082   0.001472  -0.000000  -0.000000  -0.000000
              25         26         27         28         29         30
     1  Zr   0.017075   0.007280   0.004336   0.005079   0.004229   0.000716
     2  O   -0.020011   0.000627  -0.019232  -0.000011  -0.007073  -0.000012
     3  O   -0.000111   0.000014   0.000840  -0.018413  -0.020290   0.000060
     4  O   -0.000312  -0.000011  -0.001700  -0.000014  -0.000141  -0.000453
     5  O    0.000019  -0.000004   0.000010  -0.000015  -0.000073  -0.000008
     6  Si   0.002618  -0.000149   0.008739  -0.000282   0.000135  -0.000657
     7  Si  -0.000461  -0.000381   0.001320   0.056611   0.048139   0.040293
     8  Si   0.057384   0.046064   0.068454  -0.000068   0.021904   0.000111
     9  Si  -0.000212  -0.000043  -0.000008  -0.000136  -0.000057   0.000023
    10  O    0.000000  -0.000000   0.000000  -0.000000   0.000000  -0.000000
    11  O   -0.000000   0.000000  -0.000000  -0.000000   0.000000   0.000000
    12  O   -0.000000  -0.000000  -0.000000  -0.000004  -0.000001   0.000000
    13  O    0.218383  -0.005132  -0.009731  -0.000000   0.000795   0.000001
    14  O   -0.011968  -0.010088   0.219304  -0.000005   0.017586   0.000001
    15  O    0.008902   0.217064   0.004635  -0.000001  -0.002572   0.000000
    16  O   -0.000050   0.000000   0.000183  -0.000000  -0.000004   0.000115
    17  O    0.000624  -0.000003   0.017930   0.000004  -0.000396  -0.000396
    18  O    0.014865   0.000006  -0.000252  -0.000000   0.000006  -0.000007
    19  O   -0.000024   0.000001   0.000031   0.004626  -0.008565   0.224196
    20  O    0.000000  -0.000000   0.000192   0.229610   0.007667  -0.001484
    21  O   -0.000019   0.000039  -0.004014  -0.002080   0.206455  -0.007146
    22  H    0.000000  -0.000000  -0.000000  -0.000000   0.000000   0.000000
    23  H    0.000000  -0.000000  -0.000000   0.000000   0.000000   0.000000
    24  H    0.000000  -0.000000   0.000000  -0.000000  -0.000000  -0.000000
    25  H    0.298978  -0.000012   0.000112   0.000000   0.000001   0.000000
    26  H   -0.000012   0.365998   0.000036   0.000000   0.000021  -0.000000
    27  H    0.000112   0.000036   0.283395  -0.000000  -0.001497   0.000009
    28  H    0.000000   0.000000  -0.000000   0.349174  -0.000017  -0.000016
    29  H    0.000001   0.000021  -0.001497  -0.000017   0.285940   0.000155
    30  H    0.000000  -0.000000   0.000009  -0.000016   0.000155   0.334236
    31  H   -0.000508   0.000000   0.000013  -0.000000   0.000000  -0.000000
    32  H   -0.000001   0.000000  -0.000000   0.000000  -0.000000  -0.000000
    33  H    0.000006  -0.000000  -0.002406  -0.000002   0.000099  -0.001158
              31         32         33
     1  Zr  -0.000213   0.002089  -0.016069
     2  O    0.000171  -0.000024   0.001027
     3  O   -0.000020   0.000040  -0.010107
     4  O   -0.018457   0.010322  -0.009618
     5  O   -0.000009   0.000001  -0.000101
     6  Si   0.063887   0.023005   0.053319
     7  Si   0.000155  -0.000665   0.020638
     8  Si  -0.001969   0.000053   0.000114
     9  Si  -0.000052   0.000009   0.000077
    10  O    0.000000  -0.000000  -0.000000
    11  O   -0.000000   0.000000   0.000000
    12  O    0.000000  -0.000000   0.000000
    13  O    0.002351  -0.000008   0.000231
    14  O    0.000165  -0.000006   0.002090
    15  O   -0.000018   0.000000  -0.000035
    16  O    0.003693   0.233333  -0.000095
    17  O   -0.000723  -0.003675   0.230958
    18  O    0.218214   0.003925   0.002091
    19  O    0.000004   0.000097   0.014857
    20  O   -0.000000   0.000000  -0.000082
    21  O   -0.000000   0.000001   0.001472
    22  H   -0.000000  -0.000000  -0.000000
    23  H   -0.000000  -0.000000  -0.000000
    24  H    0.000000  -0.000000  -0.000000
    25  H   -0.000508  -0.000001   0.000006
    26  H    0.000000   0.000000  -0.000000
    27  H    0.000013  -0.000000  -0.002406
    28  H   -0.000000   0.000000  -0.000002
    29  H    0.000000  -0.000000   0.000099
    30  H   -0.000000  -0.000000  -0.001158
    31  H    0.331629   0.000001  -0.000038
    32  H    0.000001   0.350128   0.000158
    33  H   -0.000038   0.000158   0.269232
 Mulliken charges:
               1
     1  Zr   0.003886
     2  O   -0.549825
     3  O   -0.418768
     4  O   -0.680608
     5  O   -0.368812
     6  Si   2.230363
     7  Si   1.786091
     8  Si   2.017016
     9  Si   1.600868
    10  O   -0.843955
    11  O   -0.787177
    12  O   -0.790932
    13  O   -0.841738
    14  O   -0.880436
    15  O   -0.877119
    16  O   -0.734035
    17  O   -0.968778
    18  O   -1.081418
    19  O   -0.988042
    20  O   -0.804672
    21  O   -0.829940
    22  H    0.385962
    23  H    0.372296
    24  H    0.365863
    25  H    0.414723
    26  H    0.378671
    27  H    0.429297
    28  H    0.375960
    29  H    0.447554
    30  H    0.411421
    31  H    0.401724
    32  H    0.381218
    33  H    0.443342
 Sum of Mulliken charges =  -0.00000
 Mulliken charges with hydrogens summed into heavy atoms:
               1
     1  Zr   0.003886
     2  O   -0.549825
     3  O   -0.418768
     4  O   -0.680608
     5  O   -0.368812
     6  Si   2.230363
     7  Si   1.786091
     8  Si   2.017016
     9  Si   1.600868
    10  O   -0.471660
    11  O   -0.421314
    12  O   -0.404970
    13  O   -0.427015
    14  O   -0.451139
    15  O   -0.498448
    16  O   -0.352817
    17  O   -0.525436
    18  O   -0.679693
    19  O   -0.576621
    20  O   -0.428712
    21  O   -0.382386
 Electronic spatial extent (au):  <R**2>=           9868.8821
 Charge=              0.0000 electrons
 Dipole moment (field-independent basis, Debye):
    X=              1.0815    Y=             -0.7687    Z=             -2.4074  Tot=              2.7489
 Quadrupole moment (field-independent basis, Debye-Ang):
   XX=           -160.2596   YY=           -154.6685   ZZ=           -157.7879
   XY=             -4.9524   XZ=              2.2241   YZ=              5.7154
 Traceless Quadrupole moment (field-independent basis, Debye-Ang):
   XX=             -2.6876   YY=              2.9035   ZZ=             -0.2159
   XY=             -4.9524   XZ=              2.2241   YZ=              5.7154
 Octapole moment (field-independent basis, Debye-Ang**2):
  XXX=             74.1677  YYY=              6.7018  ZZZ=            -18.6176  XYY=             -1.9306
  XXY=             20.4011  XXZ=             19.2555  XZZ=              5.3386  YZZ=            -17.0045
  YYZ=            -15.7109  XYZ=             28.1293
 Hexadecapole moment (field-independent basis, Debye-Ang**3):
 XXXX=          -6033.6513 YYYY=          -2834.4622 ZZZZ=          -2261.1092 XXXY=             56.7693
 XXXZ=            -24.3909 YYYX=              4.5773 YYYZ=            217.2753 ZZZX=           -183.9699
 ZZZY=            -54.9658 XXYY=          -1483.6662 XXZZ=          -1362.0058 YYZZ=           -925.2446
 XXYZ=             -7.3936 YYXZ=            130.2487 ZZXY=            -60.9361
 N-N= 2.832865692710D+03 E-N=-1.137833097080D+04  KE= 2.373154926272D+03
 1\1\GINC-GRA1261\FOpt\RB3LYP\Gen\H12O16Si4Zr1\SARASHS\14-Aug-2020\0\\#
 n B3LYP/Gen Pseudo=cards EmpiricalDispersion=GD3 Opt=modredundant\\Tit
 le\\0,1\Zr,0.6597990392,-0.1168826715,-0.1276698941\O,-0.2400066443,-0
 .7514182782,1.4762948284\O,0.1171468494,1.7464539067,-0.3519894588\O,-
 0.2572459929,-1.0991702581,-1.5794199944\O,2.5923042732,-0.4372287388,
 -0.0925661131\Si,-1.8191983436,-1.4747847765,-1.9173059435\Si,-1.09480
 66965,2.8464703506,-0.4214166753\Si,-1.7479448088,-0.9315002263,2.1198
 816169\Si,4.2166406337,-0.2618705309,0.0012882765\O,4.969172863,-0.234
 5038488,-1.4679043151\O,4.8858661358,-1.5452194298,0.8089190048\O,4.44
 86565022,1.1979249535,0.7341856326\O,-2.349125701,-2.4307973402,1.8286
 475062\O,-2.7357706381,0.2366325941,1.4397588579\O,-1.634655556,-0.653
 4148606,3.7316673356\O,-1.9764122734,-1.8459403182,-3.5161201798\O,-2.
 8115710413,-0.2700146317,-1.379411879\O,-2.3481664275,-2.7792914672,-1
 .0308159104\O,-2.0104418877,2.3300988814,-1.7359087795\O,-0.603507108,
 4.3768641474,-0.7730623121\O,-1.9574998699,2.8958420582,0.9688915013\H
 ,5.3380026561,1.5669672543,0.6975278427\H,5.3146488987,-1.078930722,-1
 .7788856199\H,4.4428181068,-1.8429239436,1.6112656743\H,-2.4278553055,
 -2.7004699289,0.8959340498\H,-2.4252169587,-0.803010566,4.2613993424\H
 ,-3.0647907874,0.0097133382,0.548614245\H,-0.498012079,4.9726167149,-0
 .0225832976\H,-2.2691457895,2.0339375387,1.3163299346\H,-2.6114708667,
 2.9909696452,-2.1019040167\H,-2.3039698998,-3.6379095152,-1.4665865861
 \H,-1.2409835319,-1.6010383855,-4.0886932515\H,-2.589617751,0.64955905
 49,-1.6495314221\\Version=ES64L-G16RevB.01\State=1-A\HF=-2416.946857\R
 MSD=7.722e-09\RMSF=4.718e-06\Dipole=0.4320097,-0.3879578,-0.9124067\Qu
 adrupole=-2.068512,2.9307426,-0.8622306,-3.5317577,1.9845881,3.9330385
 \PG=C01 [X(H12O16Si4Zr1)]\\@


 I WOULD TAKE COUNSEL OF MYSELF.
 I WOULD STOP AND LOOK WITHIN
 AND LOOKING WITHIN, LOOK BACK, ALSO
 THAT I MAY LOOK AHEAD WITH CLEARER UNDERSTANDING
 OF THE WAY I HAVE BEEN MOVING, AND IN WHAT DIRECTION.
 I NEED TO KNOW IF I AM GOING FORWARD OR RETREATING,
 WHETHER I HAVE BEEN WASTING, OR ENJOYING
 THE PRECIOUS MOMENTS OF LIFE.  THERE HAVE BEEN FRICTIONS,
 ANNOYANCES AND SOMETIMES WRATH,
 BUT WERE THEY BECAUSE I WAS RIGHT AND OTHERS WRONG.....
 HAVE I HAD MY THOUGHTS TOO SHARPLY FOCUSED
 ON THAT WHICH PLEASED ME, SERVED MY SELF-ESTEEM,
 UNDERGIRDED MY SECURITY,
 OF WHICH I DID NOT INQUIRE WHETHER IT SERVED OR HAMPERED OTHERS.....
 HAVE I BEEN TRYING TO STOP THE CLOCK
 TO HOLD THE WORLD
 IN PERPETUATION OF WHAT WAS AN IS ALREADY SLIPPING AWAY.....
 HAVE I BEEN CRITICAL OF OTHERS FOR WHAT REALLY NEEDED CHANGING IN ME...
 LET ME INDEED TAKE COUNSEL OF MYSELF
 AND SET MY DIRECTIONS STRAIGHT.

                          R.T. WESTON AS ADAPTED BY D. OSBORN 1967
 Job cpu time:       0 days 19 hours 59 minutes 46.1 seconds.
 Elapsed time:       0 days  1 hours 29 minutes 19.8 seconds.
 File lengths (MBytes):  RWF=    167 Int=      0 D2E=      0 Chk=     21 Scr=      1
 Normal termination of Gaussian 16 at Fri Aug 14 04:51:17 2020.
