 Entering Gaussian System, Link 0=g16
 Initial command:
 /opt/software/gaussian/g16.b01/l1.exe "/localscratch/sarashs.37242646.0/Gau-30369.inp" -scrdir="/localscratch/sarashs.37242646.0/"
 Entering Link 1 = /opt/software/gaussian/g16.b01/l1.exe PID=     30371.
  
 Copyright (c) 1988-2017, Gaussian, Inc.  All Rights Reserved.
  
 This is part of the Gaussian(R) 16 program.  It is based on
 the Gaussian(R) 09 system (copyright 2009, Gaussian, Inc.),
 the Gaussian(R) 03 system (copyright 2003, Gaussian, Inc.),
 the Gaussian(R) 98 system (copyright 1998, Gaussian, Inc.),
 the Gaussian(R) 94 system (copyright 1995, Gaussian, Inc.),
 the Gaussian 92(TM) system (copyright 1992, Gaussian, Inc.),
 the Gaussian 90(TM) system (copyright 1990, Gaussian, Inc.),
 the Gaussian 88(TM) system (copyright 1988, Gaussian, Inc.),
 the Gaussian 86(TM) system (copyright 1986, Carnegie Mellon
 University), and the Gaussian 82(TM) system (copyright 1983,
 Carnegie Mellon University). Gaussian is a federally registered
 trademark of Gaussian, Inc.
  
 This software contains proprietary and confidential information,
 including trade secrets, belonging to Gaussian, Inc.
  
 This software is provided under written license and may be
 used, copied, transmitted, or stored only in accord with that
 written license.
  
 The following legend is applicable only to US Government
 contracts under FAR:
  
                    RESTRICTED RIGHTS LEGEND
  
 Use, reproduction and disclosure by the US Government is
 subject to restrictions as set forth in subparagraphs (a)
 and (c) of the Commercial Computer Software - Restricted
 Rights clause in FAR 52.227-19.
  
 Gaussian, Inc.
 340 Quinnipiac St., Bldg. 40, Wallingford CT 06492
  
  
 ---------------------------------------------------------------
 Warning -- This program may not be used in any manner that
 competes with the business of Gaussian, Inc. or will provide
 assistance to any competitor of Gaussian, Inc.  The licensee
 of this program is prohibited from giving any competitor of
 Gaussian, Inc. access to this program.  By using this program,
 the user acknowledges that Gaussian, Inc. is engaged in the
 business of creating and licensing software in the field of
 computational chemistry and represents and warrants to the
 licensee that it is not a competitor of Gaussian, Inc. and that
 it will not use this program in any manner prohibited above.
 ---------------------------------------------------------------
  

 Cite this work as:
 Gaussian 16, Revision B.01,
 M. J. Frisch, G. W. Trucks, H. B. Schlegel, G. E. Scuseria, 
 M. A. Robb, J. R. Cheeseman, G. Scalmani, V. Barone, 
 G. A. Petersson, H. Nakatsuji, X. Li, M. Caricato, A. V. Marenich, 
 J. Bloino, B. G. Janesko, R. Gomperts, B. Mennucci, H. P. Hratchian, 
 J. V. Ortiz, A. F. Izmaylov, J. L. Sonnenberg, D. Williams-Young, 
 F. Ding, F. Lipparini, F. Egidi, J. Goings, B. Peng, A. Petrone, 
 T. Henderson, D. Ranasinghe, V. G. Zakrzewski, J. Gao, N. Rega, 
 G. Zheng, W. Liang, M. Hada, M. Ehara, K. Toyota, R. Fukuda, 
 J. Hasegawa, M. Ishida, T. Nakajima, Y. Honda, O. Kitao, H. Nakai, 
 T. Vreven, K. Throssell, J. A. Montgomery, Jr., J. E. Peralta, 
 F. Ogliaro, M. J. Bearpark, J. J. Heyd, E. N. Brothers, K. N. Kudin, 
 V. N. Staroverov, T. A. Keith, R. Kobayashi, J. Normand, 
 K. Raghavachari, A. P. Rendell, J. C. Burant, S. S. Iyengar, 
 J. Tomasi, M. Cossi, J. M. Millam, M. Klene, C. Adamo, R. Cammi, 
 J. W. Ochterski, R. L. Martin, K. Morokuma, O. Farkas, 
 J. B. Foresman, and D. J. Fox, Gaussian, Inc., Wallingford CT, 2016.
 
 ******************************************
 Gaussian 16:  ES64L-G16RevB.01 20-Dec-2017
                14-Aug-2020 
 ******************************************
 %NProcShared=16
 Will use up to   16 processors via shared memory.
 ------------------------------------------------------------------
 #n B3LYP/Gen Pseudo=cards EmpiricalDispersion=GD3 Opt=modredundant
 ------------------------------------------------------------------
 1/18=120,19=15,26=3,38=1/1,3;
 2/9=110,12=2,17=6,18=5,40=1/2;
 3/5=7,11=2,16=1,17=8,25=1,30=1,71=1,74=-5,124=31/1,2,3;
 4//1;
 5/5=2,38=5/2;
 6/7=2,8=2,9=2,10=2,28=1/1;
 7//1,2,3,16;
 1/18=20,19=15,26=3/3(2);
 2/9=110/2;
 99//99;
 2/9=110/2;
 3/5=7,6=1,11=2,16=1,17=8,25=1,30=1,71=1,74=-5,82=7,124=31/1,2,3;
 4/5=5,16=3,69=1/1;
 5/5=2,38=5/2;
 7//1,2,3,16;
 1/18=20,19=15,26=3/3(-5);
 2/9=110/2;
 6/7=2,8=2,9=2,10=2,19=2,28=1/1;
 99/9=1/99;
 -----
 Title
 -----
 Symbolic Z-matrix:
 Charge =  0 Multiplicity = 1
 Zr                    0.65741  -0.12812  -0.05952 
 O                    -0.21824  -0.94651   1.47294 
 O                     0.1       1.74433  -0.0657 
 O                    -0.2714   -0.94733  -1.60215 
 O                     2.59206  -0.4363   -0.08284 
 Si                   -1.83472  -1.29467  -1.96295 
 Si                   -1.11989   2.83562   0.00311 
 Si                   -1.7172   -1.21013   2.10863 
 Si                    4.21631  -0.26105   0.01252 
 O                     4.95566  -0.09972  -1.45475 
 O                     4.89877  -1.60704   0.69775 
 O                     4.44778   1.12944   0.86985 
 O                    -2.31177  -2.67186   1.65695 
 O                    -2.72072   0.01932   1.57545 
 O                    -1.58683  -1.11472   3.74019 
 O                    -2.00878  -1.48411  -3.5916 
 O                    -2.8285   -0.16594  -1.28171 
 O                    -2.34419  -2.69498  -1.22334 
 O                    -2.04772   2.46377  -1.35104 
 O                    -0.64268   4.39971  -0.17868 
 O                    -1.96623   2.72096   1.39959 
 H                     5.33501   1.50516   0.85865 
 H                     5.3042   -0.91111  -1.84112 
 H                     4.46373  -1.97795   1.47352 
 H                    -2.40047  -2.83518   0.70074 
 H                    -2.36926  -1.3326    4.25819 
 H                    -3.05894  -0.10811   0.6681 
 H                    -0.53302   4.90781   0.63316 
 H                    -2.26793   1.82289   1.65094 
 H                    -2.65748   3.15693  -1.63328 
 H                    -2.30444  -3.49785  -1.7552 
 H                    -1.28029  -1.17361  -4.14075 
 H                    -2.61541   0.77988  -1.44867 
 
 The following ModRedundant input section has been read:
 A       1       5       9 F                                                   
 

 GradGradGradGradGradGradGradGradGradGradGradGradGradGradGradGradGradGrad
 Berny optimization.
 Initialization pass.
                           ----------------------------
                           !    Initial Parameters    !
                           ! (Angstroms and Degrees)  !
 --------------------------                            --------------------------
 ! Name  Definition              Value          Derivative Info.                !
 --------------------------------------------------------------------------------
 ! R1    R(1,2)                  1.9455         estimate D2E/DX2                !
 ! R2    R(1,3)                  1.9537         estimate D2E/DX2                !
 ! R3    R(1,4)                  1.9783         estimate D2E/DX2                !
 ! R4    R(1,5)                  1.9592         estimate D2E/DX2                !
 ! R5    R(2,8)                  1.6494         estimate D2E/DX2                !
 ! R6    R(3,7)                  1.6382         estimate D2E/DX2                !
 ! R7    R(4,6)                  1.6416         estimate D2E/DX2                !
 ! R8    R(5,9)                  1.6365         estimate D2E/DX2                !
 ! R9    R(6,16)                 1.6488         estimate D2E/DX2                !
 ! R10   R(6,17)                 1.651          estimate D2E/DX2                !
 ! R11   R(6,18)                 1.6636         estimate D2E/DX2                !
 ! R12   R(7,19)                 1.6831         estimate D2E/DX2                !
 ! R13   R(7,20)                 1.6453         estimate D2E/DX2                !
 ! R14   R(7,21)                 1.6369         estimate D2E/DX2                !
 ! R15   R(8,13)                 1.6414         estimate D2E/DX2                !
 ! R16   R(8,14)                 1.6742         estimate D2E/DX2                !
 ! R17   R(8,15)                 1.6395         estimate D2E/DX2                !
 ! R18   R(9,10)                 1.6509         estimate D2E/DX2                !
 ! R19   R(9,11)                 1.6574         estimate D2E/DX2                !
 ! R20   R(9,12)                 1.6499         estimate D2E/DX2                !
 ! R21   R(10,23)                0.9639         estimate D2E/DX2                !
 ! R22   R(11,24)                0.9637         estimate D2E/DX2                !
 ! R23   R(12,22)                0.9636         estimate D2E/DX2                !
 ! R24   R(13,25)                0.9741         estimate D2E/DX2                !
 ! R25   R(14,27)                0.9767         estimate D2E/DX2                !
 ! R26   R(15,26)                0.9633         estimate D2E/DX2                !
 ! R27   R(16,32)                0.9637         estimate D2E/DX2                !
 ! R28   R(17,33)                0.9838         estimate D2E/DX2                !
 ! R29   R(18,31)                0.9639         estimate D2E/DX2                !
 ! R30   R(19,30)                0.9654         estimate D2E/DX2                !
 ! R31   R(20,28)                0.964          estimate D2E/DX2                !
 ! R32   R(21,29)                0.9802         estimate D2E/DX2                !
 ! A1    A(2,1,3)              106.0959         estimate D2E/DX2                !
 ! A2    A(2,1,4)              103.2217         estimate D2E/DX2                !
 ! A3    A(2,1,5)              112.809          estimate D2E/DX2                !
 ! A4    A(3,1,4)              105.0978         estimate D2E/DX2                !
 ! A5    A(3,1,5)              115.6242         estimate D2E/DX2                !
 ! A6    A(4,1,5)              112.9053         estimate D2E/DX2                !
 ! A7    A(1,2,8)              141.2478         estimate D2E/DX2                !
 ! A8    A(1,3,7)              148.2959         estimate D2E/DX2                !
 ! A9    A(1,4,6)              134.9213         estimate D2E/DX2                !
 ! A10   A(1,5,9)              164.275          Frozen                          !
 ! A11   A(4,6,16)             109.995          estimate D2E/DX2                !
 ! A12   A(4,6,17)             109.7483         estimate D2E/DX2                !
 ! A13   A(4,6,18)             111.8415         estimate D2E/DX2                !
 ! A14   A(16,6,17)            114.9977         estimate D2E/DX2                !
 ! A15   A(16,6,18)            108.0657         estimate D2E/DX2                !
 ! A16   A(17,6,18)            101.987          estimate D2E/DX2                !
 ! A17   A(3,7,19)             103.2692         estimate D2E/DX2                !
 ! A18   A(3,7,20)             114.3702         estimate D2E/DX2                !
 ! A19   A(3,7,21)             111.973          estimate D2E/DX2                !
 ! A20   A(19,7,20)            106.3206         estimate D2E/DX2                !
 ! A21   A(19,7,21)            112.698          estimate D2E/DX2                !
 ! A22   A(20,7,21)            108.1074         estimate D2E/DX2                !
 ! A23   A(2,8,13)             111.4368         estimate D2E/DX2                !
 ! A24   A(2,8,14)             107.7358         estimate D2E/DX2                !
 ! A25   A(2,8,15)             107.5759         estimate D2E/DX2                !
 ! A26   A(13,8,14)            110.4392         estimate D2E/DX2                !
 ! A27   A(13,8,15)            110.7608         estimate D2E/DX2                !
 ! A28   A(14,8,15)            108.7749         estimate D2E/DX2                !
 ! A29   A(5,9,10)             113.7768         estimate D2E/DX2                !
 ! A30   A(5,9,11)             110.2316         estimate D2E/DX2                !
 ! A31   A(5,9,12)             105.0573         estimate D2E/DX2                !
 ! A32   A(10,9,11)            105.2125         estimate D2E/DX2                !
 ! A33   A(10,9,12)            108.46           estimate D2E/DX2                !
 ! A34   A(11,9,12)            114.3199         estimate D2E/DX2                !
 ! A35   A(9,10,23)            115.8441         estimate D2E/DX2                !
 ! A36   A(9,11,24)            117.3556         estimate D2E/DX2                !
 ! A37   A(9,12,22)            116.857          estimate D2E/DX2                !
 ! A38   A(8,13,25)            116.899          estimate D2E/DX2                !
 ! A39   A(8,14,27)            114.0555         estimate D2E/DX2                !
 ! A40   A(8,15,26)            117.2168         estimate D2E/DX2                !
 ! A41   A(6,16,32)            116.4905         estimate D2E/DX2                !
 ! A42   A(6,17,33)            117.1858         estimate D2E/DX2                !
 ! A43   A(6,18,31)            116.3078         estimate D2E/DX2                !
 ! A44   A(7,19,30)            115.1369         estimate D2E/DX2                !
 ! A45   A(7,20,28)            116.1674         estimate D2E/DX2                !
 ! A46   A(7,21,29)            116.237          estimate D2E/DX2                !
 ! D1    D(3,1,2,8)             57.7299         estimate D2E/DX2                !
 ! D2    D(4,1,2,8)            -52.5296         estimate D2E/DX2                !
 ! D3    D(5,1,2,8)           -174.7062         estimate D2E/DX2                !
 ! D4    D(2,1,3,7)            -50.0987         estimate D2E/DX2                !
 ! D5    D(4,1,3,7)             58.8311         estimate D2E/DX2                !
 ! D6    D(5,1,3,7)           -175.9647         estimate D2E/DX2                !
 ! D7    D(2,1,4,6)             42.7688         estimate D2E/DX2                !
 ! D8    D(3,1,4,6)            -68.2307         estimate D2E/DX2                !
 ! D9    D(5,1,4,6)            164.8809         estimate D2E/DX2                !
 ! D10   D(2,1,5,9)           -106.9247         estimate D2E/DX2                !
 ! D11   D(3,1,5,9)             15.4383         estimate D2E/DX2                !
 ! D12   D(4,1,5,9)            136.5204         estimate D2E/DX2                !
 ! D13   D(1,2,8,13)            93.5299         estimate D2E/DX2                !
 ! D14   D(1,2,8,14)           -27.7663         estimate D2E/DX2                !
 ! D15   D(1,2,8,15)          -144.8806         estimate D2E/DX2                !
 ! D16   D(1,3,7,19)           -61.1009         estimate D2E/DX2                !
 ! D17   D(1,3,7,20)          -176.1748         estimate D2E/DX2                !
 ! D18   D(1,3,7,21)            60.4102         estimate D2E/DX2                !
 ! D19   D(1,4,6,16)           160.1672         estimate D2E/DX2                !
 ! D20   D(1,4,6,17)            32.6919         estimate D2E/DX2                !
 ! D21   D(1,4,6,18)           -79.7425         estimate D2E/DX2                !
 ! D22   D(1,5,9,10)          -101.4784         estimate D2E/DX2                !
 ! D23   D(1,5,9,11)           140.6194         estimate D2E/DX2                !
 ! D24   D(1,5,9,12)            17.0005         estimate D2E/DX2                !
 ! D25   D(4,6,16,32)          -14.2007         estimate D2E/DX2                !
 ! D26   D(17,6,16,32)         110.2978         estimate D2E/DX2                !
 ! D27   D(18,6,16,32)        -136.5531         estimate D2E/DX2                !
 ! D28   D(4,6,17,33)           51.0095         estimate D2E/DX2                !
 ! D29   D(16,6,17,33)         -73.6184         estimate D2E/DX2                !
 ! D30   D(18,6,17,33)         169.716          estimate D2E/DX2                !
 ! D31   D(4,6,18,31)          -96.4424         estimate D2E/DX2                !
 ! D32   D(16,6,18,31)          24.7708         estimate D2E/DX2                !
 ! D33   D(17,6,18,31)         146.3488         estimate D2E/DX2                !
 ! D34   D(3,7,19,30)         -162.1836         estimate D2E/DX2                !
 ! D35   D(20,7,19,30)         -41.4664         estimate D2E/DX2                !
 ! D36   D(21,7,19,30)          76.7959         estimate D2E/DX2                !
 ! D37   D(3,7,20,28)          -98.4268         estimate D2E/DX2                !
 ! D38   D(19,7,20,28)         148.2948         estimate D2E/DX2                !
 ! D39   D(21,7,20,28)          27.0447         estimate D2E/DX2                !
 ! D40   D(3,7,21,29)          -49.9006         estimate D2E/DX2                !
 ! D41   D(19,7,21,29)          66.0149         estimate D2E/DX2                !
 ! D42   D(20,7,21,29)        -176.7756         estimate D2E/DX2                !
 ! D43   D(2,8,13,25)          -58.468          estimate D2E/DX2                !
 ! D44   D(14,8,13,25)          61.2401         estimate D2E/DX2                !
 ! D45   D(15,8,13,25)        -178.1892         estimate D2E/DX2                !
 ! D46   D(2,8,14,27)           80.2923         estimate D2E/DX2                !
 ! D47   D(13,8,14,27)         -41.6243         estimate D2E/DX2                !
 ! D48   D(15,8,14,27)        -163.3753         estimate D2E/DX2                !
 ! D49   D(2,8,15,26)         -174.1994         estimate D2E/DX2                !
 ! D50   D(13,8,15,26)         -52.1892         estimate D2E/DX2                !
 ! D51   D(14,8,15,26)          69.3657         estimate D2E/DX2                !
 ! D52   D(5,9,10,23)          -94.8502         estimate D2E/DX2                !
 ! D53   D(11,9,10,23)          25.9079         estimate D2E/DX2                !
 ! D54   D(12,9,10,23)         148.64           estimate D2E/DX2                !
 ! D55   D(5,9,11,24)          -43.8205         estimate D2E/DX2                !
 ! D56   D(10,9,11,24)        -166.8799         estimate D2E/DX2                !
 ! D57   D(12,9,11,24)          74.2393         estimate D2E/DX2                !
 ! D58   D(5,9,12,22)         -166.4771         estimate D2E/DX2                !
 ! D59   D(10,9,12,22)         -44.4742         estimate D2E/DX2                !
 ! D60   D(11,9,12,22)          72.5545         estimate D2E/DX2                !
 --------------------------------------------------------------------------------
 Trust Radius=3.00D-01 FncErr=1.00D-07 GrdErr=1.00D-06 EigMax=2.50D+02 EigMin=1.00D-04
 Number of steps in this run=    148 maximum allowed number of steps=    198.
 GradGradGradGradGradGradGradGradGradGradGradGradGradGradGradGradGradGrad

                          Input orientation:                          
 ---------------------------------------------------------------------
 Center     Atomic      Atomic             Coordinates (Angstroms)
 Number     Number       Type             X           Y           Z
 ---------------------------------------------------------------------
      1         40           0        0.657410   -0.128120   -0.059520
      2          8           0       -0.218240   -0.946510    1.472940
      3          8           0        0.100000    1.744330   -0.065700
      4          8           0       -0.271400   -0.947330   -1.602150
      5          8           0        2.592060   -0.436300   -0.082840
      6         14           0       -1.834720   -1.294670   -1.962950
      7         14           0       -1.119890    2.835620    0.003110
      8         14           0       -1.717200   -1.210130    2.108630
      9         14           0        4.216310   -0.261050    0.012520
     10          8           0        4.955660   -0.099720   -1.454750
     11          8           0        4.898770   -1.607040    0.697750
     12          8           0        4.447780    1.129440    0.869850
     13          8           0       -2.311770   -2.671860    1.656950
     14          8           0       -2.720720    0.019320    1.575450
     15          8           0       -1.586830   -1.114720    3.740190
     16          8           0       -2.008780   -1.484110   -3.591600
     17          8           0       -2.828500   -0.165940   -1.281710
     18          8           0       -2.344190   -2.694980   -1.223340
     19          8           0       -2.047720    2.463770   -1.351040
     20          8           0       -0.642680    4.399710   -0.178680
     21          8           0       -1.966230    2.720960    1.399590
     22          1           0        5.335010    1.505160    0.858650
     23          1           0        5.304200   -0.911110   -1.841120
     24          1           0        4.463730   -1.977950    1.473520
     25          1           0       -2.400470   -2.835180    0.700740
     26          1           0       -2.369260   -1.332600    4.258190
     27          1           0       -3.058940   -0.108110    0.668100
     28          1           0       -0.533020    4.907810    0.633160
     29          1           0       -2.267930    1.822890    1.650940
     30          1           0       -2.657480    3.156930   -1.633280
     31          1           0       -2.304440   -3.497850   -1.755200
     32          1           0       -1.280290   -1.173610   -4.140750
     33          1           0       -2.615410    0.779880   -1.448670
 ---------------------------------------------------------------------
                    Distance matrix (angstroms):
                    1          2          3          4          5
     1  Zr   0.000000
     2  O    1.945497   0.000000
     3  O    1.953667   3.115977   0.000000
     4  O    1.978257   3.075550   3.121482   0.000000
     5  O    1.959181   3.252469   3.311466   3.281594   0.000000
     6  Si   3.345833   3.813078   4.071636   1.641582   4.885488
     7  Si   3.456367   4.156667   1.638225   4.196130   4.948881
     8  Si   3.392697   1.649387   4.093747   3.991151   4.896026
     9  Si   3.562110   4.718889   4.579484   4.818473   1.636458
    10  O    4.519118   6.004803   5.376562   5.297389   2.753548
    11  O    4.555194   5.217376   5.902773   5.696965   2.702011
    12  O    4.100255   5.142473   4.489603   5.717903   2.608229
    13  O    4.270001   2.719110   5.318542   4.214125   5.663228
    14  O    3.755879   2.684351   3.691273   4.126830   5.584187
    15  O    4.521923   2.653631   5.050184   5.504450   5.704291
    16  O    4.628484   5.398575   5.225108   2.695280   5.880224
    17  O    3.694150   3.874383   3.701881   2.692956   5.558134
    18  O    4.117384   3.853146   5.198237   2.737560   5.546976
    19  O    3.962783   4.790811   2.604303   3.854085   5.616609
    20  O    4.712290   5.611601   2.759598   5.545715   5.818911
    21  O    4.138810   4.063396   2.714809   5.033810   5.739677
    22  H    5.038907   6.101362   5.321368   6.595610   3.489906
    23  H    5.037840   6.440620   6.106323   5.580836   3.266909
    24  H    4.501128   4.794237   5.938578   5.739632   2.881335
    25  H    4.154130   2.987557   5.273679   3.660631   5.594102
    26  H    5.408708   3.540278   5.853270   6.236428   6.653014
    27  H    3.786963   3.069244   3.734822   3.691708   5.710116
    28  H    5.220874   5.922616   3.301019   6.272776   6.232038
    29  H    3.910208   3.449998   2.925768   4.716232   5.632889
    30  H    4.925116   5.695324   3.472239   4.747557   6.547735
    31  H    4.796141   4.613291   6.009675   3.265246   6.012120
    32  H    4.637259   5.717783   5.198616   2.741086   5.657327
    33  H    3.669544   4.154835   3.196282   2.915681   5.519269
                    6          7          8          9         10
     6  Si   0.000000
     7  Si   4.629867   0.000000
     8  Si   4.074153   4.599792   0.000000
     9  Si   6.448707   6.169642   6.364037   0.000000
    10  O    6.913424   6.903179   7.645767   1.650923   0.000000
    11  O    7.246847   7.512924   6.776369   1.657402   2.628404
    12  O    7.305537   5.887380   6.709332   1.649865   2.678160
    13  O    3.902295   5.872657   1.641397   7.150663   8.313490
    14  O    3.877092   3.600896   1.674181   7.116442   8.253671
    15  O    5.711360   5.457929   1.639539   6.949871   8.415569
    16  O    1.648844   5.689651   5.714255   7.296390   7.415260
    17  O    1.650975   3.685034   3.717489   7.163339   7.786365
    18  O    1.663566   5.795742   3.701340   7.105739   7.750918
    19  O    3.813879   1.683111   5.057282   6.965774   7.458523
    20  O    6.085273   1.645343   6.152779   6.735653   7.294836
    21  O    5.239204   1.636947   4.002277   7.002867   8.001003
    22  H    8.197896   6.645886   7.659564   2.255421   2.841015
    23  H    7.150255   7.662121   8.061637   2.245454   0.963906
    24  H    7.207404   7.517272   6.260735   2.267925   3.513475
    25  H    3.128656   5.855301   2.256058   7.133132   8.138890
    26  H    6.244178   6.086106   2.249620   7.908455   9.370813
    27  H    3.135134   3.587154   2.256068   7.306329   8.290982
    28  H    6.848720   2.243959   6.403787   7.046875   7.717534
    29  H    4.792395   2.249214   3.116407   7.005183   8.094566
    30  H    4.538982   2.268302   5.827283   7.851129   8.282363
    31  H    2.262255   6.678896   4.528542   7.491454   8.021634
    32  H    2.250525   5.768122   6.264741   6.949462   6.874221
    33  H    2.275460   2.927510   4.173884   7.063357   7.621997
                   11         12         13         14         15
    11  O    0.000000
    12  O    2.778729   0.000000
    13  O    7.351584   7.794929   0.000000
    14  O    7.840410   7.288184   2.723294   0.000000
    15  O    7.180656   7.049229   2.700021   2.694040   0.000000
    16  O    8.131905   8.271780   5.389789   5.428219   7.353206
    17  O    8.105907   7.697498   3.896456   2.865188   5.259411
    18  O    7.571966   8.070842   2.880565   3.916941   5.263786
    19  O    8.307994   6.993162   5.957552   3.872029   6.240083
    20  O    8.219297   6.140592   7.494164   5.155874   6.830659
    21  O    8.145698   6.629712   5.410004   2.810523   4.509412
    22  H    3.146742   0.963570   8.749744   8.222914   7.942223
    23  H    2.663560   3.499523   8.563862   8.771430   8.870106
    24  H    0.963666   3.165524   6.813410   7.457600   6.518607
    25  H    7.401840   7.914881   0.974104   3.002640   3.586119
    26  H    8.097920   8.000908   2.926324   3.024617   0.963324
    27  H    8.097705   7.610721   2.847613   0.976686   3.552198
    28  H    8.482440   6.256235   7.852611   5.437948   6.858208
    29  H    8.002161   6.796450   4.494968   1.861070   3.668571
    30  H    9.231794   7.801352   6.702233   4.488267   6.947479
    31  H    7.840814   8.596230   3.510709   4.861790   6.032710
    32  H    7.860008   7.951160   6.076350   6.014388   7.887119
    33  H    8.171133   7.442203   4.653126   3.120071   5.618875
                   16         17         18         19         20
    16  O    0.000000
    17  O    2.783003   0.000000
    18  O    2.680925   2.575657   0.000000
    19  O    4.539535   2.744048   5.168840   0.000000
    20  O    6.937838   5.180699   7.370283   2.663912   0.000000
    21  O    6.526592   4.033246   6.029513   2.763829   2.657240
    22  H    9.092399   8.603291   8.996998   7.765717   6.722146
    23  H    7.541365   8.185904   7.877926   8.104364   8.144562
    24  H    8.233633   8.003205   7.357646   8.372932   8.335450
    25  H    4.516967   3.352336   1.930002   5.693251   7.497122
    26  H    7.859523   5.680008   5.648352   6.780802   7.451595
    27  H    4.597962   1.964232   3.283338   3.422581   5.184187
    28  H    7.802763   5.888879   8.033016   3.493522   0.963989
    29  H    6.203840   3.587495   5.355226   3.077516   3.553723
    30  H    5.078886   3.345791   5.874611   0.965369   2.778450
    31  H    2.741337   3.405944   0.963875   5.980816   8.223036
    32  H    0.963677   3.403889   3.457995   4.647791   6.867783
    33  H    3.175815   0.983798   3.492705   1.779688   4.313665
                   21         22         23         24         25
    21  O    0.000000
    22  H    7.421515   0.000000
    23  H    8.749473   3.623268   0.000000
    24  H    7.964271   3.642698   3.582091   0.000000
    25  H    5.616729   8.871366   8.338168   6.960551   0.000000
    26  H    4.976482   8.886255   9.811280   7.406795   3.861887
    27  H    3.119732   8.549699   8.768301   7.793303   2.805630
    28  H    2.724669   6.786947   8.605523   8.549117   7.965289
    29  H    0.980168   7.650711   8.775329   7.732600   4.755845
    30  H    3.141050   8.533344   8.943181   9.312939   6.435766
    31  H    6.981453   9.498606   8.036791   7.651330   2.545583
    32  H    6.806876   8.713897   6.979449   8.072221   5.239813
    33  H    3.507394   8.310171   8.107631   8.139966   4.211273
                   26         27         28         29         30
    26  H    0.000000
    27  H    3.855357   0.000000
    28  H    7.446834   5.616133   0.000000
    29  H    4.094525   2.306606   3.682733   0.000000
    30  H    7.412717   4.014724   3.565903   3.566162   0.000000
    31  H    6.391664   4.234618   8.916127   6.317705   6.665253
    32  H    8.470734   5.236786   7.767387   6.595310   5.190148
    33  H    6.090272   2.337939   5.070520   3.288798   2.384579
                   31         32         33
    31  H    0.000000
    32  H    3.484512   0.000000
    33  H    4.299958   3.584127   0.000000
 Stoichiometry    H12O16Si4Zr
 Framework group  C1[X(H12O16Si4Zr)]
 Deg. of freedom    93
 Full point group                 C1      NOp   1
 Largest Abelian subgroup         C1      NOp   1
 Largest concise Abelian subgroup C1      NOp   1
                         Standard orientation:                         
 ---------------------------------------------------------------------
 Center     Atomic      Atomic             Coordinates (Angstroms)
 Number     Number       Type             X           Y           Z
 ---------------------------------------------------------------------
      1         40           0        0.657798   -0.124993   -0.071832
      2          8           0       -0.222647   -0.907099    1.476744
      3          8           0        0.102906    1.747541   -0.122071
      4          8           0       -0.268374   -0.977981   -1.597649
      5          8           0        2.592085   -0.436101   -0.083383
      6         14           0       -1.831279   -1.331457   -1.954260
      7         14           0       -1.115688    2.841678   -0.081149
      8         14           0       -1.723490   -1.154234    2.114609
      9         14           0        4.216333   -0.260802    0.011931
     10          8           0        4.959442   -0.133923   -1.456823
     11          8           0        4.895335   -1.591687    0.729343
     12          8           0        4.447586    1.148581    0.837895
     13          8           0       -2.318919   -2.625122    1.694924
     14          8           0       -2.724075    0.064021    1.551079
     15          8           0       -1.596938   -1.021807    3.743884
     16          8           0       -2.001654   -1.557768   -3.578588
     17          8           0       -2.825195   -0.186213   -1.301369
     18          8           0       -2.344406   -2.713882   -1.184160
     19          8           0       -2.040737    2.440230   -1.428734
     20          8           0       -0.635951    4.400603   -0.297389
     21          8           0       -1.965554    2.759979    1.315507
     22          1           0        5.335342    1.522812    0.820302
     23          1           0        5.307831   -0.954359   -1.823736
     24          1           0        4.457926   -1.944252    1.512302
     25          1           0       -2.405525   -2.810093    0.742473
     26          1           0       -2.380908   -1.226814    4.264801
     27          1           0       -3.060270   -0.083636    0.646045
     28          1           0       -0.527575    4.926944    0.502920
     29          1           0       -2.269060    1.868262    1.586531
     30          1           0       -2.648887    3.127553   -1.728198
     31          1           0       -2.304443   -3.528723   -1.697476
     32          1           0       -1.271425   -1.260805   -4.132890
     33          1           0       -2.610438    0.755280   -1.489331
 ---------------------------------------------------------------------
 Rotational constants (GHZ):           0.2124051           0.1338463           0.1240663
 General basis read from cards:  (5D, 7F)
 ======================================================================================================
                                       Pseudopotential Parameters
 ======================================================================================================
  Center     Atomic      Valence      Angular      Power
  Number     Number     Electrons     Momentum     of R      Exponent        Coefficient   SO-Coeffient
 ======================================================================================================
    1         40           12
                                      G and up 
                                                     2        1.0000000        0.00000000    0.00000000
                                      S - G
                                                     2        8.6365280      150.24299400    0.00000000
                                                     2        3.7176390       18.78003600    0.00000000
                                      P - G
                                                     2        7.6267280       33.19279100    0.00000000
                                                     2        7.4532070       66.38903900    0.00000000
                                                     2        3.3583890        4.62072600    0.00000000
                                                     2        3.2297380        9.26027000    0.00000000
                                      D - G
                                                     2        5.9380860       13.99338300    0.00000000
                                                     2        5.8255440       20.99588200    0.00000000
                                                     2        2.2050190        2.28516600    0.00000000
                                                     2        2.2062920        3.44126000    0.00000000
                                      F - G
                                                     2        4.8002150       -5.23932000    0.00000000
                                                     2        4.7989920       -6.98742400    0.00000000
    2          8
                                   No pseudopotential on this center.
    3          8
                                   No pseudopotential on this center.
    4          8
                                   No pseudopotential on this center.
    5          8
                                   No pseudopotential on this center.
    6         14
                                   No pseudopotential on this center.
    7         14
                                   No pseudopotential on this center.
    8         14
                                   No pseudopotential on this center.
    9         14
                                   No pseudopotential on this center.
   10          8
                                   No pseudopotential on this center.
   11          8
                                   No pseudopotential on this center.
   12          8
                                   No pseudopotential on this center.
   13          8
                                   No pseudopotential on this center.
   14          8
                                   No pseudopotential on this center.
   15          8
                                   No pseudopotential on this center.
   16          8
                                   No pseudopotential on this center.
   17          8
                                   No pseudopotential on this center.
   18          8
                                   No pseudopotential on this center.
   19          8
                                   No pseudopotential on this center.
   20          8
                                   No pseudopotential on this center.
   21          8
                                   No pseudopotential on this center.
   22          1
                                   No pseudopotential on this center.
   23          1
                                   No pseudopotential on this center.
   24          1
                                   No pseudopotential on this center.
   25          1
                                   No pseudopotential on this center.
   26          1
                                   No pseudopotential on this center.
   27          1
                                   No pseudopotential on this center.
   28          1
                                   No pseudopotential on this center.
   29          1
                                   No pseudopotential on this center.
   30          1
                                   No pseudopotential on this center.
   31          1
                                   No pseudopotential on this center.
   32          1
                                   No pseudopotential on this center.
   33          1
                                   No pseudopotential on this center.
 ======================================================================================================
 There are   570 symmetry adapted cartesian basis functions of A   symmetry.
 There are   524 symmetry adapted basis functions of A   symmetry.
   524 basis functions,  1074 primitive gaussians,   570 cartesian basis functions
   104 alpha electrons      104 beta electrons
       nuclear repulsion energy      2832.9143808141 Hartrees.
 NAtoms=   33 NActive=   33 NUniq=   33 SFac= 1.00D+00 NAtFMM=   60 NAOKFM=F Big=F
 Integral buffers will be    131072 words long.
 Raffenetti 2 integral format.
 Two-electron integral symmetry is turned on.
 Nuclear repulsion after empirical dispersion term =     2832.8735752507 Hartrees.
 One-electron integrals computed using PRISM.
 PrsmSu:  requested number of processors reduced to:   4 ShMem   1 Linda.
   1 Symmetry operations used in ECPInt.
 ECPInt:  NShTT=   13203 NPrTT=   78401 LenC2=   11526 LenP2D=   44635.
 LDataN:  DoStor=T MaxTD1= 8 Len=  415
 Number of processors reduced to  13 by ecpmxn.
 NBasis=   524 RedAO= T EigKep=  3.16D-05  NBF=   524
 NBsUse=   524 1.00D-06 EigRej= -1.00D+00 NBFU=   524
 Defaulting to unpruned grid for atomic number  40.
 ExpMin= 1.01D-02 ExpMax= 1.61D+04 ExpMxC= 2.43D+03 IAcc=3 IRadAn=         5 AccDes= 0.00D+00
 Harris functional with IExCor=  402 and IRadAn=       5 diagonalized for initial guess.
 HarFok:  IExCor=  402 AccDes= 0.00D+00 IRadAn=         5 IDoV= 1 UseB2=F ITyADJ=14
 ICtDFT=  3500011 ScaDFX=  1.000000  1.000000  1.000000  1.000000
 Defaulting to unpruned grid for atomic number  40.
 FoFCou: FMM=F IPFlag=           0 FMFlag=      100000 FMFlg1=           0
         NFxFlg=           0 DoJE=T BraDBF=F KetDBF=T FulRan=T
         wScrn=  0.000000 ICntrl=       500 IOpCl=  0 I1Cent=   200000004 NGrid=           0
         NMat0=    1 NMatS0=      1 NMatT0=    0 NMatD0=    1 NMtDS0=    0 NMtDT0=    0
 Petite list used in FoFCou.
 Requested convergence on RMS density matrix=1.00D-08 within 128 cycles.
 Requested convergence on MAX density matrix=1.00D-06.
 Requested convergence on             energy=1.00D-06.
 No special actions if energy rises.
 Defaulting to unpruned grid for atomic number  40.
 Defaulting to unpruned grid for atomic number  40.
 Defaulting to unpruned grid for atomic number  40.
 Defaulting to unpruned grid for atomic number  40.
 Defaulting to unpruned grid for atomic number  40.
 Defaulting to unpruned grid for atomic number  40.
 Defaulting to unpruned grid for atomic number  40.
 Defaulting to unpruned grid for atomic number  40.
 Defaulting to unpruned grid for atomic number  40.
 Defaulting to unpruned grid for atomic number  40.
 Defaulting to unpruned grid for atomic number  40.
 Defaulting to unpruned grid for atomic number  40.
 Defaulting to unpruned grid for atomic number  40.
 Defaulting to unpruned grid for atomic number  40.
 Defaulting to unpruned grid for atomic number  40.
 Defaulting to unpruned grid for atomic number  40.
 SCF Done:  E(RB3LYP) =  -2416.94685624     A.U. after   14 cycles
            NFock= 14  Conv=0.25D-08     -V/T= 2.0185

 **********************************************************************

            Population analysis using the SCF Density.

 **********************************************************************

 Orbital symmetries:
       Occupied  (A) (A) (A) (A) (A) (A) (A) (A) (A) (A) (A) (A)
                 (A) (A) (A) (A) (A) (A) (A) (A) (A) (A) (A) (A)
                 (A) (A) (A) (A) (A) (A) (A) (A) (A) (A) (A) (A)
                 (A) (A) (A) (A) (A) (A) (A) (A) (A) (A) (A) (A)
                 (A) (A) (A) (A) (A) (A) (A) (A) (A) (A) (A) (A)
                 (A) (A) (A) (A) (A) (A) (A) (A) (A) (A) (A) (A)
                 (A) (A) (A) (A) (A) (A) (A) (A) (A) (A) (A) (A)
                 (A) (A) (A) (A) (A) (A) (A) (A) (A) (A) (A) (A)
                 (A) (A) (A) (A) (A) (A) (A) (A)
       Virtual   (A) (A) (A) (A) (A) (A) (A) (A) (A) (A) (A) (A)
                 (A) (A) (A) (A) (A) (A) (A) (A) (A) (A) (A) (A)
                 (A) (A) (A) (A) (A) (A) (A) (A) (A) (A) (A) (A)
                 (A) (A) (A) (A) (A) (A) (A) (A) (A) (A) (A) (A)
                 (A) (A) (A) (A) (A) (A) (A) (A) (A) (A) (A) (A)
                 (A) (A) (A) (A) (A) (A) (A) (A) (A) (A) (A) (A)
                 (A) (A) (A) (A) (A) (A) (A) (A) (A) (A) (A) (A)
                 (A) (A) (A) (A) (A) (A) (A) (A) (A) (A) (A) (A)
                 (A) (A) (A) (A) (A) (A) (A) (A) (A) (A) (A) (A)
                 (A) (A) (A) (A) (A) (A) (A) (A) (A) (A) (A) (A)
                 (A) (A) (A) (A) (A) (A) (A) (A) (A) (A) (A) (A)
                 (A) (A) (A) (A) (A) (A) (A) (A) (A) (A) (A) (A)
                 (A) (A) (A) (A) (A) (A) (A) (A) (A) (A) (A) (A)
                 (A) (A) (A) (A) (A) (A) (A) (A) (A) (A) (A) (A)
                 (A) (A) (A) (A) (A) (A) (A) (A) (A) (A) (A) (A)
                 (A) (A) (A) (A) (A) (A) (A) (A) (A) (A) (A) (A)
                 (A) (A) (A) (A) (A) (A) (A) (A) (A) (A) (A) (A)
                 (A) (A) (A) (A) (A) (A) (A) (A) (A) (A) (A) (A)
                 (A) (A) (A) (A) (A) (A) (A) (A) (A) (A) (A) (A)
                 (A) (A) (A) (A) (A) (A) (A) (A) (A) (A) (A) (A)
                 (A) (A) (A) (A) (A) (A) (A) (A) (A) (A) (A) (A)
                 (A) (A) (A) (A) (A) (A) (A) (A) (A) (A) (A) (A)
                 (A) (A) (A) (A) (A) (A) (A) (A) (A) (A) (A) (A)
                 (A) (A) (A) (A) (A) (A) (A) (A) (A) (A) (A) (A)
                 (A) (A) (A) (A) (A) (A) (A) (A) (A) (A) (A) (A)
                 (A) (A) (A) (A) (A) (A) (A) (A) (A) (A) (A) (A)
                 (A) (A) (A) (A) (A) (A) (A) (A) (A) (A) (A) (A)
                 (A) (A) (A) (A) (A) (A) (A) (A) (A) (A) (A) (A)
                 (A) (A) (A) (A) (A) (A) (A) (A) (A) (A) (A) (A)
                 (A) (A) (A) (A) (A) (A) (A) (A) (A) (A) (A) (A)
                 (A) (A) (A) (A) (A) (A) (A) (A) (A) (A) (A) (A)
                 (A) (A) (A) (A) (A) (A) (A) (A) (A) (A) (A) (A)
                 (A) (A) (A) (A) (A) (A) (A) (A) (A) (A) (A) (A)
                 (A) (A) (A) (A) (A) (A) (A) (A) (A) (A) (A) (A)
                 (A) (A) (A) (A) (A) (A) (A) (A) (A) (A) (A) (A)
 The electronic state is 1-A.
 Alpha  occ. eigenvalues --  -66.22804 -66.21756 -66.21490 -66.21041 -19.18589
 Alpha  occ. eigenvalues --  -19.18352 -19.17786 -19.17026 -19.16733 -19.16535
 Alpha  occ. eigenvalues --  -19.16439 -19.16223 -19.16187 -19.16011 -19.16002
 Alpha  occ. eigenvalues --  -19.15502 -19.15334 -19.15258 -19.14898 -19.14709
 Alpha  occ. eigenvalues --   -5.36864  -5.35836  -5.35566  -5.35101  -3.72848
 Alpha  occ. eigenvalues --   -3.72821  -3.72775  -3.71828  -3.71781  -3.71746
 Alpha  occ. eigenvalues --   -3.71535  -3.71526  -3.71487  -3.71066  -3.71057
 Alpha  occ. eigenvalues --   -3.71032  -2.13365  -1.29608  -1.29524  -1.29367
 Alpha  occ. eigenvalues --   -1.05680  -1.04776  -1.04151  -1.03500  -1.02564
 Alpha  occ. eigenvalues --   -1.02170  -1.01472  -1.00920  -1.00761  -1.00668
 Alpha  occ. eigenvalues --   -0.99834  -0.99307  -0.97371  -0.96282  -0.95726
 Alpha  occ. eigenvalues --   -0.95406  -0.60990  -0.59160  -0.58974  -0.58493
 Alpha  occ. eigenvalues --   -0.55540  -0.54532  -0.53865  -0.53042  -0.52989
 Alpha  occ. eigenvalues --   -0.52494  -0.52151  -0.51708  -0.48778  -0.47603
 Alpha  occ. eigenvalues --   -0.47203  -0.46724  -0.43376  -0.42653  -0.41861
 Alpha  occ. eigenvalues --   -0.41395  -0.41111  -0.40527  -0.39830  -0.39335
 Alpha  occ. eigenvalues --   -0.38804  -0.38677  -0.38653  -0.38145  -0.38020
 Alpha  occ. eigenvalues --   -0.37627  -0.37484  -0.37191  -0.36540  -0.36409
 Alpha  occ. eigenvalues --   -0.36079  -0.35627  -0.35474  -0.35093  -0.34897
 Alpha  occ. eigenvalues --   -0.34606  -0.34003  -0.33696  -0.33484  -0.33259
 Alpha  occ. eigenvalues --   -0.32818  -0.32177  -0.32055  -0.31304
 Alpha virt. eigenvalues --   -0.04326  -0.03161  -0.03040  -0.02753  -0.02092
 Alpha virt. eigenvalues --   -0.01173  -0.00555  -0.00128   0.00124   0.00285
 Alpha virt. eigenvalues --    0.00763   0.00927   0.01027   0.01950   0.02345
 Alpha virt. eigenvalues --    0.03245   0.03331   0.03853   0.03946   0.04064
 Alpha virt. eigenvalues --    0.04156   0.04704   0.05563   0.05849   0.06186
 Alpha virt. eigenvalues --    0.06474   0.07088   0.07466   0.07712   0.08663
 Alpha virt. eigenvalues --    0.08798   0.09052   0.09187   0.09678   0.09952
 Alpha virt. eigenvalues --    0.10361   0.10663   0.10864   0.11259   0.11689
 Alpha virt. eigenvalues --    0.11819   0.12560   0.13271   0.13334   0.13609
 Alpha virt. eigenvalues --    0.14031   0.14436   0.14883   0.15056   0.15274
 Alpha virt. eigenvalues --    0.15354   0.15741   0.16190   0.16711   0.16937
 Alpha virt. eigenvalues --    0.17376   0.17515   0.17698   0.18140   0.18436
 Alpha virt. eigenvalues --    0.18502   0.18768   0.19217   0.19702   0.19752
 Alpha virt. eigenvalues --    0.20132   0.20298   0.20637   0.20941   0.21205
 Alpha virt. eigenvalues --    0.21754   0.21977   0.22320   0.22424   0.22759
 Alpha virt. eigenvalues --    0.23330   0.23747   0.24047   0.24156   0.24484
 Alpha virt. eigenvalues --    0.24832   0.25083   0.25612   0.25822   0.26149
 Alpha virt. eigenvalues --    0.26609   0.26681   0.26915   0.27226   0.27459
 Alpha virt. eigenvalues --    0.27942   0.28280   0.28550   0.28808   0.29034
 Alpha virt. eigenvalues --    0.29455   0.29732   0.30080   0.30384   0.30655
 Alpha virt. eigenvalues --    0.30807   0.31356   0.31479   0.31605   0.32114
 Alpha virt. eigenvalues --    0.32348   0.32774   0.33079   0.33572   0.34033
 Alpha virt. eigenvalues --    0.34470   0.34642   0.35339   0.35696   0.36274
 Alpha virt. eigenvalues --    0.36964   0.37530   0.38019   0.38458   0.38797
 Alpha virt. eigenvalues --    0.39361   0.39928   0.40047   0.41105   0.41592
 Alpha virt. eigenvalues --    0.42760   0.43114   0.43899   0.44304   0.44917
 Alpha virt. eigenvalues --    0.45344   0.45626   0.45935   0.46629   0.47453
 Alpha virt. eigenvalues --    0.47906   0.48613   0.48831   0.49395   0.49550
 Alpha virt. eigenvalues --    0.50042   0.50881   0.51065   0.51335   0.53131
 Alpha virt. eigenvalues --    0.54132   0.54422   0.55155   0.56742   0.57292
 Alpha virt. eigenvalues --    0.58227   0.58684   0.59064   0.59330   0.60355
 Alpha virt. eigenvalues --    0.61205   0.61696   0.62141   0.64130   0.65876
 Alpha virt. eigenvalues --    0.66949   0.67996   0.68467   0.68735   0.69471
 Alpha virt. eigenvalues --    0.70041   0.70546   0.73000   0.74442   0.75123
 Alpha virt. eigenvalues --    0.75476   0.77356   0.78573   0.78991   0.80367
 Alpha virt. eigenvalues --    0.81137   0.81500   0.82586   0.84132   0.85393
 Alpha virt. eigenvalues --    0.86673   0.87671   0.89798   0.90573   0.91215
 Alpha virt. eigenvalues --    0.94395   0.95713   0.96265   0.96884   0.97484
 Alpha virt. eigenvalues --    0.98107   0.98773   0.99233   0.99775   1.00398
 Alpha virt. eigenvalues --    1.00758   1.01469   1.02125   1.03233   1.04065
 Alpha virt. eigenvalues --    1.04298   1.05553   1.06398   1.06702   1.07964
 Alpha virt. eigenvalues --    1.09764   1.12341   1.15238   1.16194   1.16461
 Alpha virt. eigenvalues --    1.18700   1.19073   1.19842   1.20601   1.21004
 Alpha virt. eigenvalues --    1.21386   1.21761   1.22364   1.22868   1.22956
 Alpha virt. eigenvalues --    1.23468   1.23947   1.24305   1.25206   1.25710
 Alpha virt. eigenvalues --    1.26054   1.27158   1.27492   1.28131   1.28449
 Alpha virt. eigenvalues --    1.28985   1.29817   1.30115   1.30862   1.31431
 Alpha virt. eigenvalues --    1.32458   1.32668   1.33015   1.33463   1.34476
 Alpha virt. eigenvalues --    1.35284   1.36032   1.36523   1.36885   1.37774
 Alpha virt. eigenvalues --    1.39167   1.39741   1.40222   1.41198   1.41488
 Alpha virt. eigenvalues --    1.42775   1.43707   1.44252   1.45284   1.46360
 Alpha virt. eigenvalues --    1.46972   1.48811   1.51056   1.51379   1.52769
 Alpha virt. eigenvalues --    1.56737   1.57224   1.57708   1.59287   1.59787
 Alpha virt. eigenvalues --    1.60073   1.61204   1.61919   1.62473   1.63078
 Alpha virt. eigenvalues --    1.63219   1.63830   1.65214   1.65394   1.66618
 Alpha virt. eigenvalues --    1.67243   1.67998   1.69296   1.69606   1.70113
 Alpha virt. eigenvalues --    1.71377   1.71461   1.71598   1.72618   1.73296
 Alpha virt. eigenvalues --    1.74104   1.74983   1.75620   1.76065   1.76678
 Alpha virt. eigenvalues --    1.77196   1.77387   1.78502   1.78728   1.79622
 Alpha virt. eigenvalues --    1.80575   1.81455   1.82222   1.82485   1.83051
 Alpha virt. eigenvalues --    1.83353   1.84815   1.85093   1.85922   1.86615
 Alpha virt. eigenvalues --    1.87177   1.88079   1.88623   1.89813   1.90477
 Alpha virt. eigenvalues --    1.91242   1.91382   1.92522   1.92810   1.93929
 Alpha virt. eigenvalues --    1.94765   1.94967   1.95897   1.97283   1.98370
 Alpha virt. eigenvalues --    1.98925   2.00518   2.01170   2.02829   2.03653
 Alpha virt. eigenvalues --    2.05905   2.06553   2.07704   2.09772   2.10411
 Alpha virt. eigenvalues --    2.11197   2.13031   2.14279   2.16156   2.16300
 Alpha virt. eigenvalues --    2.17797   2.18829   2.19063   2.20816   2.26430
 Alpha virt. eigenvalues --    2.32543   2.33474   2.35466   2.39477   2.40430
 Alpha virt. eigenvalues --    2.41176   2.41355   2.41728   2.42739   2.43737
 Alpha virt. eigenvalues --    2.44019   2.45719   2.46694   2.47624   2.49002
 Alpha virt. eigenvalues --    2.50216   2.50309   2.51673   2.52751   2.53340
 Alpha virt. eigenvalues --    2.55437   2.58316   2.59236   2.60069   2.60695
 Alpha virt. eigenvalues --    2.61120   2.61788   2.62070   2.62433   2.62792
 Alpha virt. eigenvalues --    2.63156   2.64032   2.64609   2.64986   2.65967
 Alpha virt. eigenvalues --    2.66303   2.66612   2.67332   2.67560   2.69379
 Alpha virt. eigenvalues --    2.69697   2.70309   2.71218   2.71674   2.72391
 Alpha virt. eigenvalues --    2.72858   2.74346   2.75561   2.76753   2.77474
 Alpha virt. eigenvalues --    2.78941   2.80543   2.81482   2.82461   2.83462
 Alpha virt. eigenvalues --    2.83729   2.84701   2.86669   2.87789   2.88138
 Alpha virt. eigenvalues --    3.14715   3.20308   3.35835   3.41104   3.46778
 Alpha virt. eigenvalues --    3.47861   3.48597   3.48647   3.51096   3.51107
 Alpha virt. eigenvalues --    3.52887   3.54171   3.60307   3.61076   3.62059
 Alpha virt. eigenvalues --    3.66198   4.32288   4.59329   7.89268  31.29222
          Condensed to atoms (all electrons):
               1          2          3          4          5          6
     1  Zr  15.086779  -0.129065  -0.001926  -0.136661  -0.192068  -0.590988
     2  O   -0.129065   9.066755   0.019437  -0.042584  -0.057279   0.089498
     3  O   -0.001926   0.019437   8.829084   0.015603  -0.043552  -0.004501
     4  O   -0.136661  -0.042584   0.015603   8.810948  -0.060032  -0.674521
     5  O   -0.192068  -0.057279  -0.043552  -0.060032   9.430266  -0.006811
     6  Si  -0.590988   0.089498  -0.004501  -0.674521  -0.006811  13.980912
     7  Si  -0.615209  -0.028143  -0.876317  -0.006742  -0.033764   0.084403
     8  Si  -0.581656  -1.000961  -0.020329   0.072221  -0.014034  -0.019880
     9  Si  -0.324407  -0.040918  -0.026743  -0.033395  -1.240203   0.038493
    10  O   -0.014194   0.001029  -0.002037   0.001012   0.130885  -0.002385
    11  O   -0.062542   0.003468   0.002957   0.001189   0.313229  -0.000873
    12  O    0.041056  -0.000021   0.004693   0.002103   0.156883  -0.002908
    13  O   -0.038266   0.187075   0.001660  -0.015608  -0.000661   0.035931
    14  O   -0.019084   0.264052  -0.017668  -0.008848   0.001925   0.029377
    15  O   -0.082697   0.292895  -0.000703   0.001242   0.000569  -0.000238
    16  O   -0.125601   0.004686  -0.000486   0.344822   0.003207  -0.422721
    17  O   -0.082027  -0.039862   0.007965   0.218832   0.001318  -0.452990
    18  O   -0.026898  -0.014437   0.003732   0.198563  -0.000599  -0.451263
    19  O    0.000485   0.009012   0.264625   0.010235   0.002135  -0.007339
    20  O   -0.146047  -0.000574   0.163956  -0.000870   0.001471   0.009045
    21  O    0.035709   0.010349   0.146332   0.003408   0.000216  -0.011845
    22  H   -0.008927  -0.000018  -0.000017  -0.000009   0.005732   0.000086
    23  H   -0.007574  -0.000013  -0.000006  -0.000056  -0.025315   0.000081
    24  H   -0.005042  -0.000201  -0.000012   0.000002  -0.005497   0.000064
    25  H    0.017120  -0.020048  -0.000111  -0.000291   0.000019   0.002536
    26  H    0.007314   0.000580   0.000014  -0.000011  -0.000004  -0.000147
    27  H    0.004714  -0.019265   0.000851  -0.001705   0.000010   0.008675
    28  H    0.005097  -0.000011  -0.018426  -0.000014  -0.000015  -0.000283
    29  H    0.004303  -0.007077  -0.020292  -0.000141  -0.000073   0.000122
    30  H    0.000785  -0.000012   0.000071  -0.000453  -0.000008  -0.000680
    31  H   -0.000100   0.000173  -0.000019  -0.018433  -0.000009   0.063708
    32  H    0.002075  -0.000024   0.000040   0.010434   0.000001   0.022815
    33  H   -0.016111   0.001015  -0.010109  -0.009586  -0.000102   0.053347
               7          8          9         10         11         12
     1  Zr  -0.615209  -0.581656  -0.324407  -0.014194  -0.062542   0.041056
     2  O   -0.028143  -1.000961  -0.040918   0.001029   0.003468  -0.000021
     3  O   -0.876317  -0.020329  -0.026743  -0.002037   0.002957   0.004693
     4  O   -0.006742   0.072221  -0.033395   0.001012   0.001189   0.002103
     5  O   -0.033764  -0.014034  -1.240203   0.130885   0.313229   0.156883
     6  Si   0.084403  -0.019880   0.038493  -0.002385  -0.000873  -0.002908
     7  Si  13.795579   0.181927   0.020412  -0.000239  -0.000852   0.004022
     8  Si   0.181927  13.802583   0.025908  -0.000945   0.001179  -0.000737
     9  Si   0.020412   0.025908  14.279074  -0.070802  -0.182490  -0.216486
    10  O   -0.000239  -0.000945  -0.070802   8.526247   0.014727   0.031513
    11  O   -0.000852   0.001179  -0.182490   0.014727   8.516547  -0.049990
    12  O    0.004022  -0.000737  -0.216486   0.031513  -0.049990   8.601409
    13  O    0.007367  -0.095181   0.000248   0.000000   0.000019   0.000009
    14  O    0.009580  -0.368869  -0.001468  -0.000002   0.000001   0.000018
    15  O   -0.002676  -0.305188  -0.000642   0.000000  -0.000025  -0.000018
    16  O    0.003829  -0.010202  -0.001027   0.000005  -0.000002  -0.000001
    17  O   -0.000621   0.096875   0.002588  -0.000002   0.000002  -0.000005
    18  O   -0.000711   0.074504   0.004208  -0.000003  -0.000001  -0.000001
    19  O   -0.408241  -0.015908   0.001051   0.000007  -0.000002  -0.000020
    20  O   -0.108644   0.009646   0.003175   0.000002  -0.000003  -0.000024
    21  O    0.024269  -0.039986  -0.001840   0.000001   0.000001   0.000026
    22  H   -0.000194   0.000088   0.047222  -0.006507  -0.005103   0.219749
    23  H    0.000059   0.000062   0.081075   0.228545  -0.006184   0.005902
    24  H    0.000056  -0.000107   0.037160   0.007390   0.242441  -0.007465
    25  H   -0.000464   0.057436  -0.000211   0.000000  -0.000000  -0.000000
    26  H   -0.000381   0.046097  -0.000043  -0.000000   0.000000  -0.000000
    27  H    0.001273   0.068364  -0.000010   0.000000  -0.000000  -0.000000
    28  H    0.056635  -0.000072  -0.000134  -0.000000  -0.000000  -0.000004
    29  H    0.048149   0.021843  -0.000057   0.000000   0.000000  -0.000001
    30  H    0.040244   0.000103   0.000023  -0.000000  -0.000000   0.000000
    31  H    0.000154  -0.001969  -0.000053   0.000000  -0.000000   0.000000
    32  H   -0.000660   0.000054   0.000007  -0.000000   0.000000   0.000000
    33  H    0.020632   0.000127   0.000078  -0.000000   0.000000   0.000000
              13         14         15         16         17         18
     1  Zr  -0.038266  -0.019084  -0.082697  -0.125601  -0.082027  -0.026898
     2  O    0.187075   0.264052   0.292895   0.004686  -0.039862  -0.014437
     3  O    0.001660  -0.017668  -0.000703  -0.000486   0.007965   0.003732
     4  O   -0.015608  -0.008848   0.001242   0.344822   0.218832   0.198563
     5  O   -0.000661   0.001925   0.000569   0.003207   0.001318  -0.000599
     6  Si   0.035931   0.029377  -0.000238  -0.422721  -0.452990  -0.451263
     7  Si   0.007367   0.009580  -0.002676   0.003829  -0.000621  -0.000711
     8  Si  -0.095181  -0.368869  -0.305188  -0.010202   0.096875   0.074504
     9  Si   0.000248  -0.001468  -0.000642  -0.001027   0.002588   0.004208
    10  O    0.000000  -0.000002   0.000000   0.000005  -0.000002  -0.000003
    11  O    0.000019   0.000001  -0.000025  -0.000002   0.000002  -0.000001
    12  O    0.000009   0.000018  -0.000018  -0.000001  -0.000005  -0.000001
    13  O    8.628721   0.087205  -0.090755   0.003729  -0.030877  -0.045523
    14  O    0.087205   8.675353   0.055493   0.003667  -0.035843  -0.026838
    15  O   -0.090755   0.055493   8.777228  -0.000174   0.003600   0.001672
    16  O    0.003729   0.003667  -0.000174   8.901870  -0.091577  -0.114960
    17  O   -0.030877  -0.035843   0.003600  -0.091577   8.935697   0.227585
    18  O   -0.045523  -0.026838   0.001672  -0.114960   0.227585   9.013356
    19  O    0.000183  -0.000403   0.000140  -0.001542  -0.030001   0.000167
    20  O    0.000008  -0.000239   0.000038   0.000065  -0.000984   0.000015
    21  O   -0.000249   0.016014  -0.000614  -0.000214  -0.005567   0.000477
    22  H   -0.000000  -0.000000  -0.000000   0.000000   0.000000  -0.000000
    23  H    0.000000   0.000000  -0.000000  -0.000000   0.000000  -0.000000
    24  H   -0.000000   0.000000   0.000002   0.000000  -0.000000  -0.000000
    25  H    0.218333  -0.011972   0.008916  -0.000052   0.000633   0.014916
    26  H   -0.005129  -0.010075   0.217032   0.000000  -0.000003   0.000006
    27  H   -0.009757   0.219222   0.004628   0.000184   0.017917  -0.000262
    28  H   -0.000000  -0.000006  -0.000001  -0.000000   0.000004  -0.000000
    29  H    0.000795   0.017594  -0.002569  -0.000004  -0.000395   0.000006
    30  H    0.000001  -0.000000   0.000000   0.000116  -0.000398  -0.000007
    31  H    0.002359   0.000166  -0.000018   0.003792  -0.000759   0.218131
    32  H   -0.000008  -0.000006   0.000000   0.233450  -0.003636   0.003887
    33  H    0.000230   0.002082  -0.000035  -0.000113   0.231001   0.002104
              19         20         21         22         23         24
     1  Zr   0.000485  -0.146047   0.035709  -0.008927  -0.007574  -0.005042
     2  O    0.009012  -0.000574   0.010349  -0.000018  -0.000013  -0.000201
     3  O    0.264625   0.163956   0.146332  -0.000017  -0.000006  -0.000012
     4  O    0.010235  -0.000870   0.003408  -0.000009  -0.000056   0.000002
     5  O    0.002135   0.001471   0.000216   0.005732  -0.025315  -0.005497
     6  Si  -0.007339   0.009045  -0.011845   0.000086   0.000081   0.000064
     7  Si  -0.408241  -0.108644   0.024269  -0.000194   0.000059   0.000056
     8  Si  -0.015908   0.009646  -0.039986   0.000088   0.000062  -0.000107
     9  Si   0.001051   0.003175  -0.001840   0.047222   0.081075   0.037160
    10  O    0.000007   0.000002   0.000001  -0.006507   0.228545   0.007390
    11  O   -0.000002  -0.000003   0.000001  -0.005103  -0.006184   0.242441
    12  O   -0.000020  -0.000024   0.000026   0.219749   0.005902  -0.007465
    13  O    0.000183   0.000008  -0.000249  -0.000000   0.000000  -0.000000
    14  O   -0.000403  -0.000239   0.016014  -0.000000   0.000000   0.000000
    15  O    0.000140   0.000038  -0.000614  -0.000000  -0.000000   0.000002
    16  O   -0.001542   0.000065  -0.000214   0.000000  -0.000000   0.000000
    17  O   -0.030001  -0.000984  -0.005567   0.000000   0.000000  -0.000000
    18  O    0.000167   0.000015   0.000477  -0.000000  -0.000000  -0.000000
    19  O    8.872532   0.032138   0.023472  -0.000000   0.000000  -0.000000
    20  O    0.032138   8.656953  -0.050454   0.000000   0.000000  -0.000000
    21  O    0.023472  -0.050454   8.485763  -0.000000   0.000000   0.000000
    22  H   -0.000000   0.000000  -0.000000   0.361581   0.000056   0.000122
    23  H    0.000000   0.000000   0.000000   0.000056   0.350964   0.000014
    24  H   -0.000000  -0.000000   0.000000   0.000122   0.000014   0.365133
    25  H   -0.000024   0.000000  -0.000019   0.000000   0.000000   0.000000
    26  H    0.000001  -0.000000   0.000039  -0.000000  -0.000000  -0.000000
    27  H    0.000030   0.000192  -0.004018  -0.000000  -0.000000   0.000000
    28  H    0.004615   0.229585  -0.002073  -0.000000   0.000000  -0.000000
    29  H   -0.008570   0.007668   0.206465   0.000000   0.000000  -0.000000
    30  H    0.224203  -0.001483  -0.007146   0.000000   0.000000  -0.000000
    31  H    0.000004  -0.000000  -0.000000  -0.000000  -0.000000   0.000000
    32  H    0.000097  -0.000000   0.000001  -0.000000  -0.000000  -0.000000
    33  H    0.014833  -0.000081   0.001473  -0.000000  -0.000000  -0.000000
              25         26         27         28         29         30
     1  Zr   0.017120   0.007314   0.004714   0.005097   0.004303   0.000785
     2  O   -0.020048   0.000580  -0.019265  -0.000011  -0.007077  -0.000012
     3  O   -0.000111   0.000014   0.000851  -0.018426  -0.020292   0.000071
     4  O   -0.000291  -0.000011  -0.001705  -0.000014  -0.000141  -0.000453
     5  O    0.000019  -0.000004   0.000010  -0.000015  -0.000073  -0.000008
     6  Si   0.002536  -0.000147   0.008675  -0.000283   0.000122  -0.000680
     7  Si  -0.000464  -0.000381   0.001273   0.056635   0.048149   0.040244
     8  Si   0.057436   0.046097   0.068364  -0.000072   0.021843   0.000103
     9  Si  -0.000211  -0.000043  -0.000010  -0.000134  -0.000057   0.000023
    10  O    0.000000  -0.000000   0.000000  -0.000000   0.000000  -0.000000
    11  O   -0.000000   0.000000  -0.000000  -0.000000   0.000000  -0.000000
    12  O   -0.000000  -0.000000  -0.000000  -0.000004  -0.000001   0.000000
    13  O    0.218333  -0.005129  -0.009757  -0.000000   0.000795   0.000001
    14  O   -0.011972  -0.010075   0.219222  -0.000006   0.017594  -0.000000
    15  O    0.008916   0.217032   0.004628  -0.000001  -0.002569   0.000000
    16  O   -0.000052   0.000000   0.000184  -0.000000  -0.000004   0.000116
    17  O    0.000633  -0.000003   0.017917   0.000004  -0.000395  -0.000398
    18  O    0.014916   0.000006  -0.000262  -0.000000   0.000006  -0.000007
    19  O   -0.000024   0.000001   0.000030   0.004615  -0.008570   0.224203
    20  O    0.000000  -0.000000   0.000192   0.229585   0.007668  -0.001483
    21  O   -0.000019   0.000039  -0.004018  -0.002073   0.206465  -0.007146
    22  H    0.000000  -0.000000  -0.000000  -0.000000   0.000000   0.000000
    23  H    0.000000  -0.000000  -0.000000   0.000000   0.000000   0.000000
    24  H    0.000000  -0.000000   0.000000  -0.000000  -0.000000  -0.000000
    25  H    0.298878  -0.000012   0.000114   0.000000   0.000001   0.000000
    26  H   -0.000012   0.365977   0.000036   0.000000   0.000021  -0.000000
    27  H    0.000114   0.000036   0.283358  -0.000000  -0.001497   0.000009
    28  H    0.000000   0.000000  -0.000000   0.349191  -0.000017  -0.000016
    29  H    0.000001   0.000021  -0.001497  -0.000017   0.285944   0.000155
    30  H    0.000000  -0.000000   0.000009  -0.000016   0.000155   0.334243
    31  H   -0.000494   0.000000   0.000013  -0.000000   0.000000  -0.000000
    32  H   -0.000001   0.000000  -0.000000   0.000000  -0.000000  -0.000000
    33  H    0.000006  -0.000000  -0.002410  -0.000002   0.000100  -0.001157
              31         32         33
     1  Zr  -0.000100   0.002075  -0.016111
     2  O    0.000173  -0.000024   0.001015
     3  O   -0.000019   0.000040  -0.010109
     4  O   -0.018433   0.010434  -0.009586
     5  O   -0.000009   0.000001  -0.000102
     6  Si   0.063708   0.022815   0.053347
     7  Si   0.000154  -0.000660   0.020632
     8  Si  -0.001969   0.000054   0.000127
     9  Si  -0.000053   0.000007   0.000078
    10  O    0.000000  -0.000000  -0.000000
    11  O   -0.000000   0.000000   0.000000
    12  O    0.000000   0.000000   0.000000
    13  O    0.002359  -0.000008   0.000230
    14  O    0.000166  -0.000006   0.002082
    15  O   -0.000018   0.000000  -0.000035
    16  O    0.003792   0.233450  -0.000113
    17  O   -0.000759  -0.003636   0.231001
    18  O    0.218131   0.003887   0.002104
    19  O    0.000004   0.000097   0.014833
    20  O   -0.000000  -0.000000  -0.000081
    21  O   -0.000000   0.000001   0.001473
    22  H   -0.000000  -0.000000  -0.000000
    23  H   -0.000000  -0.000000  -0.000000
    24  H    0.000000  -0.000000  -0.000000
    25  H   -0.000494  -0.000001   0.000006
    26  H    0.000000   0.000000  -0.000000
    27  H    0.000013  -0.000000  -0.002410
    28  H   -0.000000   0.000000  -0.000002
    29  H    0.000000  -0.000000   0.000100
    30  H   -0.000000  -0.000000  -0.001157
    31  H    0.331383   0.000001  -0.000038
    32  H    0.000001   0.349932   0.000157
    33  H   -0.000038   0.000157   0.269249
 Mulliken charges:
               1
     1  Zr   0.001651
     2  O   -0.549509
     3  O   -0.417765
     4  O   -0.680652
     5  O   -0.367838
     6  Si   2.231280
     7  Si   1.785269
     8  Si   2.017007
     9  Si   1.600208
    10  O   -0.844244
    11  O   -0.787693
    12  O   -0.789704
    13  O   -0.841858
    14  O   -0.880427
    15  O   -0.877101
    16  O   -0.734744
    17  O   -0.968468
    18  O   -1.081825
    19  O   -0.987914
    20  O   -0.804553
    21  O   -0.829988
    22  H    0.386140
    23  H    0.372390
    24  H    0.365940
    25  H    0.414790
    26  H    0.378686
    27  H    0.429336
    28  H    0.375948
    29  H    0.447527
    30  H    0.411406
    31  H    0.402009
    32  H    0.381384
    33  H    0.443310
 Sum of Mulliken charges =  -0.00000
 Mulliken charges with hydrogens summed into heavy atoms:
               1
     1  Zr   0.001651
     2  O   -0.549509
     3  O   -0.417765
     4  O   -0.680652
     5  O   -0.367838
     6  Si   2.231280
     7  Si   1.785269
     8  Si   2.017007
     9  Si   1.600208
    10  O   -0.471854
    11  O   -0.421752
    12  O   -0.403564
    13  O   -0.427067
    14  O   -0.451091
    15  O   -0.498415
    16  O   -0.353361
    17  O   -0.525158
    18  O   -0.679816
    19  O   -0.576507
    20  O   -0.428604
    21  O   -0.382461
 Electronic spatial extent (au):  <R**2>=           9869.0236
 Charge=              0.0000 electrons
 Dipole moment (field-independent basis, Debye):
    X=              1.0739    Y=             -0.7634    Z=             -2.3791  Tot=              2.7196
 Quadrupole moment (field-independent basis, Debye-Ang):
   XX=           -160.2254   YY=           -154.6573   ZZ=           -157.8093
   XY=             -4.8725   XZ=              2.2972   YZ=              5.7516
 Traceless Quadrupole moment (field-independent basis, Debye-Ang):
   XX=             -2.6614   YY=              2.9067   ZZ=             -0.2453
   XY=             -4.8725   XZ=              2.2972   YZ=              5.7516
 Octapole moment (field-independent basis, Debye-Ang**2):
  XXX=             74.2718  YYY=              6.9046  ZZZ=            -17.6921  XYY=             -1.8161
  XXY=             20.3175  XXZ=             18.9649  XZZ=              4.9027  YZZ=            -17.2755
  YYZ=            -16.3416  XYZ=             28.2453
 Hexadecapole moment (field-independent basis, Debye-Ang**3):
 XXXX=          -6030.9357 YYYY=          -2836.7035 ZZZZ=          -2261.3030 XXXY=             56.7245
 XXXZ=            -27.4363 YYYX=              5.0297 YYYZ=            219.0877 ZZZX=           -179.4230
 ZZZY=            -56.1152 XXYY=          -1479.3762 XXZZ=          -1366.5369 YYZZ=           -923.8739
 XXYZ=             -6.5083 YYXZ=            126.7202 ZZXY=            -60.1830
 N-N= 2.832873575251D+03 E-N=-1.137834717001D+04  KE= 2.373154904257D+03
 PrsmSu:  requested number of processors reduced to:   2 ShMem   1 Linda.
 PrsmSu:  requested number of processors reduced to:  10 ShMem   1 Linda.
   1 Symmetry operations used in ECPInt.
 ECPInt:  NShTT=   13203 NPrTT=   78401 LenC2=   11526 LenP2D=   44635.
 LDataN:  DoStor=T MaxTD1= 9 Len=  602
 Number of processors reduced to  14 by ecpmxn.
 Calling FoFJK, ICntrl=      2127 FMM=F ISym2X=0 I1Cent= 0 IOpClX= 0 NMat=1 NMatS=1 NMatT=0.
 CoulSu:  requested number of processors reduced to:  10 ShMem   1 Linda.
 Defaulting to unpruned grid for atomic number  40.
 Defaulting to unpruned grid for atomic number  40.
 Defaulting to unpruned grid for atomic number  40.
 Defaulting to unpruned grid for atomic number  40.
 Defaulting to unpruned grid for atomic number  40.
 Defaulting to unpruned grid for atomic number  40.
 Defaulting to unpruned grid for atomic number  40.
 Defaulting to unpruned grid for atomic number  40.
 Defaulting to unpruned grid for atomic number  40.
 Defaulting to unpruned grid for atomic number  40.
 Defaulting to unpruned grid for atomic number  40.
 Defaulting to unpruned grid for atomic number  40.
 Defaulting to unpruned grid for atomic number  40.
 Defaulting to unpruned grid for atomic number  40.
 Defaulting to unpruned grid for atomic number  40.
 Defaulting to unpruned grid for atomic number  40.
 ***** Axes restored to original set *****
 -------------------------------------------------------------------
 Center     Atomic                   Forces (Hartrees/Bohr)
 Number     Number              X              Y              Z
 -------------------------------------------------------------------
      1       40          -0.000015243   -0.000012019   -0.000100708
      2        8          -0.000000020    0.000003165    0.000033656
      3        8          -0.000002616   -0.000000689    0.000009632
      4        8           0.000006253    0.000003785    0.000023607
      5        8          -0.000003161    0.000016700    0.000055447
      6       14          -0.000010701    0.000003056   -0.000004639
      7       14           0.000024243   -0.000004099   -0.000015927
      8       14          -0.000016527   -0.000012813   -0.000020969
      9       14          -0.000003162   -0.000002002   -0.000042832
     10        8           0.000011615    0.000010864    0.000009355
     11        8           0.000009549   -0.000008558    0.000002125
     12        8           0.000002604   -0.000001623    0.000015080
     13        8           0.000001094    0.000011851    0.000006248
     14        8           0.000003817   -0.000005272   -0.000001690
     15        8           0.000003561    0.000000433    0.000005816
     16        8          -0.000001802   -0.000000853    0.000004018
     17        8           0.000008397    0.000000575   -0.000000757
     18        8          -0.000008484    0.000004375    0.000004571
     19        8          -0.000001569    0.000003122    0.000003460
     20        8          -0.000004299   -0.000000330    0.000004612
     21        8          -0.000009970   -0.000003862    0.000010345
     22        1           0.000002430   -0.000004169   -0.000000496
     23        1          -0.000012644   -0.000008569   -0.000002935
     24        1          -0.000001217   -0.000006427    0.000005991
     25        1           0.000001433   -0.000000954   -0.000004061
     26        1           0.000001157    0.000003674    0.000001504
     27        1           0.000001692    0.000003871    0.000002914
     28        1           0.000003947    0.000000160   -0.000001281
     29        1           0.000003101    0.000005438   -0.000001465
     30        1           0.000001569    0.000001134   -0.000000606
     31        1           0.000005587   -0.000000262   -0.000000842
     32        1           0.000000958    0.000001829   -0.000002228
     33        1          -0.000001591   -0.000001529    0.000003057
 -------------------------------------------------------------------
 Cartesian Forces:  Max     0.000100708 RMS     0.000014736

 GradGradGradGradGradGradGradGradGradGradGradGradGradGradGradGradGradGrad
 Berny optimization.
 FormGI is forming the generalized inverse of G from B-inverse, IUseBI=4.
 Internal  Forces:  Max     0.000050325 RMS     0.000009053
 Search for a local minimum.
 Step number   1 out of a maximum of  148
 All quantities printed in internal units (Hartrees-Bohrs-Radians)
 Mixed Optimization -- En-DIIS/RFO-DIIS
 Second derivative matrix not updated -- first step.
 ITU=  0
     Eigenvalues ---    0.00230   0.00230   0.00230   0.00230   0.03240
     Eigenvalues ---    0.03358   0.03498   0.03580   0.03665   0.03666
     Eigenvalues ---    0.03680   0.03686   0.03693   0.03739   0.03789
     Eigenvalues ---    0.03792   0.03816   0.03834   0.03850   0.03857
     Eigenvalues ---    0.08405   0.09407   0.11077   0.11224   0.11819
     Eigenvalues ---    0.11833   0.11884   0.12136   0.12177   0.12239
     Eigenvalues ---    0.12563   0.12783   0.12895   0.13099   0.13313
     Eigenvalues ---    0.16000   0.16000   0.16000   0.16000   0.16000
     Eigenvalues ---    0.16000   0.16000   0.16000   0.16000   0.16000
     Eigenvalues ---    0.16000   0.16000   0.19173   0.19893   0.20028
     Eigenvalues ---    0.20179   0.20203   0.20204   0.20208   0.20515
     Eigenvalues ---    0.20653   0.20795   0.20989   0.21175   0.21186
     Eigenvalues ---    0.21263   0.25000   0.25000   0.25000   0.38002
     Eigenvalues ---    0.39186   0.40658   0.41547   0.42502   0.42510
     Eigenvalues ---    0.42670   0.42742   0.42825   0.43363   0.43950
     Eigenvalues ---    0.43980   0.44274   0.44484   0.44689   0.44768
     Eigenvalues ---    0.50654   0.51352   0.52034   0.52547   0.54334
     Eigenvalues ---    0.54624   0.54642   0.54648   0.54690   0.54692
     Eigenvalues ---    0.54712   0.547651000.000001000.000001000.00000
     Eigenvalues --- 1000.000001000.000001000.000001000.000001000.00000
     Eigenvalues --- 1000.000001000.000001000.000001000.000001000.00000
     Eigenvalues --- 1000.000001000.000001000.000001000.000001000.00000
     Eigenvalues --- 1000.000001000.000001000.000001000.000001000.00000
     Eigenvalues --- 1000.000001000.000001000.000001000.000001000.00000
     Eigenvalues --- 1000.000001000.000001000.000001000.000001000.00000
     Eigenvalues --- 1000.000001000.000001000.000001000.000001000.00000
     Eigenvalues --- 1000.000001000.000001000.000001000.000001000.00000
     Eigenvalues --- 1000.000001000.000001000.00000
 RFO step:  Lambda=-3.77164095D-07 EMin= 2.30000000D-03
 Linear search not attempted -- first point.
 Iteration  1 RMS(Cart)=  0.00487758 RMS(Int)=  0.00000854
 Iteration  2 RMS(Cart)=  0.00001358 RMS(Int)=  0.00000001
 Iteration  3 RMS(Cart)=  0.00000000 RMS(Int)=  0.00000001
 Iteration  1 RMS(Cart)=  0.00000000 RMS(Int)=  0.00000000
 Variable       Old X    -DE/DX   Delta X   Delta X   Delta X     New X
                                 (Linear)    (Quad)   (Total)
    R1        3.67646   0.00002   0.00000   0.00009   0.00009   3.67655
    R2        3.69189  -0.00000   0.00000  -0.00002  -0.00002   3.69187
    R3        3.73836  -0.00002   0.00000  -0.00013  -0.00013   3.73824
    R4        3.70232   0.00000   0.00000   0.00002   0.00002   3.70234
    R5        3.11689  -0.00000   0.00000  -0.00001  -0.00001   3.11688
    R6        3.09580  -0.00001   0.00000  -0.00002  -0.00002   3.09578
    R7        3.10214   0.00000   0.00000   0.00001   0.00001   3.10215
    R8        3.09246   0.00001   0.00000   0.00002   0.00002   3.09248
    R9        3.11586  -0.00000   0.00000  -0.00000  -0.00000   3.11586
   R10        3.11989  -0.00001   0.00000  -0.00001  -0.00001   3.11988
   R11        3.14368   0.00000   0.00000   0.00000   0.00000   3.14368
   R12        3.18062  -0.00000   0.00000  -0.00000  -0.00000   3.18062
   R13        3.10925  -0.00000   0.00000  -0.00000  -0.00000   3.10924
   R14        3.09338   0.00001   0.00000   0.00003   0.00003   3.09341
   R15        3.10179  -0.00001   0.00000  -0.00002  -0.00002   3.10177
   R16        3.16374  -0.00001   0.00000  -0.00002  -0.00002   3.16373
   R17        3.09828   0.00001   0.00000   0.00002   0.00002   3.09830
   R18        3.11979  -0.00001   0.00000  -0.00001  -0.00001   3.11978
   R19        3.13204   0.00002   0.00000   0.00004   0.00004   3.13207
   R20        3.11779   0.00001   0.00000   0.00002   0.00002   3.11781
   R21        1.82152   0.00000   0.00000   0.00000   0.00000   1.82152
   R22        1.82107   0.00001   0.00000   0.00001   0.00001   1.82108
   R23        1.82088   0.00000   0.00000   0.00000   0.00000   1.82089
   R24        1.84079   0.00000   0.00000   0.00001   0.00001   1.84080
   R25        1.84567  -0.00000   0.00000  -0.00001  -0.00001   1.84566
   R26        1.82042  -0.00000   0.00000  -0.00000  -0.00000   1.82042
   R27        1.82109   0.00000   0.00000   0.00000   0.00000   1.82109
   R28        1.85911  -0.00000   0.00000  -0.00001  -0.00001   1.85910
   R29        1.82146   0.00000   0.00000   0.00000   0.00000   1.82146
   R30        1.82428   0.00000   0.00000   0.00000   0.00000   1.82428
   R31        1.82168  -0.00000   0.00000  -0.00000  -0.00000   1.82167
   R32        1.85225  -0.00001   0.00000  -0.00001  -0.00001   1.85224
    A1        1.85172  -0.00000   0.00000  -0.00011  -0.00011   1.85161
    A2        1.80156  -0.00001   0.00000  -0.00004  -0.00004   1.80152
    A3        1.96889  -0.00002   0.00000  -0.00018  -0.00018   1.96871
    A4        1.83430   0.00001   0.00000   0.00013   0.00013   1.83443
    A5        2.01802  -0.00001   0.00000  -0.00004  -0.00004   2.01798
    A6        1.97057   0.00003   0.00000   0.00025   0.00025   1.97082
    A7        2.46524  -0.00001   0.00000  -0.00005  -0.00005   2.46519
    A8        2.58825   0.00001   0.00000   0.00002   0.00002   2.58828
    A9        2.35482  -0.00002   0.00000  -0.00009  -0.00009   2.35473
   A10        2.86714   0.00005   0.00000   0.00000  -0.00000   2.86714
   A11        1.91978   0.00000   0.00000   0.00002   0.00002   1.91979
   A12        1.91547  -0.00000   0.00000  -0.00002  -0.00002   1.91545
   A13        1.95200  -0.00000   0.00000  -0.00003  -0.00003   1.95197
   A14        2.00709   0.00000   0.00000   0.00003   0.00003   2.00712
   A15        1.88610   0.00000   0.00000   0.00002   0.00002   1.88612
   A16        1.78001  -0.00000   0.00000  -0.00002  -0.00002   1.77999
   A17        1.80239   0.00000   0.00000   0.00002   0.00002   1.80241
   A18        1.99614   0.00000   0.00000   0.00003   0.00003   1.99616
[...]
          Condensed to atoms (all electrons):
               1          2          3          4          5          6
     1  Zr  15.082903  -0.123471  -0.001726  -0.134591  -0.190779  -0.598610
     2  O   -0.123471   9.063943   0.019395  -0.042624  -0.057229   0.088401
     3  O   -0.001726   0.019395   8.828661   0.015889  -0.043981  -0.004092
     4  O   -0.134591  -0.042624   0.015889   8.809958  -0.060378  -0.674150
     5  O   -0.190779  -0.057229  -0.043981  -0.060378   9.426830  -0.007070
     6  Si  -0.598610   0.088401  -0.004092  -0.674150  -0.007070  13.987656
     7  Si  -0.614276  -0.028412  -0.875923  -0.007046  -0.033931   0.084215
     8  Si  -0.589972  -1.000444  -0.020133   0.071579  -0.014245  -0.016870
     9  Si  -0.322525  -0.040622  -0.026665  -0.032931  -1.231615   0.038740
    10  O   -0.015005   0.001033  -0.002011   0.000951   0.130414  -0.002354
    11  O   -0.063785   0.003384   0.002979   0.001213   0.312784  -0.000835
    12  O    0.042584  -0.000019   0.004674   0.002071   0.153998  -0.002974
    13  O   -0.035397   0.186233   0.001645  -0.015579  -0.000665   0.035213
    14  O   -0.016907   0.263281  -0.017742  -0.008807   0.001889   0.028849
    15  O   -0.083662   0.293149  -0.000688   0.001235   0.000580   0.000006
    16  O   -0.124922   0.004693  -0.000498   0.344848   0.003215  -0.423462
    17  O   -0.082108  -0.039811   0.008105   0.218027   0.001328  -0.452071
    18  O   -0.026421  -0.014543   0.003736   0.198261  -0.000606  -0.451216
    19  O    0.001422   0.008947   0.265088   0.010289   0.002142  -0.007590
    20  O   -0.145989  -0.000576   0.163910  -0.000860   0.001483   0.009077
    21  O    0.036119   0.010230   0.146187   0.003426   0.000206  -0.011943
    22  H   -0.008951  -0.000018  -0.000015  -0.000009   0.005761   0.000086
    23  H   -0.007604  -0.000013  -0.000006  -0.000056  -0.025331   0.000085
    24  H   -0.005086  -0.000195  -0.000012   0.000003  -0.005443   0.000070
    25  H    0.016846  -0.019986  -0.000110  -0.000312   0.000019   0.002663
    26  H    0.007304   0.000607   0.000014  -0.000011  -0.000004  -0.000152
    27  H    0.004176  -0.019190   0.000849  -0.001699   0.000011   0.008820
    28  H    0.005075  -0.000011  -0.018408  -0.000014  -0.000015  -0.000283
    29  H    0.004164  -0.007059  -0.020279  -0.000141  -0.000074   0.000134
    30  H    0.000751  -0.000012   0.000055  -0.000454  -0.000008  -0.000664
    31  H   -0.000128   0.000174  -0.000020  -0.018443  -0.000010   0.063769
    32  H    0.002106  -0.000024   0.000040   0.010439   0.000001   0.022778
    33  H   -0.016015   0.001018  -0.010121  -0.009596  -0.000102   0.053277
               7          8          9         10         11         12
     1  Zr  -0.614276  -0.589972  -0.322525  -0.015005  -0.063785   0.042584
     2  O   -0.028412  -1.000444  -0.040622   0.001033   0.003384  -0.000019
     3  O   -0.875923  -0.020133  -0.026665  -0.002011   0.002979   0.004674
     4  O   -0.007046   0.071579  -0.032931   0.000951   0.001213   0.002071
     5  O   -0.033931  -0.014245  -1.231615   0.130414   0.312784   0.153998
     6  Si   0.084215  -0.016870   0.038740  -0.002354  -0.000835  -0.002974
     7  Si  13.795429   0.182217   0.020182  -0.000229  -0.000881   0.003948
     8  Si   0.182217  13.807840   0.026094  -0.000983   0.001208  -0.000847
     9  Si   0.020182   0.026094  14.258590  -0.068689  -0.180094  -0.212887
    10  O   -0.000229  -0.000983  -0.068689   8.525605   0.014431   0.031252
    11  O   -0.000881   0.001208  -0.180094   0.014431   8.516149  -0.050256
    12  O    0.003948  -0.000847  -0.212887   0.031252  -0.050256   8.600951
    13  O    0.007278  -0.095555   0.000210   0.000000   0.000019   0.000009
    14  O    0.009410  -0.368501  -0.001482  -0.000002   0.000001   0.000018
    15  O   -0.002595  -0.305171  -0.000614   0.000000  -0.000024  -0.000016
    16  O    0.003822  -0.010330  -0.001040   0.000005  -0.000002  -0.000001
    17  O   -0.000644   0.096822   0.002587  -0.000001   0.000002  -0.000005
    18  O   -0.000753   0.074741   0.004181  -0.000002  -0.000001  -0.000001
    19  O   -0.409280  -0.016049   0.001043   0.000007  -0.000002  -0.000022
    20  O   -0.108832   0.009623   0.003154   0.000003  -0.000003  -0.000027
    21  O    0.024404  -0.039989  -0.001807   0.000001   0.000001   0.000024
    22  H   -0.000185   0.000090   0.047242  -0.006480  -0.005086   0.219652
    23  H    0.000059   0.000062   0.081101   0.228592  -0.006169   0.005904
    24  H    0.000054  -0.000098   0.037098   0.007390   0.242454  -0.007451
    25  H   -0.000457   0.057437  -0.000209   0.000000  -0.000000  -0.000000
    26  H   -0.000383   0.046104  -0.000044  -0.000000   0.000000  -0.000000
    27  H    0.001329   0.068466  -0.000008   0.000000  -0.000000  -0.000000
    28  H    0.056627  -0.000067  -0.000135  -0.000000  -0.000000  -0.000004
    29  H    0.048173   0.021898  -0.000058   0.000000   0.000000  -0.000001
    30  H    0.040295   0.000109   0.000022  -0.000000   0.000000   0.000000
    31  H    0.000154  -0.001978  -0.000053   0.000000  -0.000000   0.000000
    32  H   -0.000661   0.000054   0.000009  -0.000000   0.000000  -0.000000
    33  H    0.020631   0.000110   0.000078  -0.000000   0.000000   0.000000
              13         14         15         16         17         18
     1  Zr  -0.035397  -0.016907  -0.083662  -0.124922  -0.082108  -0.026421
     2  O    0.186233   0.263281   0.293149   0.004693  -0.039811  -0.014543
     3  O    0.001645  -0.017742  -0.000688  -0.000498   0.008105   0.003736
     4  O   -0.015579  -0.008807   0.001235   0.344848   0.218027   0.198261
     5  O   -0.000665   0.001889   0.000580   0.003215   0.001328  -0.000606
     6  Si   0.035213   0.028849   0.000006  -0.423462  -0.452071  -0.451216
     7  Si   0.007278   0.009410  -0.002595   0.003822  -0.000644  -0.000753
     8  Si  -0.095555  -0.368501  -0.305171  -0.010330   0.096822   0.074741
     9  Si   0.000210  -0.001482  -0.000614  -0.001040   0.002587   0.004181
    10  O    0.000000  -0.000002   0.000000   0.000005  -0.000001  -0.000002
    11  O    0.000019   0.000001  -0.000024  -0.000002   0.000002  -0.000001
    12  O    0.000009   0.000018  -0.000016  -0.000001  -0.000005  -0.000001
    13  O    8.628093   0.087100  -0.090670   0.003736  -0.030894  -0.045621
    14  O    0.087100   8.674430   0.055539   0.003664  -0.035822  -0.026846
    15  O   -0.090670   0.055539   8.777592  -0.000175   0.003603   0.001674
    16  O    0.003736   0.003664  -0.000175   8.902068  -0.091722  -0.114938
    17  O   -0.030894  -0.035822   0.003603  -0.091722   8.935620   0.227610
    18  O   -0.045621  -0.026846   0.001674  -0.114938   0.227610   9.012999
    19  O    0.000179  -0.000448   0.000141  -0.001529  -0.029966   0.000162
    20  O    0.000008  -0.000245   0.000038   0.000065  -0.000978   0.000015
    21  O   -0.000250   0.015943  -0.000619  -0.000214  -0.005582   0.000477
    22  H   -0.000000  -0.000000  -0.000000   0.000000   0.000000  -0.000000
    23  H    0.000000   0.000000  -0.000000  -0.000000   0.000000  -0.000000
    24  H   -0.000000   0.000000   0.000002   0.000000  -0.000000  -0.000000
    25  H    0.218423  -0.011959   0.008914  -0.000053   0.000630   0.014932
    26  H   -0.005117  -0.010080   0.216985   0.000000  -0.000003   0.000006
    27  H   -0.009731   0.219328   0.004632   0.000183   0.017927  -0.000256
    28  H    0.000000  -0.000006  -0.000001  -0.000000   0.000004  -0.000000
    29  H    0.000796   0.017593  -0.002570  -0.000004  -0.000395   0.000006
    30  H    0.000001   0.000001   0.000000   0.000115  -0.000399  -0.000007
    31  H    0.002359   0.000166  -0.000018   0.003767  -0.000749   0.218142
    32  H   -0.000008  -0.000006   0.000000   0.233449  -0.003637   0.003887
    33  H    0.000230   0.002088  -0.000035  -0.000102   0.230991   0.002100
              19         20         21         22         23         24
     1  Zr   0.001422  -0.145989   0.036119  -0.008951  -0.007604  -0.005086
     2  O    0.008947  -0.000576   0.010230  -0.000018  -0.000013  -0.000195
     3  O    0.265088   0.163910   0.146187  -0.000015  -0.000006  -0.000012
     4  O    0.010289  -0.000860   0.003426  -0.000009  -0.000056   0.000003
     5  O    0.002142   0.001483   0.000206   0.005761  -0.025331  -0.005443
     6  Si  -0.007590   0.009077  -0.011943   0.000086   0.000085   0.000070
     7  Si  -0.409280  -0.108832   0.024404  -0.000185   0.000059   0.000054
     8  Si  -0.016049   0.009623  -0.039989   0.000090   0.000062  -0.000098
     9  Si   0.001043   0.003154  -0.001807   0.047242   0.081101   0.037098
    10  O    0.000007   0.000003   0.000001  -0.006480   0.228592   0.007390
    11  O   -0.000002  -0.000003   0.000001  -0.005086  -0.006169   0.242454
    12  O   -0.000022  -0.000027   0.000024   0.219652   0.005904  -0.007451
    13  O    0.000179   0.000008  -0.000250  -0.000000   0.000000  -0.000000
    14  O   -0.000448  -0.000245   0.015943  -0.000000   0.000000   0.000000
    15  O    0.000141   0.000038  -0.000619  -0.000000  -0.000000   0.000002
    16  O   -0.001529   0.000065  -0.000214   0.000000  -0.000000   0.000000
    17  O   -0.029966  -0.000978  -0.005582   0.000000   0.000000  -0.000000
    18  O    0.000162   0.000015   0.000477  -0.000000  -0.000000  -0.000000
    19  O    8.872672   0.032194   0.023397  -0.000000   0.000000  -0.000000
    20  O    0.032194   8.657159  -0.050456   0.000000   0.000000  -0.000000
    21  O    0.023397  -0.050456   8.485655  -0.000000   0.000000   0.000000
    22  H   -0.000000   0.000000  -0.000000   0.361638   0.000056   0.000123
    23  H    0.000000   0.000000   0.000000   0.000056   0.350978   0.000014
    24  H   -0.000000  -0.000000   0.000000   0.000123   0.000014   0.365215
    25  H   -0.000024   0.000000  -0.000019   0.000000   0.000000   0.000000
    26  H    0.000001  -0.000000   0.000039  -0.000000  -0.000000  -0.000000
    27  H    0.000033   0.000192  -0.004010  -0.000000  -0.000000   0.000000
    28  H    0.004618   0.229579  -0.002068  -0.000000   0.000000  -0.000000
    29  H   -0.008569   0.007667   0.206471   0.000000   0.000000  -0.000000
    30  H    0.224189  -0.001488  -0.007149   0.000000   0.000000  -0.000000
    31  H    0.000004  -0.000000  -0.000000  -0.000000  -0.000000   0.000000
    32  H    0.000097  -0.000000   0.000001  -0.000000  -0.000000  -0.000000
    33  H    0.014836  -0.000082   0.001477  -0.000000  -0.000000  -0.000000
              25         26         27         28         29         30
     1  Zr   0.016846   0.007304   0.004176   0.005075   0.004164   0.000751
     2  O   -0.019986   0.000607  -0.019190  -0.000011  -0.007059  -0.000012
     3  O   -0.000110   0.000014   0.000849  -0.018408  -0.020279   0.000055
     4  O   -0.000312  -0.000011  -0.001699  -0.000014  -0.000141  -0.000454
     5  O    0.000019  -0.000004   0.000011  -0.000015  -0.000074  -0.000008
     6  Si   0.002663  -0.000152   0.008820  -0.000283   0.000134  -0.000664
     7  Si  -0.000457  -0.000383   0.001329   0.056627   0.048173   0.040295
     8  Si   0.057437   0.046104   0.068466  -0.000067   0.021898   0.000109
     9  Si  -0.000209  -0.000044  -0.000008  -0.000135  -0.000058   0.000022
    10  O    0.000000  -0.000000   0.000000  -0.000000   0.000000  -0.000000
    11  O   -0.000000   0.000000  -0.000000  -0.000000   0.000000   0.000000
    12  O   -0.000000  -0.000000  -0.000000  -0.000004  -0.000001   0.000000
    13  O    0.218423  -0.005117  -0.009731   0.000000   0.000796   0.000001
    14  O   -0.011959  -0.010080   0.219328  -0.000006   0.017593   0.000001
    15  O    0.008914   0.216985   0.004632  -0.000001  -0.002570   0.000000
    16  O   -0.000053   0.000000   0.000183  -0.000000  -0.000004   0.000115
    17  O    0.000630  -0.000003   0.017927   0.000004  -0.000395  -0.000399
    18  O    0.014932   0.000006  -0.000256  -0.000000   0.000006  -0.000007
    19  O   -0.000024   0.000001   0.000033   0.004618  -0.008569   0.224189
    20  O    0.000000  -0.000000   0.000192   0.229579   0.007667  -0.001488
    21  O   -0.000019   0.000039  -0.004010  -0.002068   0.206471  -0.007149
    22  H    0.000000  -0.000000  -0.000000  -0.000000   0.000000   0.000000
    23  H    0.000000  -0.000000  -0.000000   0.000000   0.000000   0.000000
    24  H    0.000000  -0.000000   0.000000  -0.000000  -0.000000  -0.000000
    25  H    0.298868  -0.000012   0.000114   0.000000   0.000001   0.000000
    26  H   -0.000012   0.365995   0.000036   0.000000   0.000021  -0.000000
    27  H    0.000114   0.000036   0.283360  -0.000000  -0.001499   0.000009
    28  H    0.000000   0.000000  -0.000000   0.349181  -0.000017  -0.000016
    29  H    0.000001   0.000021  -0.001499  -0.000017   0.285946   0.000156
    30  H    0.000000  -0.000000   0.000009  -0.000016   0.000156   0.334252
    31  H   -0.000496   0.000000   0.000013  -0.000000   0.000000  -0.000000
    32  H   -0.000001   0.000000  -0.000000   0.000000  -0.000000  -0.000000
    33  H    0.000006  -0.000000  -0.002408  -0.000002   0.000100  -0.001160
              31         32         33
     1  Zr  -0.000128   0.002106  -0.016015
     2  O    0.000174  -0.000024   0.001018
     3  O   -0.000020   0.000040  -0.010121
     4  O   -0.018443   0.010439  -0.009596
     5  O   -0.000010   0.000001  -0.000102
     6  Si   0.063769   0.022778   0.053277
     7  Si   0.000154  -0.000661   0.020631
     8  Si  -0.001978   0.000054   0.000110
     9  Si  -0.000053   0.000009   0.000078
    10  O    0.000000  -0.000000  -0.000000
    11  O   -0.000000   0.000000   0.000000
    12  O    0.000000  -0.000000   0.000000
    13  O    0.002359  -0.000008   0.000230
    14  O    0.000166  -0.000006   0.002088
    15  O   -0.000018   0.000000  -0.000035
    16  O    0.003767   0.233449  -0.000102
    17  O   -0.000749  -0.003637   0.230991
    18  O    0.218142   0.003887   0.002100
    19  O    0.000004   0.000097   0.014836
    20  O   -0.000000  -0.000000  -0.000082
    21  O   -0.000000   0.000001   0.001477
    22  H   -0.000000  -0.000000  -0.000000
    23  H   -0.000000  -0.000000  -0.000000
    24  H    0.000000  -0.000000  -0.000000
    25  H   -0.000496  -0.000001   0.000006
    26  H    0.000000   0.000000  -0.000000
    27  H    0.000013  -0.000000  -0.002408
    28  H   -0.000000   0.000000  -0.000002
    29  H    0.000000  -0.000000   0.000100
    30  H   -0.000000  -0.000000  -0.001160
    31  H    0.331426   0.000001  -0.000038
    32  H    0.000001   0.349972   0.000157
    33  H   -0.000038   0.000157   0.269239
 Mulliken charges:
               1
     1  Zr   0.004478
     2  O   -0.550229
     3  O   -0.418797
     4  O   -0.680485
     5  O   -0.369175
     6  Si   2.230497
     7  Si   1.786261
     8  Si   2.016777
     9  Si   1.601148
    10  O   -0.843925
    11  O   -0.787485
    12  O   -0.790574
    13  O   -0.842043
    14  O   -0.880448
    15  O   -0.877232
    16  O   -0.734637
    17  O   -0.968467
    18  O   -1.081719
    19  O   -0.987980
    20  O   -0.804632
    21  O   -0.829953
    22  H    0.386095
    23  H    0.372327
    24  H    0.365863
    25  H    0.414789
    26  H    0.378693
    27  H    0.429322
    28  H    0.375962
    29  H    0.447540
    30  H    0.411403
    31  H    0.401958
    32  H    0.381348
    33  H    0.443322
 Sum of Mulliken charges =  -0.00000
 Mulliken charges with hydrogens summed into heavy atoms:
               1
     1  Zr   0.004478
     2  O   -0.550229
     3  O   -0.418797
     4  O   -0.680485
     5  O   -0.369175
     6  Si   2.230497
     7  Si   1.786261
     8  Si   2.016777
     9  Si   1.601148
    10  O   -0.471598
    11  O   -0.421622
    12  O   -0.404479
    13  O   -0.427255
    14  O   -0.451127
    15  O   -0.498539
    16  O   -0.353290
    17  O   -0.525145
    18  O   -0.679761
    19  O   -0.576577
    20  O   -0.428669
    21  O   -0.382413
 Electronic spatial extent (au):  <R**2>=           9868.6806
 Charge=              0.0000 electrons
 Dipole moment (field-independent basis, Debye):
    X=              1.0675    Y=             -0.7758    Z=             -2.4061  Tot=              2.7442
 Quadrupole moment (field-independent basis, Debye-Ang):
   XX=           -160.2399   YY=           -154.6782   ZZ=           -157.7663
   XY=             -4.9214   XZ=              2.2532   YZ=              5.7464
 Traceless Quadrupole moment (field-independent basis, Debye-Ang):
   XX=             -2.6785   YY=              2.8833   ZZ=             -0.2049
   XY=             -4.9214   XZ=              2.2532   YZ=              5.7464
 Octapole moment (field-independent basis, Debye-Ang**2):
  XXX=             74.2049  YYY=              6.7561  ZZZ=            -18.6847  XYY=             -2.2530
  XXY=             20.2811  XXZ=             19.1054  XZZ=              5.2936  YZZ=            -17.2987
  YYZ=            -15.6281  XYZ=             28.2004
 Hexadecapole moment (field-independent basis, Debye-Ang**3):
 XXXX=          -6032.0337 YYYY=          -2836.2251 ZZZZ=          -2259.4743 XXXY=             55.6291
 XXXZ=            -23.4646 YYYX=              4.6937 YYYZ=            218.0141 ZZZX=           -183.8193
 ZZZY=            -55.2291 XXYY=          -1482.7726 XXZZ=          -1363.0017 YYZZ=           -924.6125
 XXYZ=             -6.4798 YYXZ=            130.0187 ZZXY=            -59.4612
 N-N= 2.832880040914D+03 E-N=-1.137835996252D+04  KE= 2.373154908992D+03
 1\1\GINC-GRA624\FOpt\RB3LYP\Gen\H12O16Si4Zr1\SARASHS\14-Aug-2020\0\\#n
  B3LYP/Gen Pseudo=cards EmpiricalDispersion=GD3 Opt=modredundant\\Titl
 e\\0,1\Zr,0.6574361094,-0.1274279753,-0.0622780979\O,-0.2167530344,-0.
 9430540944,1.4724759071\O,0.0998857757,1.744983547,-0.0714547709\O,-0.
 2725874001,-0.9499701245,-1.602430158\O,2.5921941077,-0.4346796538,-0.
 0871422502\Si,-1.8363211905,-1.2980780957,-1.9607605828\Si,-1.12016486
 64,2.8361221508,-0.0033857521\Si,-1.7148960454,-1.2058196125,2.1104599
 274\Si,4.216176897,-0.2610501193,0.0156222477\O,4.9585625464,-0.065842
 165,-1.4459687893\O,4.8978193911,-1.6221447305,0.6712897923\O,4.445191
 2015,1.1094586433,0.9051681992\O,-2.3096701027,-2.6684771314,1.6620811
 817\O,-2.7192338673,0.0224901777,1.5762265169\O,-1.5825595998,-1.10744
 15237,3.741664663\O,-2.0122473407,-1.4906485354,-3.5888501545\O,-2.829
 4186162,-0.1681959386,-1.2805008932\O,-2.3448558946,-2.6970542643,-1.2
 179711586\O,-2.0493563491,2.4615669079,-1.3558708007\O,-0.6434980402,4
 .3999749584,-0.1885897262\O,-1.9651066219,2.7238941068,1.3941416945\H,
 5.3323120421,1.4856087138,0.9046896161\H,5.3070284682,-0.8682308195,-1
 .8507684997\H,4.4620015674,-2.0100122654,1.4382914786\H,-2.3992870418,
 -2.8335702063,0.7062578191\H,-2.3643606414,-1.324127277,4.2611043136\H
 ,-3.0584087303,-0.1066603432,0.6694874733\H,-0.5329737748,4.9095844881
 ,0.6221869299\H,-2.2662807417,1.8262509073,1.6476142021\H,-2.659654505
 3,3.1540246726,-1.6386718088\H,-2.3048751626,-3.5010094993,-1.74817622
 67\H,-1.2845663619,-1.1808912418,-4.1394863709\H,-2.6167121775,0.77735
 6343,-1.4494759224\\Version=ES64L-G16RevB.01\State=1-A\HF=-2416.946856
 8\RMSD=2.658e-09\RMSF=6.173e-06\Dipole=0.4190881,-0.2850937,-0.9532911
 \Quadrupole=-1.9783539,1.9574986,0.0208554,-3.6918094,1.5967892,4.3227
 89\PG=C01 [X(H12O16Si4Zr1)]\\@


 MATERIAL COPIED FROM ONE SCHOLARLY BOOK WITHOUT CREDIT COMPRISES PLAGIARISM.
 MATERIAL COPIED FROM TWO SCHOLARLY BOOKS COMPRISES AN ESSAY.
 MATERIAL COPIED FROM THREE SCHOLARLY BOOKS COMPRISES A DISSERTATION.
 MATERIAL COPIED FROM FOUR SCHOLARLY BOOKS COMPRISES A FIFTH SCHOLARLY BOOK.

                               -- C&EN, 25 FEB 1980
 Job cpu time:       0 days 12 hours  2 minutes 39.4 seconds.
 Elapsed time:       0 days  0 hours 54 minutes 20.8 seconds.
 File lengths (MBytes):  RWF=    167 Int=      0 D2E=      0 Chk=     21 Scr=      1
 Normal termination of Gaussian 16 at Fri Aug 14 04:12:10 2020.
