 Entering Gaussian System, Link 0=g16
 Initial command:
 /opt/software/gaussian/g16.b01/l1.exe "/localscratch/sarashs.37242642.0/Gau-16667.inp" -scrdir="/localscratch/sarashs.37242642.0/"
 Entering Link 1 = /opt/software/gaussian/g16.b01/l1.exe PID=     16669.
  
 Copyright (c) 1988-2017, Gaussian, Inc.  All Rights Reserved.
  
 This is part of the Gaussian(R) 16 program.  It is based on
 the Gaussian(R) 09 system (copyright 2009, Gaussian, Inc.),
 the Gaussian(R) 03 system (copyright 2003, Gaussian, Inc.),
 the Gaussian(R) 98 system (copyright 1998, Gaussian, Inc.),
 the Gaussian(R) 94 system (copyright 1995, Gaussian, Inc.),
 the Gaussian 92(TM) system (copyright 1992, Gaussian, Inc.),
 the Gaussian 90(TM) system (copyright 1990, Gaussian, Inc.),
 the Gaussian 88(TM) system (copyright 1988, Gaussian, Inc.),
 the Gaussian 86(TM) system (copyright 1986, Carnegie Mellon
 University), and the Gaussian 82(TM) system (copyright 1983,
 Carnegie Mellon University). Gaussian is a federally registered
 trademark of Gaussian, Inc.
  
 This software contains proprietary and confidential information,
 including trade secrets, belonging to Gaussian, Inc.
  
 This software is provided under written license and may be
 used, copied, transmitted, or stored only in accord with that
 written license.
  
 The following legend is applicable only to US Government
 contracts under FAR:
  
                    RESTRICTED RIGHTS LEGEND
  
 Use, reproduction and disclosure by the US Government is
 subject to restrictions as set forth in subparagraphs (a)
 and (c) of the Commercial Computer Software - Restricted
 Rights clause in FAR 52.227-19.
  
 Gaussian, Inc.
 340 Quinnipiac St., Bldg. 40, Wallingford CT 06492
  
  
 ---------------------------------------------------------------
 Warning -- This program may not be used in any manner that
 competes with the business of Gaussian, Inc. or will provide
 assistance to any competitor of Gaussian, Inc.  The licensee
 of this program is prohibited from giving any competitor of
 Gaussian, Inc. access to this program.  By using this program,
 the user acknowledges that Gaussian, Inc. is engaged in the
 business of creating and licensing software in the field of
 computational chemistry and represents and warrants to the
 licensee that it is not a competitor of Gaussian, Inc. and that
 it will not use this program in any manner prohibited above.
 ---------------------------------------------------------------
  

 Cite this work as:
 Gaussian 16, Revision B.01,
 M. J. Frisch, G. W. Trucks, H. B. Schlegel, G. E. Scuseria, 
 M. A. Robb, J. R. Cheeseman, G. Scalmani, V. Barone, 
 G. A. Petersson, H. Nakatsuji, X. Li, M. Caricato, A. V. Marenich, 
 J. Bloino, B. G. Janesko, R. Gomperts, B. Mennucci, H. P. Hratchian, 
 J. V. Ortiz, A. F. Izmaylov, J. L. Sonnenberg, D. Williams-Young, 
 F. Ding, F. Lipparini, F. Egidi, J. Goings, B. Peng, A. Petrone, 
 T. Henderson, D. Ranasinghe, V. G. Zakrzewski, J. Gao, N. Rega, 
 G. Zheng, W. Liang, M. Hada, M. Ehara, K. Toyota, R. Fukuda, 
 J. Hasegawa, M. Ishida, T. Nakajima, Y. Honda, O. Kitao, H. Nakai, 
 T. Vreven, K. Throssell, J. A. Montgomery, Jr., J. E. Peralta, 
 F. Ogliaro, M. J. Bearpark, J. J. Heyd, E. N. Brothers, K. N. Kudin, 
 V. N. Staroverov, T. A. Keith, R. Kobayashi, J. Normand, 
 K. Raghavachari, A. P. Rendell, J. C. Burant, S. S. Iyengar, 
 J. Tomasi, M. Cossi, J. M. Millam, M. Klene, C. Adamo, R. Cammi, 
 J. W. Ochterski, R. L. Martin, K. Morokuma, O. Farkas, 
 J. B. Foresman, and D. J. Fox, Gaussian, Inc., Wallingford CT, 2016.
 
 ******************************************
 Gaussian 16:  ES64L-G16RevB.01 20-Dec-2017
                14-Aug-2020 
 ******************************************
 %NProcShared=16
 Will use up to   16 processors via shared memory.
 ------------------------------------------------------------------
 #n B3LYP/Gen Pseudo=cards EmpiricalDispersion=GD3 Opt=modredundant
 ------------------------------------------------------------------
 1/18=120,19=15,26=3,38=1/1,3;
 2/9=110,12=2,17=6,18=5,40=1/2;
 3/5=7,11=2,16=1,17=8,25=1,30=1,71=1,74=-5,124=31/1,2,3;
 4//1;
 5/5=2,38=5/2;
 6/7=2,8=2,9=2,10=2,28=1/1;
 7//1,2,3,16;
 1/18=20,19=15,26=3/3(2);
 2/9=110/2;
 99//99;
 2/9=110/2;
 3/5=7,6=1,11=2,16=1,17=8,25=1,30=1,71=1,74=-5,82=7,124=31/1,2,3;
 4/5=5,16=3,69=1/1;
 5/5=2,38=5/2;
 7//1,2,3,16;
 1/18=20,19=15,26=3/3(-5);
 2/9=110/2;
 6/7=2,8=2,9=2,10=2,19=2,28=1/1;
 99/9=1/99;
 -----
 Title
 -----
 Symbolic Z-matrix:
 Charge =  0 Multiplicity = 1
 Zr                    0.65558  -0.18534   0.07674 
 O                    -0.16112  -1.40895   1.34983 
 O                     0.07593   1.60585   0.59872 
 O                    -0.3119   -0.57026  -1.60531 
 O                     2.59206  -0.4363   -0.08284 
 Si                   -1.88163  -0.83723  -2.00465 
 Si                   -1.1541    2.61192   0.99697 
 Si                   -1.63587  -1.86648   1.92968 
 Si                    4.21631  -0.26105   0.01252 
 O                     4.95566  -0.09972  -1.45475 
 O                     4.89877  -1.60704   0.69775 
 O                     4.44778   1.12944   0.86985 
 O                    -2.22699  -3.16076   1.11141 
 O                    -2.67044  -0.55862   1.78111 
 O                    -1.4549   -2.21806   3.52083 
 O                    -2.10505  -0.57775  -3.61755 
 O                    -2.86668   0.04201  -1.01353 
 O                    -2.35059  -2.39636  -1.66314 
 O                    -2.11997   2.60573  -0.38141 
 O                    -0.70163   4.17544   1.23747 
 O                    -1.95424   2.10286   2.33123 
 H                     5.33501   1.50516   0.85865 
 H                     5.3042   -0.91111  -1.84112 
 H                     4.46373  -1.97795   1.47352 
 H                    -2.34405  -3.05826   0.14981 
 H                    -2.21783  -2.58497   3.98051 
 H                    -3.03576  -0.43998   0.88313 
 H                    -0.57232   4.44439   2.15411 
 H                    -2.23705   1.16438   2.33519 
 H                    -2.74663   3.33719  -0.44631 
 H                    -2.31816  -3.0223   -2.39539 
 H                    -1.39813  -0.11434  -4.08035 
 H                    -2.67032   1.00155  -0.92088 
 
 The following ModRedundant input section has been read:
 A       1       5       9 F                                                   
 

 GradGradGradGradGradGradGradGradGradGradGradGradGradGradGradGradGradGrad
 Berny optimization.
 Initialization pass.
                           ----------------------------
                           !    Initial Parameters    !
                           ! (Angstroms and Degrees)  !
 --------------------------                            --------------------------
 ! Name  Definition              Value          Derivative Info.                !
 --------------------------------------------------------------------------------
 ! R1    R(1,2)                  1.9455         estimate D2E/DX2                !
 ! R2    R(1,3)                  1.9537         estimate D2E/DX2                !
 ! R3    R(1,4)                  1.9783         estimate D2E/DX2                !
 ! R4    R(1,5)                  1.9592         estimate D2E/DX2                !
 ! R5    R(2,8)                  1.6494         estimate D2E/DX2                !
 ! R6    R(3,7)                  1.6382         estimate D2E/DX2                !
 ! R7    R(4,6)                  1.6416         estimate D2E/DX2                !
 ! R8    R(5,9)                  1.6365         estimate D2E/DX2                !
 ! R9    R(6,16)                 1.6488         estimate D2E/DX2                !
 ! R10   R(6,17)                 1.651          estimate D2E/DX2                !
 ! R11   R(6,18)                 1.6636         estimate D2E/DX2                !
 ! R12   R(7,19)                 1.6831         estimate D2E/DX2                !
 ! R13   R(7,20)                 1.6453         estimate D2E/DX2                !
 ! R14   R(7,21)                 1.637          estimate D2E/DX2                !
 ! R15   R(8,13)                 1.6414         estimate D2E/DX2                !
 ! R16   R(8,14)                 1.6742         estimate D2E/DX2                !
 ! R17   R(8,15)                 1.6395         estimate D2E/DX2                !
 ! R18   R(9,10)                 1.6509         estimate D2E/DX2                !
 ! R19   R(9,11)                 1.6574         estimate D2E/DX2                !
 ! R20   R(9,12)                 1.6499         estimate D2E/DX2                !
 ! R21   R(10,23)                0.9639         estimate D2E/DX2                !
 ! R22   R(11,24)                0.9637         estimate D2E/DX2                !
 ! R23   R(12,22)                0.9636         estimate D2E/DX2                !
 ! R24   R(13,25)                0.9741         estimate D2E/DX2                !
 ! R25   R(14,27)                0.9767         estimate D2E/DX2                !
 ! R26   R(15,26)                0.9633         estimate D2E/DX2                !
 ! R27   R(16,32)                0.9637         estimate D2E/DX2                !
 ! R28   R(17,33)                0.9838         estimate D2E/DX2                !
 ! R29   R(18,31)                0.9639         estimate D2E/DX2                !
 ! R30   R(19,30)                0.9654         estimate D2E/DX2                !
 ! R31   R(20,28)                0.964          estimate D2E/DX2                !
 ! R32   R(21,29)                0.9802         estimate D2E/DX2                !
 ! A1    A(2,1,3)              106.0962         estimate D2E/DX2                !
 ! A2    A(2,1,4)              103.2217         estimate D2E/DX2                !
 ! A3    A(2,1,5)              112.809          estimate D2E/DX2                !
 ! A4    A(3,1,4)              105.0977         estimate D2E/DX2                !
 ! A5    A(3,1,5)              115.624          estimate D2E/DX2                !
 ! A6    A(4,1,5)              112.9054         estimate D2E/DX2                !
 ! A7    A(1,2,8)              141.2478         estimate D2E/DX2                !
 ! A8    A(1,3,7)              148.2959         estimate D2E/DX2                !
 ! A9    A(1,4,6)              134.9215         estimate D2E/DX2                !
 ! A10   A(1,5,9)              164.2751         Frozen                          !
 ! A11   A(4,6,16)             109.995          estimate D2E/DX2                !
 ! A12   A(4,6,17)             109.7481         estimate D2E/DX2                !
 ! A13   A(4,6,18)             111.8417         estimate D2E/DX2                !
 ! A14   A(16,6,17)            114.9977         estimate D2E/DX2                !
 ! A15   A(16,6,18)            108.0657         estimate D2E/DX2                !
 ! A16   A(17,6,18)            101.9871         estimate D2E/DX2                !
 ! A17   A(3,7,19)             103.2693         estimate D2E/DX2                !
 ! A18   A(3,7,20)             114.3707         estimate D2E/DX2                !
 ! A19   A(3,7,21)             111.9732         estimate D2E/DX2                !
 ! A20   A(19,7,20)            106.3206         estimate D2E/DX2                !
 ! A21   A(19,7,21)            112.6976         estimate D2E/DX2                !
 ! A22   A(20,7,21)            108.107          estimate D2E/DX2                !
 ! A23   A(2,8,13)             111.4371         estimate D2E/DX2                !
 ! A24   A(2,8,14)             107.736          estimate D2E/DX2                !
 ! A25   A(2,8,15)             107.576          estimate D2E/DX2                !
 ! A26   A(13,8,14)            110.4387         estimate D2E/DX2                !
 ! A27   A(13,8,15)            110.7609         estimate D2E/DX2                !
 ! A28   A(14,8,15)            108.7746         estimate D2E/DX2                !
 ! A29   A(5,9,10)             113.7768         estimate D2E/DX2                !
 ! A30   A(5,9,11)             110.2316         estimate D2E/DX2                !
 ! A31   A(5,9,12)             105.0573         estimate D2E/DX2                !
 ! A32   A(10,9,11)            105.2125         estimate D2E/DX2                !
 ! A33   A(10,9,12)            108.46           estimate D2E/DX2                !
 ! A34   A(11,9,12)            114.3199         estimate D2E/DX2                !
 ! A35   A(9,10,23)            115.8441         estimate D2E/DX2                !
 ! A36   A(9,11,24)            117.3556         estimate D2E/DX2                !
 ! A37   A(9,12,22)            116.857          estimate D2E/DX2                !
 ! A38   A(8,13,25)            116.8996         estimate D2E/DX2                !
 ! A39   A(8,14,27)            114.0558         estimate D2E/DX2                !
 ! A40   A(8,15,26)            117.2165         estimate D2E/DX2                !
 ! A41   A(6,16,32)            116.4907         estimate D2E/DX2                !
 ! A42   A(6,17,33)            117.1857         estimate D2E/DX2                !
 ! A43   A(6,18,31)            116.3079         estimate D2E/DX2                !
 ! A44   A(7,19,30)            115.1369         estimate D2E/DX2                !
 ! A45   A(7,20,28)            116.1676         estimate D2E/DX2                !
 ! A46   A(7,21,29)            116.2365         estimate D2E/DX2                !
 ! D1    D(3,1,2,8)             57.7296         estimate D2E/DX2                !
 ! D2    D(4,1,2,8)            -52.5298         estimate D2E/DX2                !
 ! D3    D(5,1,2,8)           -174.7065         estimate D2E/DX2                !
 ! D4    D(2,1,3,7)            -50.0984         estimate D2E/DX2                !
 ! D5    D(4,1,3,7)             58.8314         estimate D2E/DX2                !
 ! D6    D(5,1,3,7)           -175.9645         estimate D2E/DX2                !
 ! D7    D(2,1,4,6)             42.7688         estimate D2E/DX2                !
 ! D8    D(3,1,4,6)            -68.231          estimate D2E/DX2                !
 ! D9    D(5,1,4,6)            164.8808         estimate D2E/DX2                !
 ! D10   D(2,1,5,9)           -106.9246         estimate D2E/DX2                !
 ! D11   D(3,1,5,9)             15.4387         estimate D2E/DX2                !
 ! D12   D(4,1,5,9)            136.5207         estimate D2E/DX2                !
 ! D13   D(1,2,8,13)            93.53           estimate D2E/DX2                !
 ! D14   D(1,2,8,14)           -27.766          estimate D2E/DX2                !
 ! D15   D(1,2,8,15)          -144.8801         estimate D2E/DX2                !
 ! D16   D(1,3,7,19)           -61.101          estimate D2E/DX2                !
 ! D17   D(1,3,7,20)          -176.1752         estimate D2E/DX2                !
 ! D18   D(1,3,7,21)            60.4097         estimate D2E/DX2                !
 ! D19   D(1,4,6,16)           160.1671         estimate D2E/DX2                !
 ! D20   D(1,4,6,17)            32.6919         estimate D2E/DX2                !
 ! D21   D(1,4,6,18)           -79.7426         estimate D2E/DX2                !
 ! D22   D(1,5,9,10)          -117.4786         estimate D2E/DX2                !
 ! D23   D(1,5,9,11)           124.6191         estimate D2E/DX2                !
 ! D24   D(1,5,9,12)             1.0003         estimate D2E/DX2                !
 ! D25   D(4,6,16,32)          -14.2002         estimate D2E/DX2                !
 ! D26   D(17,6,16,32)         110.2979         estimate D2E/DX2                !
 ! D27   D(18,6,16,32)        -136.5527         estimate D2E/DX2                !
 ! D28   D(4,6,17,33)           51.0104         estimate D2E/DX2                !
 ! D29   D(16,6,17,33)         -73.6173         estimate D2E/DX2                !
 ! D30   D(18,6,17,33)         169.7171         estimate D2E/DX2                !
 ! D31   D(4,6,18,31)          -96.4422         estimate D2E/DX2                !
 ! D32   D(16,6,18,31)          24.7711         estimate D2E/DX2                !
 ! D33   D(17,6,18,31)         146.3492         estimate D2E/DX2                !
 ! D34   D(3,7,19,30)         -162.1841         estimate D2E/DX2                !
 ! D35   D(20,7,19,30)         -41.4663         estimate D2E/DX2                !
 ! D36   D(21,7,19,30)          76.7953         estimate D2E/DX2                !
 ! D37   D(3,7,20,28)          -98.4268         estimate D2E/DX2                !
 ! D38   D(19,7,20,28)         148.2944         estimate D2E/DX2                !
 ! D39   D(21,7,20,28)          27.0451         estimate D2E/DX2                !
 ! D40   D(3,7,21,29)          -49.9            estimate D2E/DX2                !
 ! D41   D(19,7,21,29)          66.0157         estimate D2E/DX2                !
 ! D42   D(20,7,21,29)        -176.7754         estimate D2E/DX2                !
 ! D43   D(2,8,13,25)          -58.4669         estimate D2E/DX2                !
 ! D44   D(14,8,13,25)          61.2413         estimate D2E/DX2                !
 ! D45   D(15,8,13,25)        -178.1886         estimate D2E/DX2                !
 ! D46   D(2,8,14,27)           80.2923         estimate D2E/DX2                !
 ! D47   D(13,8,14,27)         -41.6246         estimate D2E/DX2                !
 ! D48   D(15,8,14,27)        -163.3753         estimate D2E/DX2                !
 ! D49   D(2,8,15,26)         -174.1997         estimate D2E/DX2                !
 ! D50   D(13,8,15,26)         -52.189          estimate D2E/DX2                !
 ! D51   D(14,8,15,26)          69.3652         estimate D2E/DX2                !
 ! D52   D(5,9,10,23)          -94.8502         estimate D2E/DX2                !
 ! D53   D(11,9,10,23)          25.9079         estimate D2E/DX2                !
 ! D54   D(12,9,10,23)         148.64           estimate D2E/DX2                !
 ! D55   D(5,9,11,24)          -43.8205         estimate D2E/DX2                !
 ! D56   D(10,9,11,24)        -166.8799         estimate D2E/DX2                !
 ! D57   D(12,9,11,24)          74.2393         estimate D2E/DX2                !
 ! D58   D(5,9,12,22)         -166.4771         estimate D2E/DX2                !
 ! D59   D(10,9,12,22)         -44.4742         estimate D2E/DX2                !
 ! D60   D(11,9,12,22)          72.5545         estimate D2E/DX2                !
 --------------------------------------------------------------------------------
 Trust Radius=3.00D-01 FncErr=1.00D-07 GrdErr=1.00D-06 EigMax=2.50D+02 EigMin=1.00D-04
 Number of steps in this run=    148 maximum allowed number of steps=    198.
 GradGradGradGradGradGradGradGradGradGradGradGradGradGradGradGradGradGrad

                          Input orientation:                          
 ---------------------------------------------------------------------
 Center     Atomic      Atomic             Coordinates (Angstroms)
 Number     Number       Type             X           Y           Z
 ---------------------------------------------------------------------
      1         40           0        0.655580   -0.185340    0.076740
      2          8           0       -0.161120   -1.408950    1.349830
      3          8           0        0.075930    1.605850    0.598720
      4          8           0       -0.311900   -0.570260   -1.605310
      5          8           0        2.592060   -0.436300   -0.082840
      6         14           0       -1.881630   -0.837230   -2.004650
      7         14           0       -1.154100    2.611920    0.996970
      8         14           0       -1.635870   -1.866480    1.929680
      9         14           0        4.216310   -0.261050    0.012520
     10          8           0        4.955660   -0.099720   -1.454750
     11          8           0        4.898770   -1.607040    0.697750
     12          8           0        4.447780    1.129440    0.869850
     13          8           0       -2.226990   -3.160760    1.111410
     14          8           0       -2.670440   -0.558620    1.781110
     15          8           0       -1.454900   -2.218060    3.520830
     16          8           0       -2.105050   -0.577750   -3.617550
     17          8           0       -2.866680    0.042010   -1.013530
     18          8           0       -2.350590   -2.396360   -1.663140
     19          8           0       -2.119970    2.605730   -0.381410
     20          8           0       -0.701630    4.175440    1.237470
     21          8           0       -1.954240    2.102860    2.331230
     22          1           0        5.335010    1.505160    0.858650
     23          1           0        5.304200   -0.911110   -1.841120
     24          1           0        4.463730   -1.977950    1.473520
     25          1           0       -2.344050   -3.058260    0.149810
     26          1           0       -2.217830   -2.584970    3.980510
     27          1           0       -3.035760   -0.439980    0.883130
     28          1           0       -0.572320    4.444390    2.154110
     29          1           0       -2.237050    1.164380    2.335190
     30          1           0       -2.746630    3.337190   -0.446310
     31          1           0       -2.318160   -3.022300   -2.395390
     32          1           0       -1.398130   -0.114340   -4.080350
     33          1           0       -2.670320    1.001550   -0.920880
 ---------------------------------------------------------------------
                    Distance matrix (angstroms):
                    1          2          3          4          5
     1  Zr   0.000000
     2  O    1.945502   0.000000
     3  O    1.953668   3.115987   0.000000
     4  O    1.978250   3.075547   3.121476   0.000000
     5  O    1.959184   3.252475   3.311467   3.281592   0.000000
     6  Si   3.345830   3.813077   4.071636   1.641584   4.885489
     7  Si   3.456361   4.156671   1.638217   4.196121   4.948874
     8  Si   3.392692   1.649378   4.093750   3.991145   4.896023
     9  Si   3.562114   4.718895   4.579486   4.818472   1.636458
    10  O    4.565466   5.980066   5.562146   5.290677   2.753548
    11  O    4.517914   5.105579   5.795883   5.790516   2.702011
    12  O    4.091265   5.283537   4.406081   5.627606   2.608229
    13  O    4.269997   2.719099   5.318540   4.214122   5.663229
    14  O    3.755879   2.684353   3.691277   4.126825   5.584190
    15  O    4.521928   2.653633   5.050194   5.504453   5.704296
    16  O    4.628482   5.398576   5.225104   2.695283   5.880223
    17  O    3.694143   3.874379   3.701878   2.692950   5.558130
    18  O    4.117384   3.853147   5.198240   2.737561   5.546979
    19  O    3.962783   4.790818   2.604303   3.854084   5.616611
    20  O    4.712294   5.611612   2.759600   5.545715   5.818914
    21  O    4.138810   4.063402   2.714811   5.033806   5.739679
    22  H    5.036491   6.240252   5.266462   6.501235   3.489906
    23  H    5.080807   6.348207   6.294658   5.631373   3.266909
    24  H    4.434687   4.661362   5.732511   5.853839   2.881335
    25  H    4.154129   2.987550   5.273684   3.660632   5.594102
    26  H    5.408709   3.540276   5.853274   6.236426   6.653017
    27  H    3.786964   3.069245   3.734826   3.691710   5.710120
    28  H    5.220882   5.922630   3.301026   6.272780   6.232045
    29  H    3.910198   3.449992   2.925765   4.716219   5.632881
    30  H    4.925123   5.695334   3.472243   4.747563   6.547744
    31  H    4.796134   4.613284   6.009670   3.265242   6.012116
    32  H    4.637258   5.717785   5.198615   2.741091   5.657328
    33  H    3.669546   4.154843   3.196287   2.915678   5.519272
                    6          7          8          9         10
     6  Si   0.000000
     7  Si   4.629866   0.000000
     8  Si   4.074151   4.599795   0.000000
     9  Si   6.448708   6.169635   6.364033   0.000000
    10  O    6.898902   7.119908   7.617354   1.650923   0.000000
    11  O    7.339577   7.384199   6.654809   1.657402   2.628404
    12  O    7.224401   5.796116   6.863641   1.649865   2.678160
    13  O    3.902294   5.872650   1.641386   7.150664   8.218613
    14  O    3.877090   3.600901   1.674188   7.116445   8.296914
    15  O    5.711368   5.457935   1.639548   6.949874   8.386837
    16  O    1.648846   5.689648   5.714255   7.296389   7.399989
    17  O    1.650971   3.685034   3.717487   7.163335   7.836055
    18  O    1.663562   5.795743   3.701345   7.105741   7.661545
    19  O    3.813881   1.683115   5.057287   6.965777   7.650886
    20  O    6.085278   1.645346   6.152784   6.735657   7.584851
    21  O    5.239204   1.636953   4.002282   7.002869   8.181181
    22  H    8.109573   6.584269   7.817175   2.255421   2.841015
    23  H    7.188070   7.885184   7.955893   2.245454   0.963906
    24  H    7.325469   7.270077   6.117649   2.267925   3.513475
    25  H    3.128659   5.855305   2.256058   7.133131   8.038242
    26  H    6.244179   6.086107   2.249624   7.908458   9.336888
    27  H    3.135139   3.587157   2.256072   7.306333   8.333322
    28  H    6.848729   2.243967   6.403795   7.046882   8.014448
    29  H    4.792387   2.249219   3.116403   7.005177   8.227799
    30  H    4.538990   2.268309   5.827289   7.851139   8.494385
    31  H    2.262248   6.678890   4.528540   7.491450   7.895235
    32  H    2.250527   5.768121   6.264741   6.949464   6.874928
    33  H    2.275456   2.927518   4.173892   7.063361   7.723560
                   11         12         13         14         15
    11  O    0.000000
    12  O    2.778729   0.000000
    13  O    7.304904   7.938307   0.000000
    14  O    7.717888   7.372177   2.723285   0.000000
    15  O    6.979416   7.285265   2.700021   2.694050   0.000000
    16  O    8.290642   8.123474   5.389793   5.428219   7.353216
    17  O    8.120964   7.630921   3.896448   2.865184   5.259416
    18  O    7.664858   8.066296   2.880575   3.916944   5.263801
    19  O    8.256799   6.846928   5.957547   3.872031   6.240092
    20  O    8.068014   5.994137   7.494161   5.155878   6.830665
    21  O    7.962120   6.638451   5.409995   2.810525   4.509417
    22  H    3.146742   0.963570   8.889237   8.318494   8.188556
    23  H    2.663560   3.499523   8.396260   8.765825   8.726056
    24  H    0.963666   3.165524   6.804109   7.280487   6.267321
    25  H    7.407072   8.011507   0.974107   3.002644   3.586126
    26  H    7.898029   8.240352   2.926321   3.024617   0.963323
    27  H    8.022042   7.646347   2.847607   0.976679   3.552203
    28  H    8.286955   6.151392   7.852609   5.437954   6.858215
    29  H    7.828276   6.843639   4.494950   1.861064   3.668569
    30  H    9.176406   7.639763   6.702229   4.488267   6.947487
    31  H    7.978380   8.583512   3.510716   4.861787   6.032717
    32  H    8.044212   7.760550   6.076352   6.014389   7.887129
    33  H    8.167976   7.341009   4.653125   3.120077   5.618890
                   16         17         18         19         20
    16  O    0.000000
    17  O    2.783002   0.000000
    18  O    2.680923   2.575653   0.000000
    19  O    4.539534   2.744050   5.168841   0.000000
    20  O    6.937840   5.180703   7.370289   2.663916   0.000000
    21  O    6.526592   4.033245   6.029516   2.763831   2.657241
    22  H    8.929131   8.538945   8.980519   7.637128   6.611726
    23  H    7.626521   8.267806   7.799580   8.343693   8.451077
    24  H    8.427836   8.000035   7.513232   8.233832   8.037467
    25  H    4.516974   3.352339   1.930011   5.693258   7.497130
    26  H    7.859527   5.680006   5.648361   6.780803   7.451595
    27  H    4.597969   1.964236   3.283348   3.422584   5.184190
    28  H    7.802769   5.888886   8.033026   3.493530   0.963994
    29  H    6.203834   3.587489   5.355222   3.077517   3.553728
    30  H    5.078892   3.345798   5.874616   0.965375   2.778453
    31  H    2.741335   3.405937   0.963869   5.980812   8.223035
    32  H    0.963675   3.403890   3.457991   4.647794   6.867790
    33  H    3.175807   0.983798   3.492702   1.779693   4.313675
                   21         22         23         24         25
    21  O    0.000000
    22  H    7.460489   0.000000
    23  H    8.898172   3.623268   0.000000
    24  H    7.653693   3.642698   3.582091   0.000000
    25  H    5.616734   8.960760   8.189614   7.018913   0.000000
    26  H    4.976480   9.138959   9.657853   7.162173   3.861890
    27  H    3.119730   8.593833   8.786264   7.678298   2.805639
    28  H    2.724672   6.724124   8.898131   8.189716   7.965300
    29  H    0.980174   7.722201   8.866774   7.450984   4.755841
    30  H    3.141048   8.388812   9.209203   9.161100   6.435776
    31  H    6.981450   9.468774   7.928727   7.877383   2.545586
    32  H    6.806878   8.505979   7.111274   8.287335   5.239817
    33  H    3.507403   8.216183   8.252156   8.093531   4.211281
                   26         27         28         29         30
    26  H    0.000000
    27  H    3.855354   0.000000
    28  H    7.446834   5.616137   0.000000
    29  H    4.094517   2.306596   3.682741   0.000000
    30  H    7.412715   4.014725   3.565908   3.566163   0.000000
    31  H    6.391668   4.234622   8.916130   6.317694   6.665254
    32  H    8.470737   5.236794   7.767398   6.595306   5.190160
    33  H    6.090279   2.337949   5.070534   3.288803   2.384587
                   31         32         33
    31  H    0.000000
    32  H    3.484505   0.000000
    33  H    4.299949   3.584122   0.000000
 Stoichiometry    H12O16Si4Zr
 Framework group  C1[X(H12O16Si4Zr)]
 Deg. of freedom    93
 Full point group                 C1      NOp   1
 Largest Abelian subgroup         C1      NOp   1
 Largest concise Abelian subgroup C1      NOp   1
                         Standard orientation:                         
 ---------------------------------------------------------------------
 Center     Atomic      Atomic             Coordinates (Angstroms)
 Number     Number       Type             X           Y           Z
 ---------------------------------------------------------------------
      1         40           0        0.657851   -0.124393   -0.074190
      2          8           0       -0.220428   -0.918074    1.469725
      3          8           0        0.101912    1.748156   -0.110367
      4          8           0       -0.269590   -0.966904   -1.605041
      5          8           0        2.592292   -0.434367   -0.090155
      6         14           0       -1.832710   -1.318657   -1.962422
      7         14           0       -1.117207    2.841311   -0.060218
      8         14           0       -1.720409   -1.170586    2.107488
      9         14           0        4.216553   -0.258883    0.004586
     10          8           0        5.000417   -0.537266   -1.421460
     11          8           0        4.850533   -1.357813    1.071078
     12          8           0        4.453201    1.317036    0.431824
     13          8           0       -2.315539   -2.638731    1.677932
     14          8           0       -2.722284    0.051146    1.553843
     15          8           0       -1.592088   -1.049783    3.737537
     16          8           0       -2.004800   -1.533392   -3.588142
     17          8           0       -2.826489   -0.178665   -1.300208
     18          8           0       -2.344233   -2.706849   -1.201695
     19          8           0       -2.043575    2.449050   -1.409606
     20          8           0       -0.638550    4.402012   -0.265799
     21          8           0       -1.965459    2.749135    1.336775
     22          1           0        5.348189    1.662648    0.342286
     23          1           0        5.342407   -1.429862   -1.545680
     24          1           0        4.385906   -1.483505    1.905929
     25          1           0       -2.403117   -2.816923    0.724275
     26          1           0       -2.375364   -1.258942    4.257845
     27          1           0       -3.059425   -0.090189    0.648160
     28          1           0       -0.529550    4.922658    0.538149
     29          1           0       -2.268179    1.855323    1.601732
     30          1           0       -2.652435    3.138182   -1.703437
     31          1           0       -2.304414   -3.517958   -1.720887
     32          1           0       -1.275356   -1.232071   -4.141121
     33          1           0       -2.612452    0.764267   -1.481659
 ---------------------------------------------------------------------
 Rotational constants (GHZ):           0.2124201           0.1338496           0.1240625
 General basis read from cards:  (5D, 7F)
 ======================================================================================================
                                       Pseudopotential Parameters
 ======================================================================================================
  Center     Atomic      Valence      Angular      Power
  Number     Number     Electrons     Momentum     of R      Exponent        Coefficient   SO-Coeffient
 ======================================================================================================
    1         40           12
                                      G and up 
                                                     2        1.0000000        0.00000000    0.00000000
                                      S - G
                                                     2        8.6365280      150.24299400    0.00000000
                                                     2        3.7176390       18.78003600    0.00000000
                                      P - G
                                                     2        7.6267280       33.19279100    0.00000000
                                                     2        7.4532070       66.38903900    0.00000000
                                                     2        3.3583890        4.62072600    0.00000000
                                                     2        3.2297380        9.26027000    0.00000000
                                      D - G
                                                     2        5.9380860       13.99338300    0.00000000
                                                     2        5.8255440       20.99588200    0.00000000
                                                     2        2.2050190        2.28516600    0.00000000
                                                     2        2.2062920        3.44126000    0.00000000
                                      F - G
                                                     2        4.8002150       -5.23932000    0.00000000
                                                     2        4.7989920       -6.98742400    0.00000000
    2          8
                                   No pseudopotential on this center.
    3          8
                                   No pseudopotential on this center.
    4          8
                                   No pseudopotential on this center.
    5          8
                                   No pseudopotential on this center.
    6         14
                                   No pseudopotential on this center.
    7         14
                                   No pseudopotential on this center.
    8         14
                                   No pseudopotential on this center.
    9         14
                                   No pseudopotential on this center.
   10          8
                                   No pseudopotential on this center.
   11          8
                                   No pseudopotential on this center.
   12          8
                                   No pseudopotential on this center.
   13          8
                                   No pseudopotential on this center.
   14          8
                                   No pseudopotential on this center.
   15          8
                                   No pseudopotential on this center.
   16          8
                                   No pseudopotential on this center.
   17          8
                                   No pseudopotential on this center.
   18          8
                                   No pseudopotential on this center.
   19          8
                                   No pseudopotential on this center.
   20          8
                                   No pseudopotential on this center.
   21          8
                                   No pseudopotential on this center.
   22          1
                                   No pseudopotential on this center.
   23          1
                                   No pseudopotential on this center.
   24          1
                                   No pseudopotential on this center.
   25          1
                                   No pseudopotential on this center.
   26          1
                                   No pseudopotential on this center.
   27          1
                                   No pseudopotential on this center.
   28          1
                                   No pseudopotential on this center.
   29          1
                                   No pseudopotential on this center.
   30          1
                                   No pseudopotential on this center.
   31          1
                                   No pseudopotential on this center.
   32          1
                                   No pseudopotential on this center.
   33          1
                                   No pseudopotential on this center.
 ======================================================================================================
 There are   570 symmetry adapted cartesian basis functions of A   symmetry.
 There are   524 symmetry adapted basis functions of A   symmetry.
   524 basis functions,  1074 primitive gaussians,   570 cartesian basis functions
   104 alpha electrons      104 beta electrons
       nuclear repulsion energy      2833.1224698124 Hartrees.
 NAtoms=   33 NActive=   33 NUniq=   33 SFac= 1.00D+00 NAtFMM=   60 NAOKFM=F Big=F
 Integral buffers will be    131072 words long.
 Raffenetti 2 integral format.
 Two-electron integral symmetry is turned on.
 Nuclear repulsion after empirical dispersion term =     2833.0816398113 Hartrees.
 One-electron integrals computed using PRISM.
 PrsmSu:  requested number of processors reduced to:   4 ShMem   1 Linda.
   1 Symmetry operations used in ECPInt.
 ECPInt:  NShTT=   13203 NPrTT=   78401 LenC2=   11533 LenP2D=   44650.
 LDataN:  DoStor=T MaxTD1= 8 Len=  415
 Number of processors reduced to  13 by ecpmxn.
 NBasis=   524 RedAO= T EigKep=  3.08D-05  NBF=   524
 NBsUse=   524 1.00D-06 EigRej= -1.00D+00 NBFU=   524
 Defaulting to unpruned grid for atomic number  40.
 ExpMin= 1.01D-02 ExpMax= 1.61D+04 ExpMxC= 2.43D+03 IAcc=3 IRadAn=         5 AccDes= 0.00D+00
 Harris functional with IExCor=  402 and IRadAn=       5 diagonalized for initial guess.
 HarFok:  IExCor=  402 AccDes= 0.00D+00 IRadAn=         5 IDoV= 1 UseB2=F ITyADJ=14
 ICtDFT=  3500011 ScaDFX=  1.000000  1.000000  1.000000  1.000000
 Defaulting to unpruned grid for atomic number  40.
 FoFCou: FMM=F IPFlag=           0 FMFlag=      100000 FMFlg1=           0
         NFxFlg=           0 DoJE=T BraDBF=F KetDBF=T FulRan=T
         wScrn=  0.000000 ICntrl=       500 IOpCl=  0 I1Cent=   200000004 NGrid=           0
         NMat0=    1 NMatS0=      1 NMatT0=    0 NMatD0=    1 NMtDS0=    0 NMtDT0=    0
 Petite list used in FoFCou.
 Requested convergence on RMS density matrix=1.00D-08 within 128 cycles.
 Requested convergence on MAX density matrix=1.00D-06.
 Requested convergence on             energy=1.00D-06.
 No special actions if energy rises.
 Defaulting to unpruned grid for atomic number  40.
 Defaulting to unpruned grid for atomic number  40.
 Defaulting to unpruned grid for atomic number  40.
 Defaulting to unpruned grid for atomic number  40.
 Defaulting to unpruned grid for atomic number  40.
 Defaulting to unpruned grid for atomic number  40.
 Defaulting to unpruned grid for atomic number  40.
 Defaulting to unpruned grid for atomic number  40.
 Defaulting to unpruned grid for atomic number  40.
 Defaulting to unpruned grid for atomic number  40.
 Defaulting to unpruned grid for atomic number  40.
 Defaulting to unpruned grid for atomic number  40.
 Defaulting to unpruned grid for atomic number  40.
 Defaulting to unpruned grid for atomic number  40.
 Defaulting to unpruned grid for atomic number  40.
 Defaulting to unpruned grid for atomic number  40.
 SCF Done:  E(RB3LYP) =  -2416.94674539     A.U. after   14 cycles
            NFock= 14  Conv=0.26D-08     -V/T= 2.0185

 **********************************************************************

            Population analysis using the SCF Density.

 **********************************************************************

 Orbital symmetries:
       Occupied  (A) (A) (A) (A) (A) (A) (A) (A) (A) (A) (A) (A)
                 (A) (A) (A) (A) (A) (A) (A) (A) (A) (A) (A) (A)
                 (A) (A) (A) (A) (A) (A) (A) (A) (A) (A) (A) (A)
                 (A) (A) (A) (A) (A) (A) (A) (A) (A) (A) (A) (A)
                 (A) (A) (A) (A) (A) (A) (A) (A) (A) (A) (A) (A)
                 (A) (A) (A) (A) (A) (A) (A) (A) (A) (A) (A) (A)
                 (A) (A) (A) (A) (A) (A) (A) (A) (A) (A) (A) (A)
                 (A) (A) (A) (A) (A) (A) (A) (A) (A) (A) (A) (A)
                 (A) (A) (A) (A) (A) (A) (A) (A)
       Virtual   (A) (A) (A) (A) (A) (A) (A) (A) (A) (A) (A) (A)
                 (A) (A) (A) (A) (A) (A) (A) (A) (A) (A) (A) (A)
                 (A) (A) (A) (A) (A) (A) (A) (A) (A) (A) (A) (A)
                 (A) (A) (A) (A) (A) (A) (A) (A) (A) (A) (A) (A)
                 (A) (A) (A) (A) (A) (A) (A) (A) (A) (A) (A) (A)
                 (A) (A) (A) (A) (A) (A) (A) (A) (A) (A) (A) (A)
                 (A) (A) (A) (A) (A) (A) (A) (A) (A) (A) (A) (A)
                 (A) (A) (A) (A) (A) (A) (A) (A) (A) (A) (A) (A)
                 (A) (A) (A) (A) (A) (A) (A) (A) (A) (A) (A) (A)
                 (A) (A) (A) (A) (A) (A) (A) (A) (A) (A) (A) (A)
                 (A) (A) (A) (A) (A) (A) (A) (A) (A) (A) (A) (A)
                 (A) (A) (A) (A) (A) (A) (A) (A) (A) (A) (A) (A)
                 (A) (A) (A) (A) (A) (A) (A) (A) (A) (A) (A) (A)
                 (A) (A) (A) (A) (A) (A) (A) (A) (A) (A) (A) (A)
                 (A) (A) (A) (A) (A) (A) (A) (A) (A) (A) (A) (A)
                 (A) (A) (A) (A) (A) (A) (A) (A) (A) (A) (A) (A)
                 (A) (A) (A) (A) (A) (A) (A) (A) (A) (A) (A) (A)
                 (A) (A) (A) (A) (A) (A) (A) (A) (A) (A) (A) (A)
                 (A) (A) (A) (A) (A) (A) (A) (A) (A) (A) (A) (A)
                 (A) (A) (A) (A) (A) (A) (A) (A) (A) (A) (A) (A)
                 (A) (A) (A) (A) (A) (A) (A) (A) (A) (A) (A) (A)
                 (A) (A) (A) (A) (A) (A) (A) (A) (A) (A) (A) (A)
                 (A) (A) (A) (A) (A) (A) (A) (A) (A) (A) (A) (A)
                 (A) (A) (A) (A) (A) (A) (A) (A) (A) (A) (A) (A)
                 (A) (A) (A) (A) (A) (A) (A) (A) (A) (A) (A) (A)
                 (A) (A) (A) (A) (A) (A) (A) (A) (A) (A) (A) (A)
                 (A) (A) (A) (A) (A) (A) (A) (A) (A) (A) (A) (A)
                 (A) (A) (A) (A) (A) (A) (A) (A) (A) (A) (A) (A)
                 (A) (A) (A) (A) (A) (A) (A) (A) (A) (A) (A) (A)
                 (A) (A) (A) (A) (A) (A) (A) (A) (A) (A) (A) (A)
                 (A) (A) (A) (A) (A) (A) (A) (A) (A) (A) (A) (A)
                 (A) (A) (A) (A) (A) (A) (A) (A) (A) (A) (A) (A)
                 (A) (A) (A) (A) (A) (A) (A) (A) (A) (A) (A) (A)
                 (A) (A) (A) (A) (A) (A) (A) (A) (A) (A) (A) (A)
                 (A) (A) (A) (A) (A) (A) (A) (A) (A) (A) (A) (A)
 The electronic state is 1-A.
 Alpha  occ. eigenvalues --  -66.22791 -66.21768 -66.21483 -66.21076 -19.18577
 Alpha  occ. eigenvalues --  -19.18357 -19.17762 -19.17023 -19.16742 -19.16522
 Alpha  occ. eigenvalues --  -19.16412 -19.16234 -19.16214 -19.16056 -19.16000
 Alpha  occ. eigenvalues --  -19.15512 -19.15342 -19.15299 -19.14925 -19.14726
 Alpha  occ. eigenvalues --   -5.36851  -5.35849  -5.35560  -5.35136  -3.72835
 Alpha  occ. eigenvalues --   -3.72808  -3.72762  -3.71841  -3.71793  -3.71759
 Alpha  occ. eigenvalues --   -3.71529  -3.71521  -3.71481  -3.71101  -3.71092
 Alpha  occ. eigenvalues --   -3.71066  -2.13377  -1.29619  -1.29535  -1.29383
 Alpha  occ. eigenvalues --   -1.05669  -1.04782  -1.04141  -1.03533  -1.02547
 Alpha  occ. eigenvalues --   -1.02171  -1.01478  -1.00921  -1.00741  -1.00701
 Alpha  occ. eigenvalues --   -0.99860  -0.99327  -0.97374  -0.96281  -0.95741
 Alpha  occ. eigenvalues --   -0.95432  -0.60979  -0.59170  -0.58968  -0.58529
 Alpha  occ. eigenvalues --   -0.55523  -0.54538  -0.53859  -0.53063  -0.52974
 Alpha  occ. eigenvalues --   -0.52515  -0.52186  -0.51709  -0.48768  -0.47599
 Alpha  occ. eigenvalues --   -0.47214  -0.46759  -0.43377  -0.42670  -0.41859
 Alpha  occ. eigenvalues --   -0.41411  -0.41101  -0.40524  -0.39818  -0.39378
 Alpha  occ. eigenvalues --   -0.38799  -0.38705  -0.38615  -0.38157  -0.38042
 Alpha  occ. eigenvalues --   -0.37645  -0.37471  -0.37239  -0.36578  -0.36397
 Alpha  occ. eigenvalues --   -0.36025  -0.35591  -0.35532  -0.35115  -0.34861
 Alpha  occ. eigenvalues --   -0.34613  -0.34045  -0.33690  -0.33533  -0.33214
 Alpha  occ. eigenvalues --   -0.32868  -0.32179  -0.32068  -0.31322
 Alpha virt. eigenvalues --   -0.04324  -0.03188  -0.03059  -0.02749  -0.02087
 Alpha virt. eigenvalues --   -0.01179  -0.00567  -0.00102   0.00032   0.00315
 Alpha virt. eigenvalues --    0.00798   0.00884   0.01053   0.01933   0.02334
 Alpha virt. eigenvalues --    0.03277   0.03357   0.03831   0.03987   0.04021
 Alpha virt. eigenvalues --    0.04262   0.04590   0.05463   0.05913   0.06226
 Alpha virt. eigenvalues --    0.06467   0.07028   0.07540   0.07691   0.08652
 Alpha virt. eigenvalues --    0.08782   0.09099   0.09222   0.09647   0.09891
 Alpha virt. eigenvalues --    0.10248   0.10714   0.10907   0.11392   0.11678
 Alpha virt. eigenvalues --    0.11828   0.12623   0.13042   0.13293   0.13455
 Alpha virt. eigenvalues --    0.13995   0.14588   0.14775   0.15005   0.15214
 Alpha virt. eigenvalues --    0.15312   0.15685   0.16258   0.16710   0.16894
 Alpha virt. eigenvalues --    0.17361   0.17579   0.17742   0.18109   0.18363
 Alpha virt. eigenvalues --    0.18732   0.19113   0.19261   0.19648   0.19855
 Alpha virt. eigenvalues --    0.19998   0.20295   0.20484   0.20799   0.21283
 Alpha virt. eigenvalues --    0.21731   0.22117   0.22228   0.22452   0.22672
 Alpha virt. eigenvalues --    0.23104   0.23705   0.23933   0.24187   0.24465
 Alpha virt. eigenvalues --    0.24732   0.25040   0.25648   0.26003   0.26195
 Alpha virt. eigenvalues --    0.26537   0.26777   0.27096   0.27195   0.27550
 Alpha virt. eigenvalues --    0.27839   0.28291   0.28628   0.28792   0.29084
 Alpha virt. eigenvalues --    0.29489   0.29680   0.29963   0.30227   0.30664
 Alpha virt. eigenvalues --    0.30965   0.31296   0.31543   0.31851   0.31870
 Alpha virt. eigenvalues --    0.32460   0.32706   0.33091   0.33331   0.33980
 Alpha virt. eigenvalues --    0.34604   0.34910   0.35358   0.35459   0.36437
 Alpha virt. eigenvalues --    0.36531   0.37475   0.38111   0.38450   0.38903
 Alpha virt. eigenvalues --    0.39659   0.39716   0.40365   0.40956   0.41400
 Alpha virt. eigenvalues --    0.42830   0.43342   0.43646   0.44153   0.44498
 Alpha virt. eigenvalues --    0.45483   0.45542   0.46263   0.46533   0.47264
 Alpha virt. eigenvalues --    0.48003   0.48546   0.49070   0.49316   0.49507
 Alpha virt. eigenvalues --    0.50098   0.50793   0.51202   0.51399   0.53007
 Alpha virt. eigenvalues --    0.54038   0.54320   0.55156   0.56378   0.57188
 Alpha virt. eigenvalues --    0.57878   0.58357   0.58739   0.59130   0.60410
 Alpha virt. eigenvalues --    0.61090   0.61784   0.62226   0.64610   0.65890
 Alpha virt. eigenvalues --    0.67233   0.67988   0.68378   0.68632   0.69439
 Alpha virt. eigenvalues --    0.69905   0.71139   0.73178   0.74710   0.74984
 Alpha virt. eigenvalues --    0.75438   0.77218   0.78698   0.78819   0.80183
 Alpha virt. eigenvalues --    0.80776   0.81467   0.82674   0.84140   0.85109
 Alpha virt. eigenvalues --    0.86353   0.87861   0.89326   0.90522   0.91340
 Alpha virt. eigenvalues --    0.94622   0.95655   0.96166   0.96860   0.97530
 Alpha virt. eigenvalues --    0.97953   0.98527   0.99181   0.99675   1.00540
 Alpha virt. eigenvalues --    1.00979   1.01467   1.02517   1.03390   1.04062
 Alpha virt. eigenvalues --    1.04546   1.05278   1.06635   1.06714   1.08128
 Alpha virt. eigenvalues --    1.09823   1.12416   1.15242   1.16213   1.16574
 Alpha virt. eigenvalues --    1.18710   1.18989   1.19711   1.20615   1.20800
 Alpha virt. eigenvalues --    1.21475   1.21620   1.22337   1.22852   1.23044
 Alpha virt. eigenvalues --    1.23426   1.23822   1.24497   1.25032   1.25696
 Alpha virt. eigenvalues --    1.26208   1.27099   1.27186   1.28062   1.28439
 Alpha virt. eigenvalues --    1.28988   1.29751   1.30109   1.30640   1.31593
 Alpha virt. eigenvalues --    1.32381   1.32759   1.32912   1.34124   1.34596
 Alpha virt. eigenvalues --    1.35325   1.35870   1.36896   1.37113   1.37850
 Alpha virt. eigenvalues --    1.39032   1.39742   1.40184   1.41060   1.41482
 Alpha virt. eigenvalues --    1.42789   1.43794   1.44490   1.45014   1.46238
 Alpha virt. eigenvalues --    1.47028   1.48730   1.50155   1.51044   1.52727
 Alpha virt. eigenvalues --    1.56698   1.57138   1.57688   1.59278   1.59843
 Alpha virt. eigenvalues --    1.60125   1.61219   1.61724   1.62293   1.63111
 Alpha virt. eigenvalues --    1.63279   1.63933   1.65110   1.65410   1.66515
 Alpha virt. eigenvalues --    1.66617   1.67889   1.69415   1.70004   1.70317
 Alpha virt. eigenvalues --    1.71271   1.71441   1.71656   1.72250   1.73549
 Alpha virt. eigenvalues --    1.74374   1.74968   1.75286   1.76150   1.76955
 Alpha virt. eigenvalues --    1.77228   1.77809   1.78298   1.78665   1.79342
 Alpha virt. eigenvalues --    1.80787   1.81577   1.82227   1.82318   1.82879
 Alpha virt. eigenvalues --    1.83426   1.84915   1.85127   1.85872   1.86635
 Alpha virt. eigenvalues --    1.87109   1.88098   1.88226   1.89927   1.90537
 Alpha virt. eigenvalues --    1.91166   1.91286   1.92367   1.92831   1.93968
 Alpha virt. eigenvalues --    1.94533   1.95267   1.95825   1.97383   1.98363
 Alpha virt. eigenvalues --    1.99161   2.00457   2.01059   2.03453   2.03645
 Alpha virt. eigenvalues --    2.06011   2.06667   2.07878   2.09547   2.10429
 Alpha virt. eigenvalues --    2.11035   2.12906   2.13812   2.15975   2.16427
 Alpha virt. eigenvalues --    2.17779   2.18863   2.18998   2.20681   2.26136
 Alpha virt. eigenvalues --    2.32495   2.33494   2.35544   2.39477   2.40322
 Alpha virt. eigenvalues --    2.41217   2.41512   2.41863   2.42739   2.43630
 Alpha virt. eigenvalues --    2.44047   2.45814   2.46738   2.47734   2.48831
 Alpha virt. eigenvalues --    2.50221   2.50297   2.51688   2.52869   2.53345
 Alpha virt. eigenvalues --    2.55289   2.57902   2.59326   2.60084   2.60604
 Alpha virt. eigenvalues --    2.61090   2.61894   2.62045   2.62433   2.62796
 Alpha virt. eigenvalues --    2.63139   2.64028   2.64512   2.64983   2.65976
 Alpha virt. eigenvalues --    2.66353   2.66524   2.67308   2.67561   2.69373
 Alpha virt. eigenvalues --    2.69768   2.70269   2.71191   2.71695   2.72307
 Alpha virt. eigenvalues --    2.72746   2.74330   2.75533   2.76716   2.77442
 Alpha virt. eigenvalues --    2.78942   2.80434   2.81517   2.82463   2.83285
 Alpha virt. eigenvalues --    2.83821   2.84663   2.86663   2.87772   2.88117
 Alpha virt. eigenvalues --    3.14065   3.19368   3.36103   3.40911   3.47027
 Alpha virt. eigenvalues --    3.47973   3.48504   3.48773   3.51094   3.51179
 Alpha virt. eigenvalues --    3.53019   3.54605   3.60286   3.61085   3.62044
 Alpha virt. eigenvalues --    3.66182   4.27285   4.55659   7.84764  31.29218
          Condensed to atoms (all electrons):
               1          2          3          4          5          6
     1  Zr  15.116351  -0.166267  -0.002363  -0.168095  -0.189670  -0.499724
     2  O   -0.166267   9.091516   0.018340  -0.040750  -0.054142   0.093827
     3  O   -0.002363   0.018340   8.831065   0.013298  -0.039097  -0.008332
     4  O   -0.168095  -0.040750   0.013298   8.819799  -0.059060  -0.668279
     5  O   -0.189670  -0.054142  -0.039097  -0.059060   9.419966  -0.003031
     6  Si  -0.499724   0.093827  -0.008332  -0.668279  -0.003031  13.888386
     7  Si  -0.612192  -0.027766  -0.874301  -0.004503  -0.032496   0.081633
     8  Si  -0.529327  -1.014243  -0.021863   0.082037  -0.013185  -0.045768
     9  Si  -0.356555  -0.042888  -0.030299  -0.035914  -1.283031   0.034590
    10  O   -0.015911   0.001007  -0.001446   0.001565   0.142002  -0.001642
    11  O   -0.040604   0.003827   0.002561   0.000954   0.299718  -0.001428
    12  O    0.024941   0.000357   0.004430   0.002154   0.181428  -0.001874
    13  O   -0.057229   0.192098   0.001692  -0.014982  -0.000578   0.039997
    14  O   -0.032333   0.272893  -0.017536  -0.009031   0.002201   0.031964
    15  O   -0.072220   0.291560  -0.000801   0.001181   0.000469  -0.002182
    16  O   -0.132352   0.004580  -0.000452   0.343899   0.003091  -0.411625
    17  O   -0.091888  -0.039266   0.007862   0.223408   0.001428  -0.454950
    18  O   -0.038637  -0.013397   0.003745   0.201041  -0.000484  -0.450380
    19  O   -0.011629   0.009300   0.261105   0.011018   0.002182  -0.003343
    20  O   -0.149300  -0.000532   0.164862  -0.000889   0.001458   0.009343
    21  O    0.029980   0.010799   0.147065   0.003493   0.000303  -0.010833
    22  H   -0.008745  -0.000023  -0.000062  -0.000013   0.005657   0.000076
    23  H   -0.006473  -0.000015  -0.000012  -0.000052  -0.025768   0.000037
    24  H   -0.002581  -0.000323  -0.000006  -0.000008  -0.007108  -0.000014
    25  H    0.018871  -0.020323  -0.000111  -0.000232   0.000019   0.001848
    26  H    0.007488   0.000408   0.000015  -0.000013  -0.000003  -0.000127
    27  H    0.008145  -0.020046   0.000890  -0.001732   0.000002   0.007969
    28  H    0.005249  -0.000011  -0.018700  -0.000014  -0.000017  -0.000292
    29  H    0.006036  -0.007195  -0.020459  -0.000152  -0.000074  -0.000059
    30  H    0.001447  -0.000014   0.000172  -0.000460  -0.000008  -0.001027
    31  H    0.000696   0.000148  -0.000019  -0.018409  -0.000008   0.063312
    32  H    0.001561  -0.000021   0.000037   0.010357   0.000002   0.023442
    33  H   -0.016240   0.000964  -0.010009  -0.009516  -0.000111   0.053612
               7          8          9         10         11         12
     1  Zr  -0.612192  -0.529327  -0.356555  -0.015911  -0.040604   0.024941
     2  O   -0.027766  -1.014243  -0.042888   0.001007   0.003827   0.000357
     3  O   -0.874301  -0.021863  -0.030299  -0.001446   0.002561   0.004430
     4  O   -0.004503   0.082037  -0.035914   0.001565   0.000954   0.002154
     5  O   -0.032496  -0.013185  -1.283031   0.142002   0.299718   0.181428
     6  Si   0.081633  -0.045768   0.034590  -0.001642  -0.001428  -0.001874
     7  Si  13.787118   0.179382   0.023212   0.000091  -0.000566   0.003957
     8  Si   0.179382  13.783456   0.025378  -0.000469   0.000931   0.000057
     9  Si   0.023212   0.025378  14.419555  -0.091390  -0.180712  -0.240398
    10  O    0.000091  -0.000469  -0.091390   8.534443   0.016855   0.029775
    11  O   -0.000566   0.000931  -0.180712   0.016855   8.501479  -0.043129
    12  O    0.003957   0.000057  -0.240398   0.029775  -0.043129   8.596133
    13  O    0.007784  -0.091521   0.000579  -0.000001   0.000016   0.000011
    14  O    0.010767  -0.376319  -0.001366  -0.000001  -0.000005   0.000020
    15  O   -0.003414  -0.309876  -0.000838   0.000000  -0.000029  -0.000024
    16  O    0.003966  -0.009677  -0.000979  -0.000001   0.000001  -0.000002
    17  O   -0.000170   0.099616   0.002835  -0.000002  -0.000003  -0.000003
    18  O   -0.000213   0.075513   0.004497  -0.000005  -0.000006  -0.000001
    19  O   -0.400854  -0.013418   0.001213   0.000004  -0.000002   0.000010
    20  O   -0.106903   0.009927   0.003289  -0.000003  -0.000003   0.000057
    21  O    0.022339  -0.037732  -0.002087   0.000003   0.000000   0.000043
    22  H   -0.000291   0.000077   0.045766  -0.006277  -0.005538   0.220904
    23  H    0.000043   0.000063   0.080890   0.228623  -0.006586   0.006133
    24  H    0.000100  -0.000240   0.036857   0.007620   0.242413  -0.007824
    25  H   -0.000510   0.057268  -0.000223  -0.000000   0.000000  -0.000000
    26  H   -0.000359   0.045751  -0.000045   0.000000   0.000000  -0.000000
    27  H    0.000891   0.067657  -0.000032  -0.000000  -0.000000  -0.000000
    28  H    0.057051  -0.000098  -0.000121  -0.000000  -0.000000  -0.000004
    29  H    0.047918   0.020919  -0.000051  -0.000000   0.000000  -0.000001
    30  H    0.040043   0.000001   0.000024   0.000000  -0.000000  -0.000000
    31  H    0.000146  -0.002104  -0.000063   0.000000   0.000000  -0.000000
    32  H   -0.000652   0.000081   0.000001  -0.000000   0.000000   0.000000
    33  H    0.020544   0.000213   0.000089  -0.000000   0.000000   0.000000
              13         14         15         16         17         18
     1  Zr  -0.057229  -0.032333  -0.072220  -0.132352  -0.091888  -0.038637
     2  O    0.192098   0.272893   0.291560   0.004580  -0.039266  -0.013397
     3  O    0.001692  -0.017536  -0.000801  -0.000452   0.007862   0.003745
     4  O   -0.014982  -0.009031   0.001181   0.343899   0.223408   0.201041
     5  O   -0.000578   0.002201   0.000469   0.003091   0.001428  -0.000484
     6  Si   0.039997   0.031964  -0.002182  -0.411625  -0.454950  -0.450380
     7  Si   0.007784   0.010767  -0.003414   0.003966  -0.000170  -0.000213
     8  Si  -0.091521  -0.376319  -0.309876  -0.009677   0.099616   0.075513
     9  Si   0.000579  -0.001366  -0.000838  -0.000979   0.002835   0.004497
    10  O   -0.000001  -0.000001   0.000000  -0.000001  -0.000002  -0.000005
    11  O    0.000016  -0.000005  -0.000029   0.000001  -0.000003  -0.000006
    12  O    0.000011   0.000020  -0.000024  -0.000002  -0.000003  -0.000001
    13  O    8.631869   0.088268  -0.092612   0.003684  -0.030592  -0.044554
    14  O    0.088268   8.682173   0.055529   0.003642  -0.035478  -0.026620
    15  O   -0.092612   0.055529   8.778119  -0.000174   0.003588   0.001628
    16  O    0.003684   0.003642  -0.000174   8.897784  -0.090877  -0.115215
    17  O   -0.030592  -0.035478   0.003588  -0.090877   8.936249   0.229014
    18  O   -0.044554  -0.026620   0.001628  -0.115215   0.229014   9.018056
    19  O    0.000206  -0.000159   0.000133  -0.001558  -0.029559   0.000232
    20  O    0.000009  -0.000175   0.000037   0.000063  -0.000997   0.000015
    21  O   -0.000205   0.016004  -0.000657  -0.000220  -0.005545   0.000475
    22  H   -0.000000   0.000000  -0.000000   0.000000   0.000000  -0.000000
    23  H    0.000000   0.000000  -0.000000   0.000000   0.000000  -0.000000
    24  H   -0.000000   0.000000   0.000002  -0.000000   0.000000  -0.000000
    25  H    0.218008  -0.012074   0.008933  -0.000042   0.000584   0.014729
    26  H   -0.005123  -0.009959   0.217489   0.000000  -0.000004   0.000006
    27  H   -0.009985   0.218776   0.004629   0.000185   0.017803  -0.000300
    28  H   -0.000000  -0.000005  -0.000001  -0.000000   0.000004  -0.000000
    29  H    0.000780   0.017772  -0.002562  -0.000004  -0.000409   0.000005
    30  H    0.000001  -0.000007   0.000000   0.000121  -0.000391  -0.000008
    31  H    0.002321   0.000159  -0.000018   0.003895  -0.000854   0.217781
    32  H   -0.000007  -0.000006   0.000000   0.233402  -0.003656   0.003924
    33  H    0.000231   0.001994  -0.000035  -0.000116   0.230962   0.002096
              19         20         21         22         23         24
     1  Zr  -0.011629  -0.149300   0.029980  -0.008745  -0.006473  -0.002581
     2  O    0.009300  -0.000532   0.010799  -0.000023  -0.000015  -0.000323
     3  O    0.261105   0.164862   0.147065  -0.000062  -0.000012  -0.000006
     4  O    0.011018  -0.000889   0.003493  -0.000013  -0.000052  -0.000008
     5  O    0.002182   0.001458   0.000303   0.005657  -0.025768  -0.007108
     6  Si  -0.003343   0.009343  -0.010833   0.000076   0.000037  -0.000014
     7  Si  -0.400854  -0.106903   0.022339  -0.000291   0.000043   0.000100
     8  Si  -0.013418   0.009927  -0.037732   0.000077   0.000063  -0.000240
     9  Si   0.001213   0.003289  -0.002087   0.045766   0.080890   0.036857
    10  O    0.000004  -0.000003   0.000003  -0.006277   0.228623   0.007620
    11  O   -0.000002  -0.000003   0.000000  -0.005538  -0.006586   0.242413
    12  O    0.000010   0.000057   0.000043   0.220904   0.006133  -0.007824
    13  O    0.000206   0.000009  -0.000205  -0.000000   0.000000  -0.000000
    14  O   -0.000159  -0.000175   0.016004   0.000000   0.000000   0.000000
    15  O    0.000133   0.000037  -0.000657  -0.000000  -0.000000   0.000002
    16  O   -0.001558   0.000063  -0.000220   0.000000   0.000000  -0.000000
    17  O   -0.029559  -0.000997  -0.005545   0.000000   0.000000   0.000000
    18  O    0.000232   0.000015   0.000475  -0.000000  -0.000000  -0.000000
    19  O    8.871280   0.031745   0.024023   0.000000   0.000000  -0.000000
    20  O    0.031745   8.656650  -0.050343   0.000001   0.000000  -0.000000
    21  O    0.024023  -0.050343   8.489243  -0.000000   0.000000   0.000000
    22  H    0.000000   0.000001  -0.000000   0.360556   0.000044   0.000120
    23  H    0.000000   0.000000   0.000000   0.000044   0.350234   0.000007
    24  H   -0.000000  -0.000000   0.000000   0.000120   0.000007   0.365032
    25  H   -0.000025   0.000000  -0.000020   0.000000   0.000000   0.000000
    26  H    0.000001  -0.000000   0.000038  -0.000000  -0.000000  -0.000000
    27  H    0.000003   0.000189  -0.004035  -0.000000  -0.000000  -0.000000
    28  H    0.004574   0.229536  -0.002126  -0.000000   0.000000   0.000000
    29  H   -0.008578   0.007684   0.206332  -0.000000   0.000000   0.000000
    30  H    0.224328  -0.001504  -0.007136   0.000000  -0.000000   0.000000
    31  H    0.000004  -0.000000  -0.000000  -0.000000  -0.000000   0.000000
    32  H    0.000100   0.000000   0.000001  -0.000000  -0.000000  -0.000000
    33  H    0.014684  -0.000084   0.001470  -0.000000  -0.000000  -0.000000
              25         26         27         28         29         30
     1  Zr   0.018871   0.007488   0.008145   0.005249   0.006036   0.001447
     2  O   -0.020323   0.000408  -0.020046  -0.000011  -0.007195  -0.000014
     3  O   -0.000111   0.000015   0.000890  -0.018700  -0.020459   0.000172
     4  O   -0.000232  -0.000013  -0.001732  -0.000014  -0.000152  -0.000460
     5  O    0.000019  -0.000003   0.000002  -0.000017  -0.000074  -0.000008
     6  Si   0.001848  -0.000127   0.007969  -0.000292  -0.000059  -0.001027
     7  Si  -0.000510  -0.000359   0.000891   0.057051   0.047918   0.040043
     8  Si   0.057268   0.045751   0.067657  -0.000098   0.020919   0.000001
     9  Si  -0.000223  -0.000045  -0.000032  -0.000121  -0.000051   0.000024
    10  O   -0.000000   0.000000  -0.000000  -0.000000  -0.000000   0.000000
    11  O    0.000000   0.000000  -0.000000  -0.000000   0.000000  -0.000000
    12  O   -0.000000  -0.000000  -0.000000  -0.000004  -0.000001  -0.000000
    13  O    0.218008  -0.005123  -0.009985  -0.000000   0.000780   0.000001
    14  O   -0.012074  -0.009959   0.218776  -0.000005   0.017772  -0.000007
    15  O    0.008933   0.217489   0.004629  -0.000001  -0.002562   0.000000
    16  O   -0.000042   0.000000   0.000185  -0.000000  -0.000004   0.000121
    17  O    0.000584  -0.000004   0.017803   0.000004  -0.000409  -0.000391
    18  O    0.014729   0.000006  -0.000300  -0.000000   0.000005  -0.000008
    19  O   -0.000025   0.000001   0.000003   0.004574  -0.008578   0.224328
    20  O    0.000000  -0.000000   0.000189   0.229536   0.007684  -0.001504
    21  O   -0.000020   0.000038  -0.004035  -0.002126   0.206332  -0.007136
    22  H    0.000000  -0.000000  -0.000000  -0.000000  -0.000000   0.000000
    23  H    0.000000  -0.000000  -0.000000   0.000000   0.000000  -0.000000
    24  H    0.000000  -0.000000  -0.000000   0.000000   0.000000   0.000000
    25  H    0.298707  -0.000013   0.000120   0.000000   0.000001   0.000000
    26  H   -0.000013   0.365576   0.000038   0.000000   0.000022  -0.000000
    27  H    0.000120   0.000038   0.283219  -0.000000  -0.001503   0.000010
    28  H    0.000000   0.000000  -0.000000   0.349286  -0.000016  -0.000015
    29  H    0.000001   0.000022  -0.001503  -0.000016   0.285996   0.000154
    30  H    0.000000  -0.000000   0.000010  -0.000015   0.000154   0.334191
    31  H   -0.000486   0.000000   0.000013   0.000000   0.000000  -0.000000
    32  H   -0.000001   0.000000  -0.000000   0.000000  -0.000000  -0.000000
    33  H    0.000006  -0.000000  -0.002401  -0.000002   0.000100  -0.001153
              31         32         33
     1  Zr   0.000696   0.001561  -0.016240
     2  O    0.000148  -0.000021   0.000964
     3  O   -0.000019   0.000037  -0.010009
     4  O   -0.018409   0.010357  -0.009516
     5  O   -0.000008   0.000002  -0.000111
     6  Si   0.063312   0.023442   0.053612
     7  Si   0.000146  -0.000652   0.020544
     8  Si  -0.002104   0.000081   0.000213
     9  Si  -0.000063   0.000001   0.000089
    10  O    0.000000  -0.000000  -0.000000
    11  O    0.000000   0.000000   0.000000
    12  O   -0.000000   0.000000   0.000000
    13  O    0.002321  -0.000007   0.000231
    14  O    0.000159  -0.000006   0.001994
    15  O   -0.000018   0.000000  -0.000035
    16  O    0.003895   0.233402  -0.000116
    17  O   -0.000854  -0.003656   0.230962
    18  O    0.217781   0.003924   0.002096
    19  O    0.000004   0.000100   0.014684
    20  O   -0.000000   0.000000  -0.000084
    21  O   -0.000000   0.000001   0.001470
    22  H   -0.000000  -0.000000  -0.000000
    23  H   -0.000000  -0.000000  -0.000000
    24  H    0.000000  -0.000000  -0.000000
    25  H   -0.000486  -0.000001   0.000006
    26  H    0.000000   0.000000  -0.000000
    27  H    0.000013  -0.000000  -0.002401
    28  H    0.000000   0.000000  -0.000002
    29  H    0.000000  -0.000000   0.000100
    30  H   -0.000000  -0.000000  -0.001153
    31  H    0.331360  -0.000002  -0.000038
    32  H   -0.000002   0.349673   0.000157
    33  H   -0.000038   0.000157   0.269288
 Mulliken charges:
               1
     1  Zr  -0.020429
     2  O   -0.544405
     3  O   -0.411272
     4  O   -0.682101
     5  O   -0.352055
     6  Si   2.234874
     7  Si   1.778208
     8  Si   2.017515
     9  Si   1.588218
    10  O   -0.844841
    11  O   -0.790143
    12  O   -0.777151
    13  O   -0.840163
    14  O   -0.881089
    15  O   -0.877852
    16  O   -0.735019
    17  O   -0.968711
    18  O   -1.082936
    19  O   -0.987019
    20  O   -0.804134
    21  O   -0.830672
    22  H    0.387749
    23  H    0.372832
    24  H    0.365955
    25  H    0.414966
    26  H    0.378814
    27  H    0.429497
    28  H    0.375723
    29  H    0.447342
    30  H    0.411231
    31  H    0.402166
    32  H    0.381608
    33  H    0.443295
 Sum of Mulliken charges =  -0.00000
 Mulliken charges with hydrogens summed into heavy atoms:
               1
     1  Zr  -0.020429
     2  O   -0.544405
     3  O   -0.411272
     4  O   -0.682101
     5  O   -0.352055
     6  Si   2.234874
     7  Si   1.778208
     8  Si   2.017515
     9  Si   1.588218
    10  O   -0.472009
    11  O   -0.424187
    12  O   -0.389402
    13  O   -0.425197
    14  O   -0.451593
    15  O   -0.499038
    16  O   -0.353411
    17  O   -0.525415
    18  O   -0.680770
    19  O   -0.575788
    20  O   -0.428411
    21  O   -0.383331
 Electronic spatial extent (au):  <R**2>=           9868.7055
 Charge=             -0.0000 electrons
 Dipole moment (field-independent basis, Debye):
    X=              1.0242    Y=             -0.5425    Z=             -2.0496  Tot=              2.3546
 Quadrupole moment (field-independent basis, Debye-Ang):
   XX=           -160.4364   YY=           -154.6400   ZZ=           -158.0573
   XY=             -4.1988   XZ=              2.9940   YZ=              5.9949
 Traceless Quadrupole moment (field-independent basis, Debye-Ang):
   XX=             -2.7252   YY=              3.0712   ZZ=             -0.3461
   XY=             -4.1988   XZ=              2.9940   YZ=              5.9949
 Octapole moment (field-independent basis, Debye-Ang**2):
  XXX=             74.0726  YYY=              5.8838  ZZZ=             -8.0550  XYY=              2.0371
  XXY=             21.3328  XXZ=             17.4779  XZZ=             -0.6141  YZZ=            -14.1062
  YYZ=            -23.1079  XYZ=             28.2971
 Hexadecapole moment (field-independent basis, Debye-Ang**3):
 XXXX=          -6022.3543 YYYY=          -2844.4050 ZZZZ=          -2256.7753 XXXY=             50.2098
 XXXZ=            -58.3743 YYYX=             -7.0164 YYYZ=            236.4086 ZZZX=           -133.1571
 ZZZY=            -67.3947 XXYY=          -1437.9332 XXZZ=          -1415.6802 YYZZ=           -923.2778
 XXYZ=            -11.3329 YYXZ=             90.7662 ZZXY=            -41.0795
 N-N= 2.833081639811D+03 E-N=-1.137874798293D+04  KE= 2.373154927197D+03
 PrsmSu:  requested number of processors reduced to:   2 ShMem   1 Linda.
 PrsmSu:  requested number of processors reduced to:  10 ShMem   1 Linda.
   1 Symmetry operations used in ECPInt.
 ECPInt:  NShTT=   13203 NPrTT=   78401 LenC2=   11533 LenP2D=   44650.
 LDataN:  DoStor=T MaxTD1= 9 Len=  602
 Number of processors reduced to  14 by ecpmxn.
 Calling FoFJK, ICntrl=      2127 FMM=F ISym2X=0 I1Cent= 0 IOpClX= 0 NMat=1 NMatS=1 NMatT=0.
 CoulSu:  requested number of processors reduced to:  10 ShMem   1 Linda.
 Defaulting to unpruned grid for atomic number  40.
 Defaulting to unpruned grid for atomic number  40.
 Defaulting to unpruned grid for atomic number  40.
 Defaulting to unpruned grid for atomic number  40.
 Defaulting to unpruned grid for atomic number  40.
 Defaulting to unpruned grid for atomic number  40.
 Defaulting to unpruned grid for atomic number  40.
 Defaulting to unpruned grid for atomic number  40.
 Defaulting to unpruned grid for atomic number  40.
 Defaulting to unpruned grid for atomic number  40.
 Defaulting to unpruned grid for atomic number  40.
 Defaulting to unpruned grid for atomic number  40.
 Defaulting to unpruned grid for atomic number  40.
 Defaulting to unpruned grid for atomic number  40.
 Defaulting to unpruned grid for atomic number  40.
 Defaulting to unpruned grid for atomic number  40.
 ***** Axes restored to original set *****
 -------------------------------------------------------------------
 Center     Atomic                   Forces (Hartrees/Bohr)
 Number     Number              X              Y              Z
 -------------------------------------------------------------------
      1       40          -0.000140696    0.000134354   -0.001247294
      2        8           0.000115945    0.000002615    0.000384223
      3        8          -0.000058674   -0.000112727    0.000179758
      4        8           0.000011348    0.000041932    0.000246600
      5        8          -0.000150962    0.000024007    0.000867403
      6       14           0.000038073   -0.000024955   -0.000156779
      7       14           0.000068863    0.000082021   -0.000198696
      8       14          -0.000183659   -0.000098972   -0.000267725
      9       14           0.000155155   -0.000079492   -0.000731696
     10        8           0.000010230    0.000058013    0.000209630
     11        8           0.000016435    0.000126539    0.000124277
     12        8           0.000051349    0.000035820    0.000150314
     13        8           0.000029436    0.000085458    0.000102001
     14        8           0.000068432   -0.000031185    0.000071297
     15        8           0.000078445    0.000031957    0.000101051
     16        8          -0.000029832    0.000001294    0.000080901
     17        8          -0.000020314    0.000024705    0.000074969
     18        8          -0.000030522    0.000012458    0.000054938
     19        8           0.000005078   -0.000000591    0.000060573
     20        8          -0.000041414   -0.000024130    0.000052702
     21        8          -0.000000819   -0.000054492    0.000107840
     22        1           0.000001583   -0.000028228   -0.000003055
     23        1          -0.000068984   -0.000019839   -0.000029768
     24        1           0.000027265   -0.000189438   -0.000028376
     25        1           0.000004985   -0.000011569   -0.000044800
     26        1          -0.000007965   -0.000007383   -0.000003758
     27        1          -0.000001032    0.000015601   -0.000046981
     28        1           0.000008932    0.000012010   -0.000025930
     29        1          -0.000021832    0.000022279   -0.000028352
     30        1           0.000008944   -0.000001845   -0.000008343
     31        1           0.000020491   -0.000005574   -0.000009953
     32        1           0.000037631   -0.000003244   -0.000021686
     33        1          -0.000001917   -0.000017400   -0.000015285
 -------------------------------------------------------------------
 Cartesian Forces:  Max     0.001247294 RMS     0.000191984

 GradGradGradGradGradGradGradGradGradGradGradGradGradGradGradGradGradGrad
 Berny optimization.
 FormGI is forming the generalized inverse of G from B-inverse, IUseBI=4.
 Internal  Forces:  Max     0.000738272 RMS     0.000111867
 Search for a local minimum.
 Step number   1 out of a maximum of  148
 All quantities printed in internal units (Hartrees-Bohrs-Radians)
 Mixed Optimization -- En-DIIS/RFO-DIIS
 Second derivative matrix not updated -- first step.
 ITU=  0
     Eigenvalues ---    0.00230   0.00230   0.00230   0.00230   0.03240
     Eigenvalues ---    0.03358   0.03498   0.03580   0.03665   0.03666
     Eigenvalues ---    0.03680   0.03686   0.03693   0.03739   0.03789
     Eigenvalues ---    0.03792   0.03816   0.03834   0.03850   0.03857
     Eigenvalues ---    0.08405   0.09407   0.11077   0.11224   0.11819
     Eigenvalues ---    0.11833   0.11884   0.12136   0.12177   0.12239
     Eigenvalues ---    0.12563   0.12783   0.12895   0.13099   0.13313
     Eigenvalues ---    0.16000   0.16000   0.16000   0.16000   0.16000
     Eigenvalues ---    0.16000   0.16000   0.16000   0.16000   0.16000
     Eigenvalues ---    0.16000   0.16000   0.19173   0.19893   0.20028
     Eigenvalues ---    0.20179   0.20203   0.20204   0.20208   0.20515
     Eigenvalues ---    0.20653   0.20795   0.20989   0.21175   0.21186
     Eigenvalues ---    0.21263   0.25000   0.25000   0.25000   0.38002
     Eigenvalues ---    0.39185   0.40659   0.41547   0.42502   0.42510
     Eigenvalues ---    0.42670   0.42744   0.42825   0.43362   0.43950
     Eigenvalues ---    0.43981   0.44273   0.44485   0.44688   0.44768
     Eigenvalues ---    0.50654   0.51351   0.52035   0.52547   0.54333
     Eigenvalues ---    0.54623   0.54642   0.54650   0.54691   0.54692
     Eigenvalues ---    0.54712   0.547651000.000001000.000001000.00000
     Eigenvalues --- 1000.000001000.000001000.000001000.000001000.00000
     Eigenvalues --- 1000.000001000.000001000.000001000.000001000.00000
     Eigenvalues --- 1000.000001000.000001000.000001000.000001000.00000
     Eigenvalues --- 1000.000001000.000001000.000001000.000001000.00000
     Eigenvalues --- 1000.000001000.000001000.000001000.000001000.00000
     Eigenvalues --- 1000.000001000.000001000.000001000.000001000.00000
     Eigenvalues --- 1000.000001000.000001000.000001000.000001000.00000
     Eigenvalues --- 1000.000001000.000001000.000001000.000001000.00000
     Eigenvalues --- 1000.000001000.000001000.00000
 RFO step:  Lambda=-4.97059776D-05 EMin= 2.30000000D-03
 Linear search not attempted -- first point.
 Iteration  1 RMS(Cart)=  0.05429582 RMS(Int)=  0.00115539
 Iteration  2 RMS(Cart)=  0.00193385 RMS(Int)=  0.00000122
 Iteration  3 RMS(Cart)=  0.00000184 RMS(Int)=  0.00000096
 Iteration  4 RMS(Cart)=  0.00000000 RMS(Int)=  0.00000096
 Iteration  1 RMS(Cart)=  0.00000000 RMS(Int)=  0.00000000
 Variable       Old X    -DE/DX   Delta X   Delta X   Delta X     New X
                                 (Linear)    (Quad)   (Total)
    R1        3.67647   0.00016   0.00000   0.00076   0.00076   3.67722
    R2        3.69190  -0.00003   0.00000  -0.00012  -0.00012   3.69177
    R3        3.73835  -0.00023   0.00000  -0.00122  -0.00122   3.73713
    R4        3.70232   0.00000   0.00000   0.00002   0.00002   3.70234
    R5        3.11687  -0.00002   0.00000  -0.00005  -0.00005   3.11683
    R6        3.09578  -0.00000   0.00000  -0.00001  -0.00001   3.09577
    R7        3.10214  -0.00002   0.00000  -0.00003  -0.00003   3.10211
    R8        3.09246   0.00017   0.00000   0.00037   0.00037   3.09283
    R9        3.11587  -0.00006   0.00000  -0.00014  -0.00014   3.11573
   R10        3.11988   0.00005   0.00000   0.00012   0.00012   3.12000
   R11        3.14368   0.00001   0.00000   0.00002   0.00002   3.14369
   R12        3.18063  -0.00005   0.00000  -0.00013  -0.00013   3.18050
   R13        3.10925  -0.00002   0.00000  -0.00004  -0.00004   3.10921
   R14        3.09339   0.00009   0.00000   0.00019   0.00019   3.09359
   R15        3.10177  -0.00010   0.00000  -0.00022  -0.00022   3.10155
   R16        3.16376  -0.00006   0.00000  -0.00015  -0.00015   3.16361
   R17        3.09830   0.00010   0.00000   0.00022   0.00022   3.09852
   R18        3.11979  -0.00018   0.00000  -0.00043  -0.00043   3.11936
   R19        3.13204   0.00011   0.00000   0.00026   0.00026   3.13229
   R20        3.11779   0.00009   0.00000   0.00022   0.00022   3.11801
   R21        1.82152   0.00000   0.00000   0.00000   0.00000   1.82152
   R22        1.82107   0.00004   0.00000   0.00007   0.00007   1.82113
   R23        1.82088  -0.00001   0.00000  -0.00002  -0.00002   1.82087
   R24        1.84079   0.00004   0.00000   0.00008   0.00008   1.84088
   R25        1.84566   0.00005   0.00000   0.00009   0.00009   1.84574
   R26        1.82042   0.00001   0.00000   0.00001   0.00001   1.82043
   R27        1.82108   0.00004   0.00000   0.00007   0.00007   1.82115
   R28        1.85911  -0.00002   0.00000  -0.00004  -0.00004   1.85907
   R29        1.82145   0.00001   0.00000   0.00002   0.00002   1.82147
   R30        1.82429  -0.00001   0.00000  -0.00001  -0.00001   1.82428
   R31        1.82168  -0.00002   0.00000  -0.00004  -0.00004   1.82165
   R32        1.85226  -0.00001   0.00000  -0.00003  -0.00003   1.85223
    A1        1.85173  -0.00015   0.00000  -0.00212  -0.00213   1.84960
    A2        1.80156   0.00012   0.00000   0.00075   0.00076   1.80231
    A3        1.96889  -0.00034   0.00000  -0.00291  -0.00291   1.96598
    A4        1.83430   0.00001   0.00000   0.00133   0.00132   1.83563
    A5        2.01802   0.00010   0.00000   0.00036   0.00035   2.01837
    A6        1.97057   0.00027   0.00000   0.00266   0.00266   1.97323
    A7        2.46524  -0.00008   0.00000  -0.00034  -0.00034   2.46490
    A8        2.58825   0.00003   0.00000   0.00012   0.00012   2.58837
    A9        2.35482  -0.00008   0.00000  -0.00031  -0.00031   2.35451
   A10        2.86714   0.00074   0.00000   0.00000   0.00000   2.86714
   A11        1.91978   0.00001   0.00000   0.00012   0.00012   1.91989
   A12        1.91546  -0.00002   0.00000  -0.00017  -0.00017   1.91530
   A13        1.95201  -0.00001   0.00000  -0.00011  -0.00011   1.95189
   A14        2.00709   0.00002   0.00000   0.00016   0.00016   2.00725
   A15        1.88610   0.00003   0.00000   0.00020   0.00020   1.88630
   A16        1.78001  -0.00003   0.00000  -0.00023  -0.00023   1.77978
   A17        1.80239   0.00002   0.00000   0.00015   0.00015   1.80254
[...]
 Alpha virt. eigenvalues --    3.52872   3.54116   3.60307   3.61076   3.62061
 Alpha virt. eigenvalues --    3.66195   4.32767   4.59661   7.89975  31.29242
          Condensed to atoms (all electrons):
               1          2          3          4          5          6
     1  Zr  15.084387  -0.125038  -0.001395  -0.134843  -0.192077  -0.597364
     2  O   -0.125038   9.063466   0.019521  -0.042521  -0.057459   0.088573
     3  O   -0.001395   0.019521   8.828675   0.015840  -0.044037  -0.004234
     4  O   -0.134843  -0.042521   0.015840   8.809942  -0.060108  -0.673577
     5  O   -0.192077  -0.057459  -0.044037  -0.060108   9.428510  -0.007132
     6  Si  -0.597364   0.088573  -0.004234  -0.673577  -0.007132  13.984556
     7  Si  -0.614859  -0.028142  -0.876073  -0.007130  -0.033904   0.084283
     8  Si  -0.588936  -0.999050  -0.020252   0.071443  -0.014309  -0.017217
     9  Si  -0.320610  -0.040580  -0.026530  -0.033051  -1.231704   0.038672
    10  O   -0.014641   0.001026  -0.002025   0.000946   0.129384  -0.002378
    11  O   -0.064311   0.003407   0.002978   0.001215   0.312459  -0.000807
    12  O    0.042168  -0.000018   0.004699   0.002076   0.153383  -0.002975
    13  O   -0.036109   0.186182   0.001650  -0.015659  -0.000678   0.035505
    14  O   -0.017941   0.263426  -0.017635  -0.008779   0.001905   0.029043
    15  O   -0.083637   0.292917  -0.000699   0.001237   0.000582  -0.000036
    16  O   -0.124903   0.004684  -0.000499   0.344689   0.003210  -0.422825
    17  O   -0.081670  -0.039846   0.008038   0.218115   0.001315  -0.452288
    18  O   -0.026749  -0.014465   0.003734   0.198118  -0.000612  -0.450375
    19  O    0.001376   0.008965   0.264920   0.010252   0.002132  -0.007595
    20  O   -0.145834  -0.000576   0.163718  -0.000861   0.001478   0.009039
    21  O    0.035996   0.010301   0.146247   0.003413   0.000211  -0.011868
    22  H   -0.008936  -0.000018  -0.000014  -0.000009   0.005776   0.000086
    23  H   -0.007653  -0.000013  -0.000006  -0.000055  -0.025236   0.000086
    24  H   -0.005226  -0.000189  -0.000011   0.000003  -0.005474   0.000071
    25  H    0.017000  -0.020011  -0.000111  -0.000312   0.000019   0.002632
    26  H    0.007279   0.000636   0.000014  -0.000011  -0.000004  -0.000150
    27  H    0.004256  -0.019211   0.000839  -0.001701   0.000010   0.008775
    28  H    0.005082  -0.000011  -0.018398  -0.000014  -0.000015  -0.000283
    29  H    0.004203  -0.007064  -0.020275  -0.000141  -0.000074   0.000134
    30  H    0.000724  -0.000012   0.000060  -0.000454  -0.000008  -0.000659
    31  H   -0.000181   0.000173  -0.000020  -0.018452  -0.000009   0.063845
    32  H    0.002102  -0.000024   0.000040   0.010402   0.000001   0.022879
    33  H   -0.016038   0.001020  -0.010104  -0.009619  -0.000101   0.053317
               7          8          9         10         11         12
     1  Zr  -0.614859  -0.588936  -0.320610  -0.014641  -0.064311   0.042168
     2  O   -0.028142  -0.999050  -0.040580   0.001026   0.003407  -0.000018
     3  O   -0.876073  -0.020252  -0.026530  -0.002025   0.002978   0.004699
     4  O   -0.007130   0.071443  -0.033051   0.000946   0.001215   0.002076
     5  O   -0.033904  -0.014309  -1.231704   0.129384   0.312459   0.153383
     6  Si   0.084283  -0.017217   0.038672  -0.002378  -0.000807  -0.002975
     7  Si  13.795722   0.182192   0.019994  -0.000241  -0.000874   0.004006
     8  Si   0.182192  13.804562   0.026170  -0.000985   0.001190  -0.000829
     9  Si   0.019994   0.026170  14.255940  -0.068004  -0.179571  -0.211041
    10  O   -0.000241  -0.000985  -0.068004   8.525334   0.014989   0.031107
    11  O   -0.000874   0.001190  -0.179571   0.014989   8.516191  -0.050945
    12  O    0.004006  -0.000829  -0.211041   0.031107  -0.050945   8.600889
    13  O    0.007312  -0.095220   0.000222   0.000000   0.000018   0.000009
    14  O    0.009502  -0.367931  -0.001482  -0.000002   0.000001   0.000018
    15  O   -0.002549  -0.304674  -0.000631   0.000000  -0.000024  -0.000016
    16  O    0.003808  -0.010298  -0.001029   0.000005  -0.000003  -0.000001
    17  O   -0.000732   0.096805   0.002559  -0.000001   0.000002  -0.000006
    18  O   -0.000730   0.074684   0.004180  -0.000002  -0.000001  -0.000001
    19  O   -0.409024  -0.016049   0.001047   0.000007  -0.000002  -0.000022
    20  O   -0.108667   0.009649   0.003156   0.000003  -0.000003  -0.000029
    21  O    0.024484  -0.040142  -0.001805   0.000001   0.000001   0.000024
    22  H   -0.000185   0.000089   0.047228  -0.006510  -0.005084   0.219714
    23  H    0.000060   0.000062   0.081044   0.228524  -0.006117   0.005849
    24  H    0.000054  -0.000091   0.037244   0.007394   0.242566  -0.007463
    25  H   -0.000460   0.057443  -0.000211   0.000000  -0.000000  -0.000000
    26  H   -0.000381   0.046074  -0.000044  -0.000000   0.000000  -0.000000
    27  H    0.001339   0.068456  -0.000008   0.000000  -0.000000  -0.000000
    28  H    0.056604  -0.000068  -0.000135  -0.000000  -0.000000  -0.000004
    29  H    0.048123   0.021895  -0.000057   0.000000   0.000000  -0.000001
    30  H    0.040301   0.000111   0.000023  -0.000000   0.000000   0.000000
    31  H    0.000155  -0.001972  -0.000052   0.000000  -0.000000   0.000000
    32  H   -0.000665   0.000053   0.000008  -0.000000   0.000000  -0.000000
    33  H    0.020630   0.000105   0.000078  -0.000000   0.000000   0.000000
              13         14         15         16         17         18
     1  Zr  -0.036109  -0.017941  -0.083637  -0.124903  -0.081670  -0.026749
     2  O    0.186182   0.263426   0.292917   0.004684  -0.039846  -0.014465
     3  O    0.001650  -0.017635  -0.000699  -0.000499   0.008038   0.003734
     4  O   -0.015659  -0.008779   0.001237   0.344689   0.218115   0.198118
     5  O   -0.000678   0.001905   0.000582   0.003210   0.001315  -0.000612
     6  Si   0.035505   0.029043  -0.000036  -0.422825  -0.452288  -0.450375
     7  Si   0.007312   0.009502  -0.002549   0.003808  -0.000732  -0.000730
     8  Si  -0.095220  -0.367931  -0.304674  -0.010298   0.096805   0.074684
     9  Si   0.000222  -0.001482  -0.000631  -0.001029   0.002559   0.004180
    10  O    0.000000  -0.000002   0.000000   0.000005  -0.000001  -0.000002
    11  O    0.000018   0.000001  -0.000024  -0.000003   0.000002  -0.000001
    12  O    0.000009   0.000018  -0.000016  -0.000001  -0.000006  -0.000001
    13  O    8.628142   0.087159  -0.090656   0.003733  -0.030918  -0.045636
    14  O    0.087159   8.674450   0.055554   0.003668  -0.035873  -0.026861
    15  O   -0.090656   0.055554   8.777087  -0.000175   0.003603   0.001676
    16  O    0.003733   0.003668  -0.000175   8.901872  -0.091796  -0.115303
    17  O   -0.030918  -0.035873   0.003603  -0.091796   8.935710   0.227761
    18  O   -0.045636  -0.026861   0.001676  -0.115303   0.227761   9.012556
    19  O    0.000181  -0.000435   0.000139  -0.001537  -0.030006   0.000161
    20  O    0.000008  -0.000244   0.000039   0.000065  -0.000984   0.000015
    21  O   -0.000250   0.016003  -0.000614  -0.000213  -0.005580   0.000476
    22  H   -0.000000  -0.000000  -0.000000   0.000000   0.000000  -0.000000
    23  H    0.000000   0.000000  -0.000000  -0.000000   0.000000  -0.000000
    24  H   -0.000000   0.000000   0.000002   0.000000  -0.000000  -0.000000
    25  H    0.218361  -0.011970   0.008908  -0.000050   0.000627   0.014886
    26  H   -0.005133  -0.010090   0.217044   0.000000  -0.000003   0.000006
    27  H   -0.009731   0.219320   0.004634   0.000184   0.017923  -0.000253
    28  H    0.000000  -0.000006  -0.000001  -0.000000   0.000004  -0.000000
    29  H    0.000795   0.017597  -0.002573  -0.000004  -0.000395   0.000006
    30  H    0.000001   0.000001   0.000000   0.000115  -0.000400  -0.000007
    31  H    0.002354   0.000166  -0.000018   0.003723  -0.000734   0.218177
    32  H   -0.000008  -0.000006   0.000000   0.233383  -0.003651   0.003899
    33  H    0.000230   0.002089  -0.000035  -0.000101   0.230963   0.002097
              19         20         21         22         23         24
     1  Zr   0.001376  -0.145834   0.035996  -0.008936  -0.007653  -0.005226
     2  O    0.008965  -0.000576   0.010301  -0.000018  -0.000013  -0.000189
     3  O    0.264920   0.163718   0.146247  -0.000014  -0.000006  -0.000011
     4  O    0.010252  -0.000861   0.003413  -0.000009  -0.000055   0.000003
     5  O    0.002132   0.001478   0.000211   0.005776  -0.025236  -0.005474
     6  Si  -0.007595   0.009039  -0.011868   0.000086   0.000086   0.000071
     7  Si  -0.409024  -0.108667   0.024484  -0.000185   0.000060   0.000054
     8  Si  -0.016049   0.009649  -0.040142   0.000089   0.000062  -0.000091
     9  Si   0.001047   0.003156  -0.001805   0.047228   0.081044   0.037244
    10  O    0.000007   0.000003   0.000001  -0.006510   0.228524   0.007394
    11  O   -0.000002  -0.000003   0.000001  -0.005084  -0.006117   0.242566
    12  O   -0.000022  -0.000029   0.000024   0.219714   0.005849  -0.007463
    13  O    0.000181   0.000008  -0.000250  -0.000000   0.000000  -0.000000
    14  O   -0.000435  -0.000244   0.016003  -0.000000   0.000000   0.000000
    15  O    0.000139   0.000039  -0.000614  -0.000000  -0.000000   0.000002
    16  O   -0.001537   0.000065  -0.000213   0.000000  -0.000000   0.000000
    17  O   -0.030006  -0.000984  -0.005580   0.000000   0.000000  -0.000000
    18  O    0.000161   0.000015   0.000476  -0.000000  -0.000000  -0.000000
    19  O    8.872849   0.032085   0.023434  -0.000000   0.000000  -0.000000
    20  O    0.032085   8.657099  -0.050369   0.000000   0.000000  -0.000000
    21  O    0.023434  -0.050369   8.485526  -0.000000   0.000000   0.000000
    22  H   -0.000000   0.000000  -0.000000   0.361700   0.000057   0.000124
    23  H    0.000000   0.000000   0.000000   0.000057   0.350972   0.000013
    24  H   -0.000000  -0.000000   0.000000   0.000124   0.000013   0.365149
    25  H   -0.000024   0.000000  -0.000019   0.000000   0.000000   0.000000
    26  H    0.000001  -0.000000   0.000039  -0.000000  -0.000000  -0.000000
    27  H    0.000028   0.000192  -0.004014  -0.000000  -0.000000   0.000000
    28  H    0.004612   0.229566  -0.002058  -0.000000   0.000000  -0.000000
    29  H   -0.008565   0.007667   0.206477   0.000000   0.000000  -0.000000
    30  H    0.224159  -0.001471  -0.007147   0.000000   0.000000  -0.000000
    31  H    0.000004  -0.000000  -0.000000  -0.000000  -0.000000   0.000000
    32  H    0.000097  -0.000000   0.000001  -0.000000  -0.000000  -0.000000
    33  H    0.014837  -0.000080   0.001474  -0.000000  -0.000000  -0.000000
              25         26         27         28         29         30
     1  Zr   0.017000   0.007279   0.004256   0.005082   0.004203   0.000724
     2  O   -0.020011   0.000636  -0.019211  -0.000011  -0.007064  -0.000012
     3  O   -0.000111   0.000014   0.000839  -0.018398  -0.020275   0.000060
     4  O   -0.000312  -0.000011  -0.001701  -0.000014  -0.000141  -0.000454
     5  O    0.000019  -0.000004   0.000010  -0.000015  -0.000074  -0.000008
     6  Si   0.002632  -0.000150   0.008775  -0.000283   0.000134  -0.000659
     7  Si  -0.000460  -0.000381   0.001339   0.056604   0.048123   0.040301
     8  Si   0.057443   0.046074   0.068456  -0.000068   0.021895   0.000111
     9  Si  -0.000211  -0.000044  -0.000008  -0.000135  -0.000057   0.000023
    10  O    0.000000  -0.000000   0.000000  -0.000000   0.000000  -0.000000
    11  O   -0.000000   0.000000  -0.000000  -0.000000   0.000000   0.000000
    12  O   -0.000000  -0.000000  -0.000000  -0.000004  -0.000001   0.000000
    13  O    0.218361  -0.005133  -0.009731   0.000000   0.000795   0.000001
    14  O   -0.011970  -0.010090   0.219320  -0.000006   0.017597   0.000001
    15  O    0.008908   0.217044   0.004634  -0.000001  -0.002573   0.000000
    16  O   -0.000050   0.000000   0.000184  -0.000000  -0.000004   0.000115
    17  O    0.000627  -0.000003   0.017923   0.000004  -0.000395  -0.000400
    18  O    0.014886   0.000006  -0.000253  -0.000000   0.000006  -0.000007
    19  O   -0.000024   0.000001   0.000028   0.004612  -0.008565   0.224159
    20  O    0.000000  -0.000000   0.000192   0.229566   0.007667  -0.001471
    21  O   -0.000019   0.000039  -0.004014  -0.002058   0.206477  -0.007147
    22  H    0.000000  -0.000000  -0.000000  -0.000000   0.000000   0.000000
    23  H    0.000000  -0.000000  -0.000000   0.000000   0.000000   0.000000
    24  H    0.000000  -0.000000   0.000000  -0.000000  -0.000000  -0.000000
    25  H    0.298970  -0.000012   0.000113   0.000000   0.000001   0.000000
    26  H   -0.000012   0.366016   0.000036   0.000000   0.000021  -0.000000
    27  H    0.000113   0.000036   0.283359  -0.000000  -0.001495   0.000009
    28  H    0.000000   0.000000  -0.000000   0.349186  -0.000017  -0.000016
    29  H    0.000001   0.000021  -0.001495  -0.000017   0.285938   0.000155
    30  H    0.000000  -0.000000   0.000009  -0.000016   0.000155   0.334250
    31  H   -0.000504   0.000000   0.000013  -0.000000   0.000000  -0.000000
    32  H   -0.000001   0.000000  -0.000000   0.000000  -0.000000  -0.000000
    33  H    0.000006  -0.000000  -0.002403  -0.000002   0.000099  -0.001156
              31         32         33
     1  Zr  -0.000181   0.002102  -0.016038
     2  O    0.000173  -0.000024   0.001020
     3  O   -0.000020   0.000040  -0.010104
     4  O   -0.018452   0.010402  -0.009619
     5  O   -0.000009   0.000001  -0.000101
     6  Si   0.063845   0.022879   0.053317
     7  Si   0.000155  -0.000665   0.020630
     8  Si  -0.001972   0.000053   0.000105
     9  Si  -0.000052   0.000008   0.000078
    10  O    0.000000  -0.000000  -0.000000
    11  O   -0.000000   0.000000   0.000000
    12  O    0.000000  -0.000000   0.000000
    13  O    0.002354  -0.000008   0.000230
    14  O    0.000166  -0.000006   0.002089
    15  O   -0.000018   0.000000  -0.000035
    16  O    0.003723   0.233383  -0.000101
    17  O   -0.000734  -0.003651   0.230963
    18  O    0.218177   0.003899   0.002097
    19  O    0.000004   0.000097   0.014837
    20  O   -0.000000  -0.000000  -0.000080
    21  O   -0.000000   0.000001   0.001474
    22  H   -0.000000  -0.000000  -0.000000
    23  H   -0.000000  -0.000000  -0.000000
    24  H    0.000000  -0.000000  -0.000000
    25  H   -0.000504  -0.000001   0.000006
    26  H    0.000000   0.000000  -0.000000
    27  H    0.000013  -0.000000  -0.002403
    28  H   -0.000000   0.000000  -0.000002
    29  H    0.000000  -0.000000   0.000099
    30  H   -0.000000  -0.000000  -0.001156
    31  H    0.331556   0.000001  -0.000038
    32  H    0.000001   0.350035   0.000157
    33  H   -0.000038   0.000157   0.269250
 Mulliken charges:
               1
     1  Zr   0.004378
     2  O   -0.550049
     3  O   -0.418657
     4  O   -0.680394
     5  O   -0.367434
     6  Si   2.230266
     7  Si   1.786047
     8  Si   2.017039
     9  Si   1.598981
    10  O   -0.843932
    11  O   -0.787276
    12  O   -0.790591
    13  O   -0.841865
    14  O   -0.880646
    15  O   -0.877085
    16  O   -0.734401
    17  O   -0.968542
    18  O   -1.081436
    19  O   -0.988027
    20  O   -0.804663
    21  O   -0.830029
    22  H    0.385980
    23  H    0.372413
    24  H    0.365836
    25  H    0.414718
    26  H    0.378660
    27  H    0.429331
    28  H    0.375973
    29  H    0.447549
    30  H    0.411420
    31  H    0.401814
    32  H    0.381297
    33  H    0.443326
 Sum of Mulliken charges =  -0.00000
 Mulliken charges with hydrogens summed into heavy atoms:
               1
     1  Zr   0.004378
     2  O   -0.550049
     3  O   -0.418657
     4  O   -0.680394
     5  O   -0.367434
     6  Si   2.230266
     7  Si   1.786047
     8  Si   2.017039
     9  Si   1.598981
    10  O   -0.471519
    11  O   -0.421441
    12  O   -0.404612
    13  O   -0.427146
    14  O   -0.451315
    15  O   -0.498425
    16  O   -0.353104
    17  O   -0.525215
    18  O   -0.679623
    19  O   -0.576607
    20  O   -0.428690
    21  O   -0.382480
 Electronic spatial extent (au):  <R**2>=           9868.7922
 Charge=              0.0000 electrons
 Dipole moment (field-independent basis, Debye):
    X=              1.0843    Y=             -0.7667    Z=             -2.4039  Tot=              2.7463
 Quadrupole moment (field-independent basis, Debye-Ang):
   XX=           -160.1448   YY=           -154.6871   ZZ=           -157.7873
   XY=             -4.9475   XZ=              2.2463   YZ=              5.7343
 Traceless Quadrupole moment (field-independent basis, Debye-Ang):
   XX=             -2.6050   YY=              2.8526   ZZ=             -0.2476
   XY=             -4.9475   XZ=              2.2463   YZ=              5.7343
 Octapole moment (field-independent basis, Debye-Ang**2):
  XXX=             74.9164  YYY=              6.8035  ZZZ=            -18.6339  XYY=             -2.1914
  XXY=             20.2613  XXZ=             19.3319  XZZ=              5.3677  YZZ=            -17.0812
  YYZ=            -15.6968  XYZ=             28.0423
 Hexadecapole moment (field-independent basis, Debye-Ang**3):
 XXXX=          -6028.1505 YYYY=          -2835.0909 ZZZZ=          -2261.1235 XXXY=             55.9568
 XXXZ=            -24.0484 YYYX=              4.3440 YYYZ=            217.6285 ZZZX=           -184.0503
 ZZZY=            -54.7622 XXYY=          -1483.4552 XXZZ=          -1361.9399 YYZZ=           -924.8175
 XXYZ=             -7.2636 YYXZ=            130.6244 ZZXY=            -60.3554
 N-N= 2.832870284613D+03 E-N=-1.137834252352D+04  KE= 2.373154808292D+03
 1\1\GINC-GRA383\FOpt\RB3LYP\Gen\H12O16Si4Zr1\SARASHS\14-Aug-2020\0\\#n
  B3LYP/Gen Pseudo=cards EmpiricalDispersion=GD3 Opt=modredundant\\Titl
 e\\0,1\Zr,0.6549785946,-0.1882843976,0.0887372591\O,-0.1663842739,-1.3
 791685865,1.3895839234\O,0.0759803106,1.616030722,0.56420275\O,-0.3083
 074267,-0.6144539976,-1.5857479423\O,2.5917504762,-0.4440053398,-0.059
 0498369\Si,-1.8774049846,-0.8890622751,-1.9823495411\Si,-1.1539442709,
 2.6329952083,0.9340141179\Si,-1.6431336694,-1.8204384302,1.9769873379\
 Si,4.2158049623,-0.2682062661,0.0383693134\O,4.9072351332,0.3046897073
 ,-1.3470253377\O,4.9363810384,-1.736138077,0.3088778821\O,4.4557291355
 ,0.8378459097,1.2388656424\O,-2.2336349427,-3.1338587602,1.1893718424\
 O,-2.6757634958,-0.5154947731,1.7935351258\O,-1.4663969917,-2.13269196
 36,3.5767623634\O,-2.0963795282,-0.6689016866,-3.6017039533\O,-2.86381
 18706,0.0154268013,-1.0155916942\O,-2.3496000372,-2.438627871,-1.60382
 48767\O,-2.1163935865,2.5934114025,-0.4462130415\O,-0.7004078446,4.201
 5835482,1.1365721393\O,-1.9580332789,2.1582827097,2.2785362951\H,5.337
 3114921,1.2205216568,1.3084292255\H,5.2564383292,-0.3622064691,-1.9490
 539648\H,4.5325274605,-2.3127901406,0.9669655342\H,-2.3483473475,-3.05
 50240899,0.225268705\H,-2.2318366058,-2.4839086824,4.0444510233\H,-3.0
 388756519,-0.4189716316,0.8920010609\H,-0.5738161754,4.4933221256,2.04
 65953648\H,-2.2417688437,1.220461504,2.3052958354\H,-2.7418578269,3.32
 38441487,-0.5310394105\H,-2.3131160479,-3.0831815107,-2.3195612371\H,-
 1.3882395195,-0.2167846582,-4.0737245803\H,-2.6670127124,0.9768741628,
 -0.9467373249\\Version=ES64L-G16RevB.01\State=1-A\HF=-2416.946857\RMSD
 =3.223e-09\RMSF=9.823e-06\Dipole=0.4006735,-0.0246601,-1.0031348\Quadr
 upole=-1.7401387,-0.4434242,2.183563,-3.9102094,0.6257855,4.3541515\PG
 =C01 [X(H12O16Si4Zr1)]\\@


 ASKING FOR EFFICIENCY AND ADAPTABILITY IN THE SAME PROGRAM IS LIKE
 ASKING FOR A BEAUTIFUL AND MODEST WIFE ...
 WE'LL PROBABLY HAVE TO SETTLE FOR ONE OR THE OTHER.

             -- THE PSYCHOLOGY OF COMPUTER PROGRAMMING
                GERALD M. WEINBERG
 Job cpu time:       1 days  7 hours 35 minutes 29.4 seconds.
 Elapsed time:       0 days  2 hours 23 minutes 18.5 seconds.
 File lengths (MBytes):  RWF=    167 Int=      0 D2E=      0 Chk=     21 Scr=      1
 Normal termination of Gaussian 16 at Fri Aug 14 05:35:14 2020.
