 Entering Gaussian System, Link 0=g16
 Initial command:
 /opt/software/gaussian/g16.b01/l1.exe "/localscratch/sarashs.37242651.0/Gau-251910.inp" -scrdir="/localscratch/sarashs.37242651.0/"
 Entering Link 1 = /opt/software/gaussian/g16.b01/l1.exe PID=    251911.
  
 Copyright (c) 1988-2017, Gaussian, Inc.  All Rights Reserved.
  
 This is part of the Gaussian(R) 16 program.  It is based on
 the Gaussian(R) 09 system (copyright 2009, Gaussian, Inc.),
 the Gaussian(R) 03 system (copyright 2003, Gaussian, Inc.),
 the Gaussian(R) 98 system (copyright 1998, Gaussian, Inc.),
 the Gaussian(R) 94 system (copyright 1995, Gaussian, Inc.),
 the Gaussian 92(TM) system (copyright 1992, Gaussian, Inc.),
 the Gaussian 90(TM) system (copyright 1990, Gaussian, Inc.),
 the Gaussian 88(TM) system (copyright 1988, Gaussian, Inc.),
 the Gaussian 86(TM) system (copyright 1986, Carnegie Mellon
 University), and the Gaussian 82(TM) system (copyright 1983,
 Carnegie Mellon University). Gaussian is a federally registered
 trademark of Gaussian, Inc.
  
 This software contains proprietary and confidential information,
 including trade secrets, belonging to Gaussian, Inc.
  
 This software is provided under written license and may be
 used, copied, transmitted, or stored only in accord with that
 written license.
  
 The following legend is applicable only to US Government
 contracts under FAR:
  
                    RESTRICTED RIGHTS LEGEND
  
 Use, reproduction and disclosure by the US Government is
 subject to restrictions as set forth in subparagraphs (a)
 and (c) of the Commercial Computer Software - Restricted
 Rights clause in FAR 52.227-19.
  
 Gaussian, Inc.
 340 Quinnipiac St., Bldg. 40, Wallingford CT 06492
  
  
 ---------------------------------------------------------------
 Warning -- This program may not be used in any manner that
 competes with the business of Gaussian, Inc. or will provide
 assistance to any competitor of Gaussian, Inc.  The licensee
 of this program is prohibited from giving any competitor of
 Gaussian, Inc. access to this program.  By using this program,
 the user acknowledges that Gaussian, Inc. is engaged in the
 business of creating and licensing software in the field of
 computational chemistry and represents and warrants to the
 licensee that it is not a competitor of Gaussian, Inc. and that
 it will not use this program in any manner prohibited above.
 ---------------------------------------------------------------
  

 Cite this work as:
 Gaussian 16, Revision B.01,
 M. J. Frisch, G. W. Trucks, H. B. Schlegel, G. E. Scuseria, 
 M. A. Robb, J. R. Cheeseman, G. Scalmani, V. Barone, 
 G. A. Petersson, H. Nakatsuji, X. Li, M. Caricato, A. V. Marenich, 
 J. Bloino, B. G. Janesko, R. Gomperts, B. Mennucci, H. P. Hratchian, 
 J. V. Ortiz, A. F. Izmaylov, J. L. Sonnenberg, D. Williams-Young, 
 F. Ding, F. Lipparini, F. Egidi, J. Goings, B. Peng, A. Petrone, 
 T. Henderson, D. Ranasinghe, V. G. Zakrzewski, J. Gao, N. Rega, 
 G. Zheng, W. Liang, M. Hada, M. Ehara, K. Toyota, R. Fukuda, 
 J. Hasegawa, M. Ishida, T. Nakajima, Y. Honda, O. Kitao, H. Nakai, 
 T. Vreven, K. Throssell, J. A. Montgomery, Jr., J. E. Peralta, 
 F. Ogliaro, M. J. Bearpark, J. J. Heyd, E. N. Brothers, K. N. Kudin, 
 V. N. Staroverov, T. A. Keith, R. Kobayashi, J. Normand, 
 K. Raghavachari, A. P. Rendell, J. C. Burant, S. S. Iyengar, 
 J. Tomasi, M. Cossi, J. M. Millam, M. Klene, C. Adamo, R. Cammi, 
 J. W. Ochterski, R. L. Martin, K. Morokuma, O. Farkas, 
 J. B. Foresman, and D. J. Fox, Gaussian, Inc., Wallingford CT, 2016.
 
 ******************************************
 Gaussian 16:  ES64L-G16RevB.01 20-Dec-2017
                14-Aug-2020 
 ******************************************
 %NProcShared=16
 Will use up to   16 processors via shared memory.
 ------------------------------------------------------------------
 #n B3LYP/Gen Pseudo=cards EmpiricalDispersion=GD3 Opt=modredundant
 ------------------------------------------------------------------
 1/18=120,19=15,26=3,38=1/1,3;
 2/9=110,12=2,17=6,18=5,40=1/2;
 3/5=7,11=2,16=1,17=8,25=1,30=1,71=1,74=-5,124=31/1,2,3;
 4//1;
 5/5=2,38=5/2;
 6/7=2,8=2,9=2,10=2,28=1/1;
 7//1,2,3,16;
 1/18=20,19=15,26=3/3(2);
 2/9=110/2;
 99//99;
 2/9=110/2;
 3/5=7,6=1,11=2,16=1,17=8,25=1,30=1,71=1,74=-5,82=7,124=31/1,2,3;
 4/5=5,16=3,69=1/1;
 5/5=2,38=5/2;
 7//1,2,3,16;
 1/18=20,19=15,26=3/3(-5);
 2/9=110/2;
 6/7=2,8=2,9=2,10=2,19=2,28=1/1;
 99/9=1/99;
 -----
 Title
 -----
 Symbolic Z-matrix:
 Charge =  0 Multiplicity = 1
 Zr                    0.65779  -0.12506  -0.07164 
 O                    -0.22285  -0.90624   1.4773 
 O                     0.10302   1.74748  -0.12299 
 O                    -0.2683   -0.97885  -1.59705 
 O                     2.59206  -0.4363   -0.08284 
 Si                   -1.83119  -1.33244  -1.9536 
 Si                   -1.1155    2.84172  -0.08279 
 Si                   -1.72376  -1.15291   2.11517 
 Si                    4.21631  -0.26105   0.01252 
 O                     4.95566  -0.09972  -1.45475 
 O                     4.89877  -1.60704   0.69775 
 O                     4.44778   1.12944   0.86985 
 O                    -2.31924  -2.624     1.69627 
 O                    -2.72422   0.06508   1.55086 
 O                    -1.59734  -1.01957   3.74439 
 O                    -2.00144  -1.55965  -3.57782 
 O                    -2.82509  -0.18676  -1.30145 
 O                    -2.34448  -2.71439  -1.18277 
 O                    -2.04046   2.43957  -1.43023 
 O                    -0.63565   4.40049  -0.29987 
 O                    -1.96551   2.76086   1.31383 
 H                     5.33501   1.50516   0.85865 
 H                     5.3042   -0.91111  -1.84112 
 H                     4.46373  -1.97795   1.47352 
 H                    -2.40577  -2.80951   0.74392 
 H                    -2.38137  -1.22423   4.26535 
 H                    -3.06034  -0.08306   0.64589 
 H                    -0.52731   4.92728   0.50015 
 H                    -2.26909   1.86932   1.58533 
 H                    -2.64854   3.12676  -1.73014 
 H                    -2.30452  -3.52952  -1.69562 
 H                    -1.27114  -1.26305  -4.13223 
 H                    -2.61026   0.75461  -1.48993 
 
 The following ModRedundant input section has been read:
 A       1       5       9 F                                                   
 

 GradGradGradGradGradGradGradGradGradGradGradGradGradGradGradGradGradGrad
 Berny optimization.
 Initialization pass.
                           ----------------------------
                           !    Initial Parameters    !
                           ! (Angstroms and Degrees)  !
 --------------------------                            --------------------------
 ! Name  Definition              Value          Derivative Info.                !
 --------------------------------------------------------------------------------
 ! R1    R(1,2)                  1.9455         estimate D2E/DX2                !
 ! R2    R(1,3)                  1.9537         estimate D2E/DX2                !
 ! R3    R(1,4)                  1.9783         estimate D2E/DX2                !
 ! R4    R(1,5)                  1.9592         estimate D2E/DX2                !
 ! R5    R(2,8)                  1.6494         estimate D2E/DX2                !
 ! R6    R(3,7)                  1.6382         estimate D2E/DX2                !
 ! R7    R(4,6)                  1.6416         estimate D2E/DX2                !
 ! R8    R(5,9)                  1.6365         estimate D2E/DX2                !
 ! R9    R(6,16)                 1.6488         estimate D2E/DX2                !
 ! R10   R(6,17)                 1.651          estimate D2E/DX2                !
 ! R11   R(6,18)                 1.6636         estimate D2E/DX2                !
 ! R12   R(7,19)                 1.6831         estimate D2E/DX2                !
 ! R13   R(7,20)                 1.6453         estimate D2E/DX2                !
 ! R14   R(7,21)                 1.6369         estimate D2E/DX2                !
 ! R15   R(8,13)                 1.6414         estimate D2E/DX2                !
 ! R16   R(8,14)                 1.6742         estimate D2E/DX2                !
 ! R17   R(8,15)                 1.6395         estimate D2E/DX2                !
 ! R18   R(9,10)                 1.6509         estimate D2E/DX2                !
 ! R19   R(9,11)                 1.6574         estimate D2E/DX2                !
 ! R20   R(9,12)                 1.6499         estimate D2E/DX2                !
 ! R21   R(10,23)                0.9639         estimate D2E/DX2                !
 ! R22   R(11,24)                0.9637         estimate D2E/DX2                !
 ! R23   R(12,22)                0.9636         estimate D2E/DX2                !
 ! R24   R(13,25)                0.9741         estimate D2E/DX2                !
 ! R25   R(14,27)                0.9767         estimate D2E/DX2                !
 ! R26   R(15,26)                0.9633         estimate D2E/DX2                !
 ! R27   R(16,32)                0.9637         estimate D2E/DX2                !
 ! R28   R(17,33)                0.9838         estimate D2E/DX2                !
 ! R29   R(18,31)                0.9639         estimate D2E/DX2                !
 ! R30   R(19,30)                0.9654         estimate D2E/DX2                !
 ! R31   R(20,28)                0.964          estimate D2E/DX2                !
 ! R32   R(21,29)                0.9802         estimate D2E/DX2                !
 ! A1    A(2,1,3)              106.0959         estimate D2E/DX2                !
 ! A2    A(2,1,4)              103.2214         estimate D2E/DX2                !
 ! A3    A(2,1,5)              112.8091         estimate D2E/DX2                !
 ! A4    A(3,1,4)              105.0977         estimate D2E/DX2                !
 ! A5    A(3,1,5)              115.6243         estimate D2E/DX2                !
 ! A6    A(4,1,5)              112.9055         estimate D2E/DX2                !
 ! A7    A(1,2,8)              141.2479         estimate D2E/DX2                !
 ! A8    A(1,3,7)              148.2962         estimate D2E/DX2                !
 ! A9    A(1,4,6)              134.9216         estimate D2E/DX2                !
 ! A10   A(1,5,9)              164.2749         Frozen                          !
 ! A11   A(4,6,16)             109.9952         estimate D2E/DX2                !
 ! A12   A(4,6,17)             109.7479         estimate D2E/DX2                !
 ! A13   A(4,6,18)             111.8422         estimate D2E/DX2                !
 ! A14   A(16,6,17)            114.9972         estimate D2E/DX2                !
 ! A15   A(16,6,18)            108.0658         estimate D2E/DX2                !
 ! A16   A(17,6,18)            101.9869         estimate D2E/DX2                !
 ! A17   A(3,7,19)             103.269          estimate D2E/DX2                !
 ! A18   A(3,7,20)             114.3706         estimate D2E/DX2                !
 ! A19   A(3,7,21)             111.9733         estimate D2E/DX2                !
 ! A20   A(19,7,20)            106.3205         estimate D2E/DX2                !
 ! A21   A(19,7,21)            112.6973         estimate D2E/DX2                !
 ! A22   A(20,7,21)            108.1076         estimate D2E/DX2                !
 ! A23   A(2,8,13)             111.4365         estimate D2E/DX2                !
 ! A24   A(2,8,14)             107.7362         estimate D2E/DX2                !
 ! A25   A(2,8,15)             107.5759         estimate D2E/DX2                !
 ! A26   A(13,8,14)            110.4391         estimate D2E/DX2                !
 ! A27   A(13,8,15)            110.7606         estimate D2E/DX2                !
 ! A28   A(14,8,15)            108.7751         estimate D2E/DX2                !
 ! A29   A(5,9,10)             113.7768         estimate D2E/DX2                !
 ! A30   A(5,9,11)             110.2316         estimate D2E/DX2                !
 ! A31   A(5,9,12)             105.0573         estimate D2E/DX2                !
 ! A32   A(10,9,11)            105.2125         estimate D2E/DX2                !
 ! A33   A(10,9,12)            108.46           estimate D2E/DX2                !
 ! A34   A(11,9,12)            114.3199         estimate D2E/DX2                !
 ! A35   A(9,10,23)            115.8441         estimate D2E/DX2                !
 ! A36   A(9,11,24)            117.3556         estimate D2E/DX2                !
 ! A37   A(9,12,22)            116.857          estimate D2E/DX2                !
 ! A38   A(8,13,25)            116.8991         estimate D2E/DX2                !
 ! A39   A(8,14,27)            114.056          estimate D2E/DX2                !
 ! A40   A(8,15,26)            117.2166         estimate D2E/DX2                !
 ! A41   A(6,16,32)            116.4907         estimate D2E/DX2                !
 ! A42   A(6,17,33)            117.1859         estimate D2E/DX2                !
 ! A43   A(6,18,31)            116.3076         estimate D2E/DX2                !
 ! A44   A(7,19,30)            115.1373         estimate D2E/DX2                !
 ! A45   A(7,20,28)            116.1676         estimate D2E/DX2                !
 ! A46   A(7,21,29)            116.2372         estimate D2E/DX2                !
 ! D1    D(3,1,2,8)             57.7292         estimate D2E/DX2                !
 ! D2    D(4,1,2,8)            -52.5301         estimate D2E/DX2                !
 ! D3    D(5,1,2,8)           -174.7067         estimate D2E/DX2                !
 ! D4    D(2,1,3,7)            -50.098          estimate D2E/DX2                !
 ! D5    D(4,1,3,7)             58.8315         estimate D2E/DX2                !
 ! D6    D(5,1,3,7)           -175.9641         estimate D2E/DX2                !
 ! D7    D(2,1,4,6)             42.7683         estimate D2E/DX2                !
 ! D8    D(3,1,4,6)            -68.2312         estimate D2E/DX2                !
 ! D9    D(5,1,4,6)            164.8802         estimate D2E/DX2                !
 ! D10   D(2,1,5,9)           -106.9252         estimate D2E/DX2                !
 ! D11   D(3,1,5,9)             15.438          estimate D2E/DX2                !
 ! D12   D(4,1,5,9)            136.5202         estimate D2E/DX2                !
 ! D13   D(1,2,8,13)            93.5308         estimate D2E/DX2                !
 ! D14   D(1,2,8,14)           -27.7655         estimate D2E/DX2                !
 ! D15   D(1,2,8,15)          -144.8802         estimate D2E/DX2                !
 ! D16   D(1,3,7,19)           -61.1012         estimate D2E/DX2                !
 ! D17   D(1,3,7,20)          -176.1751         estimate D2E/DX2                !
 ! D18   D(1,3,7,21)            60.409          estimate D2E/DX2                !
 ! D19   D(1,4,6,16)           160.167          estimate D2E/DX2                !
 ! D20   D(1,4,6,17)            32.6925         estimate D2E/DX2                !
 ! D21   D(1,4,6,18)           -79.742          estimate D2E/DX2                !
 ! D22   D(1,5,9,10)          -100.1289         estimate D2E/DX2                !
 ! D23   D(1,5,9,11)           141.9689         estimate D2E/DX2                !
 ! D24   D(1,5,9,12)            18.35           estimate D2E/DX2                !
 ! D25   D(4,6,16,32)          -14.1998         estimate D2E/DX2                !
 ! D26   D(17,6,16,32)         110.2979         estimate D2E/DX2                !
 ! D27   D(18,6,16,32)        -136.5531         estimate D2E/DX2                !
 ! D28   D(4,6,17,33)           51.0095         estimate D2E/DX2                !
 ! D29   D(16,6,17,33)         -73.6179         estimate D2E/DX2                !
 ! D30   D(18,6,17,33)         169.7166         estimate D2E/DX2                !
 ! D31   D(4,6,18,31)          -96.4424         estimate D2E/DX2                !
 ! D32   D(16,6,18,31)          24.7715         estimate D2E/DX2                !
 ! D33   D(17,6,18,31)         146.349          estimate D2E/DX2                !
 ! D34   D(3,7,19,30)         -162.1837         estimate D2E/DX2                !
 ! D35   D(20,7,19,30)         -41.4662         estimate D2E/DX2                !
 ! D36   D(21,7,19,30)          76.796          estimate D2E/DX2                !
 ! D37   D(3,7,20,28)          -98.427          estimate D2E/DX2                !
 ! D38   D(19,7,20,28)         148.2947         estimate D2E/DX2                !
 ! D39   D(21,7,20,28)          27.0455         estimate D2E/DX2                !
 ! D40   D(3,7,21,29)          -49.8995         estimate D2E/DX2                !
 ! D41   D(19,7,21,29)          66.0156         estimate D2E/DX2                !
 ! D42   D(20,7,21,29)        -176.7753         estimate D2E/DX2                !
 ! D43   D(2,8,13,25)          -58.468          estimate D2E/DX2                !
 ! D44   D(14,8,13,25)          61.2404         estimate D2E/DX2                !
 ! D45   D(15,8,13,25)        -178.1888         estimate D2E/DX2                !
 ! D46   D(2,8,14,27)           80.2918         estimate D2E/DX2                !
 ! D47   D(13,8,14,27)         -41.6247         estimate D2E/DX2                !
 ! D48   D(15,8,14,27)        -163.3756         estimate D2E/DX2                !
 ! D49   D(2,8,15,26)         -174.1994         estimate D2E/DX2                !
 ! D50   D(13,8,15,26)         -52.1897         estimate D2E/DX2                !
 ! D51   D(14,8,15,26)          69.3652         estimate D2E/DX2                !
 ! D52   D(5,9,10,23)          -94.8502         estimate D2E/DX2                !
 ! D53   D(11,9,10,23)          25.9079         estimate D2E/DX2                !
 ! D54   D(12,9,10,23)         148.64           estimate D2E/DX2                !
 ! D55   D(5,9,11,24)          -43.8205         estimate D2E/DX2                !
 ! D56   D(10,9,11,24)        -166.8799         estimate D2E/DX2                !
 ! D57   D(12,9,11,24)          74.2393         estimate D2E/DX2                !
 ! D58   D(5,9,12,22)         -166.4771         estimate D2E/DX2                !
 ! D59   D(10,9,12,22)         -44.4742         estimate D2E/DX2                !
 ! D60   D(11,9,12,22)          72.5545         estimate D2E/DX2                !
 --------------------------------------------------------------------------------
 Trust Radius=3.00D-01 FncErr=1.00D-07 GrdErr=1.00D-06 EigMax=2.50D+02 EigMin=1.00D-04
 Number of steps in this run=    148 maximum allowed number of steps=    198.
 GradGradGradGradGradGradGradGradGradGradGradGradGradGradGradGradGradGrad

                          Input orientation:                          
 ---------------------------------------------------------------------
 Center     Atomic      Atomic             Coordinates (Angstroms)
 Number     Number       Type             X           Y           Z
 ---------------------------------------------------------------------
      1         40           0        0.657790   -0.125060   -0.071640
      2          8           0       -0.222850   -0.906240    1.477300
      3          8           0        0.103020    1.747480   -0.122990
      4          8           0       -0.268300   -0.978850   -1.597050
      5          8           0        2.592060   -0.436300   -0.082840
      6         14           0       -1.831190   -1.332440   -1.953600
      7         14           0       -1.115500    2.841720   -0.082790
      8         14           0       -1.723760   -1.152910    2.115170
      9         14           0        4.216310   -0.261050    0.012520
     10          8           0        4.955660   -0.099720   -1.454750
     11          8           0        4.898770   -1.607040    0.697750
     12          8           0        4.447780    1.129440    0.869850
     13          8           0       -2.319240   -2.624000    1.696270
     14          8           0       -2.724220    0.065080    1.550860
     15          8           0       -1.597340   -1.019570    3.744390
     16          8           0       -2.001440   -1.559650   -3.577820
     17          8           0       -2.825090   -0.186760   -1.301450
     18          8           0       -2.344480   -2.714390   -1.182770
     19          8           0       -2.040460    2.439570   -1.430230
     20          8           0       -0.635650    4.400490   -0.299870
     21          8           0       -1.965510    2.760860    1.313830
     22          1           0        5.335010    1.505160    0.858650
     23          1           0        5.304200   -0.911110   -1.841120
     24          1           0        4.463730   -1.977950    1.473520
     25          1           0       -2.405770   -2.809510    0.743920
     26          1           0       -2.381370   -1.224230    4.265350
     27          1           0       -3.060340   -0.083060    0.645890
     28          1           0       -0.527310    4.927280    0.500150
     29          1           0       -2.269090    1.869320    1.585330
     30          1           0       -2.648540    3.126760   -1.730140
     31          1           0       -2.304520   -3.529520   -1.695620
     32          1           0       -1.271140   -1.263050   -4.132230
     33          1           0       -2.610260    0.754610   -1.489930
 ---------------------------------------------------------------------
                    Distance matrix (angstroms):
                    1          2          3          4          5
     1  Zr   0.000000
     2  O    1.945504   0.000000
     3  O    1.953666   3.115983   0.000000
     4  O    1.978251   3.075543   3.121475   0.000000
     5  O    1.959183   3.252476   3.311469   3.281593   0.000000
     6  Si   3.345827   3.813067   4.071635   1.641578   4.885484
     7  Si   3.456366   4.156670   1.638221   4.196128   4.948880
     8  Si   3.392697   1.649380   4.093745   3.991145   4.896027
     9  Si   3.562112   4.718897   4.579488   4.818473   1.636458
    10  O    4.515011   6.005361   5.360396   5.299328   2.753548
    11  O    4.557865   5.227792   5.909792   5.688527   2.702011
    12  O    4.101731   5.131060   4.499405   5.724674   2.608229
    13  O    4.270002   2.719099   5.318542   4.214123   5.663226
    14  O    3.755882   2.684348   3.691278   4.126823   5.584191
    15  O    4.521929   2.653632   5.050190   5.504452   5.704294
    16  O    4.628483   5.398571   5.225104   2.695283   5.880225
    17  O    3.694143   3.874372   3.701875   2.692947   5.558129
    18  O    4.117386   3.853141   5.198238   2.737563   5.546978
    19  O    3.962783   4.790812   2.604299   3.854086   5.616612
    20  O    4.712290   5.611606   2.759598   5.545712   5.818913
    21  O    4.138812   4.063399   2.714813   5.033803   5.739683
    22  H    5.039786   6.089941   5.328795   6.602867   3.489906
    23  H    5.033692   6.446721   6.088706   5.578254   3.266909
    24  H    4.506207   4.807557   5.953441   5.728762   2.881335
    25  H    4.154132   2.987545   5.273682   3.660633   5.594101
    26  H    5.408711   3.540275   5.853271   6.236426   6.653014
    27  H    3.786965   3.069237   3.734823   3.691708   5.710118
    28  H    5.220876   5.922624   3.301022   6.272775   6.232041
    29  H    3.910208   3.450000   2.925766   4.716225   5.632890
    30  H    4.925117   5.695325   3.472237   4.747556   6.547739
    31  H    4.796138   4.613282   6.009671   3.265245   6.012118
    32  H    4.637260   5.717784   5.198616   2.741094   5.657331
    33  H    3.669539   4.154829   3.196280   2.915671   5.519266
                    6          7          8          9         10
     6  Si   0.000000
     7  Si   4.629876   0.000000
     8  Si   4.074145   4.599791   0.000000
     9  Si   6.448702   6.169640   6.364038   0.000000
    10  O    6.915908   6.884281   7.646449   1.650923   0.000000
    11  O    7.238606   7.521446   6.787725   1.657402   2.628404
    12  O    7.311511   5.898263   6.696854   1.649865   2.678160
    13  O    3.902290   5.872660   1.641396   7.150662   8.320161
    14  O    3.877087   3.600906   1.674176   7.116446   8.248722
    15  O    5.711363   5.457933   1.639549   6.949873   8.415402
    16  O    1.648848   5.689656   5.714252   7.296391   7.418899
    17  O    1.650975   3.685040   3.717481   7.163334   7.782747
    18  O    1.663560   5.795749   3.701340   7.105741   7.759028
    19  O    3.813892   1.683113   5.057279   6.965777   7.442734
    20  O    6.085279   1.645340   6.152776   6.735656   7.269689
    21  O    5.239203   1.636949   4.002272   7.002874   7.984394
    22  H    8.204581   6.654456   7.646595   2.255421   2.841015
    23  H    7.148703   7.641204   8.068638   2.245454   0.963906
    24  H    7.196378   7.535193   6.275144   2.267925   3.513475
    25  H    3.128657   5.855309   2.256056   7.133130   8.146641
    26  H    6.244177   6.086107   2.249625   7.908455   9.371023
    27  H    3.135141   3.587160   2.256060   7.306331   8.286689
    28  H    6.848729   2.243958   6.403787   7.046877   7.691250
    29  H    4.792395   2.249212   3.116406   7.005185   8.081845
    30  H    4.538993   2.268308   5.827281   7.851133   8.264979
    31  H    2.262246   6.678899   4.528540   7.491453   8.033166
    32  H    2.250533   5.768130   6.264743   6.949465   6.877156
    33  H    2.275460   2.927521   4.173878   7.063355   7.614083
                   11         12         13         14         15
    11  O    0.000000
    12  O    2.778729   0.000000
    13  O    7.357372   7.782277   0.000000
    14  O    7.850717   7.282460   2.723289   0.000000
    15  O    7.199068   7.030270   2.700024   2.694049   0.000000
    16  O    8.117613   8.282838   5.389792   5.428215   7.353213
    17  O    8.103827   7.703348   3.896453   2.865182   5.259415
    18  O    7.564869   8.069887   2.880569   3.916936   5.263795
    19  O    8.310010   7.007429   5.957555   3.872032   6.240088
    20  O    8.228941   6.157051   7.494165   5.155881   6.830662
    21  O    8.159439   6.632416   5.410000   2.810526   4.509415
    22  H    3.146742   0.963570   8.737226   8.216092   7.922073
    23  H    2.663560   3.499523   8.576943   8.770063   8.879242
    24  H    0.963666   3.165524   6.817307   7.473057   6.543081
    25  H    7.402997   7.905842   0.974101   3.002637   3.586121
    26  H    8.116326   7.981633   2.926327   3.024619   0.963321
    27  H    8.103866   7.608691   2.847614   0.976674   3.552200
    28  H    8.495806   6.269911   7.852614   5.437959   6.858213
    29  H    8.015678   6.795269   4.494969   1.861079   3.668579
    30  H    9.233927   7.817096   6.702236   4.488271   6.947485
    31  H    7.830168   8.595412   3.510712   4.861783   6.032716
    32  H    7.843139   7.965605   6.076357   6.014390   7.887131
    33  H    8.169998   7.451509   4.653125   3.120071   5.618881
                   16         17         18         19         20
    16  O    0.000000
    17  O    2.783000   0.000000
    18  O    2.680926   2.575652   0.000000
    19  O    4.539540   2.744055   5.168846   0.000000
    20  O    6.937839   5.180702   7.370287   2.663909   0.000000
    21  O    6.526587   4.033241   6.029510   2.763822   2.657243
    22  H    9.104879   8.609057   8.997031   7.778795   6.736014
    23  H    7.537182   8.179320   7.885908   8.083311   8.116056
    24  H    8.215195   8.002232   7.345063   8.381571   8.356619
    25  H    4.516976   3.352340   1.930010   5.693261   7.497128
    26  H    7.859527   5.680008   5.648358   6.780802   7.451594
    27  H    4.597968   1.964238   3.283344   3.422586   5.184188
    28  H    7.802766   5.888884   8.033022   3.493521   0.963990
    29  H    6.203837   3.587492   5.355227   3.077509   3.553720
    30  H    5.078888   3.345797   5.874615   0.965369   2.778450
    31  H    2.741336   3.405937   0.963872   5.980819   8.223035
    32  H    0.963680   3.403891   3.458000   4.647801   6.867788
    33  H    3.175806   0.983796   3.492699   1.779698   4.313672
                   21         22         23         24         25
    21  O    0.000000
    22  H    7.421695   0.000000
    23  H    8.734172   3.623268   0.000000
    24  H    7.988551   3.642698   3.582091   0.000000
    25  H    5.616729   8.862800   8.350449   6.958005   0.000000
    26  H    4.976480   8.865534   9.821151   7.430868   3.861888
    27  H    3.119724   8.546907   8.765638   7.803026   2.805637
    28  H    2.724678   6.797516   8.577578   8.575554   7.965297
    29  H    0.980162   7.647419   8.765048   7.755311   4.755849
    30  H    3.141045   8.548011   8.919797   9.322333   6.435776
    31  H    6.981447   9.499196   8.047972   7.632826   2.545589
    32  H    6.806877   8.730011   6.971954   8.051351   5.239825
    33  H    3.507394   8.319043   8.095470   8.141883   4.211277
                   26         27         28         29         30
    26  H    0.000000
    27  H    3.855355   0.000000
    28  H    7.446835   5.616136   0.000000
    29  H    4.094529   2.306602   3.682734   0.000000
    30  H    7.412718   4.014728   3.565906   3.566157   0.000000
    31  H    6.391669   4.234622   8.916129   6.317702   6.665254
    32  H    8.470742   5.236797   7.767394   6.595312   5.190154
    33  H    6.090275   2.337946   5.070530   3.288799   2.384588
                   31         32         33
    31  H    0.000000
    32  H    3.484513   0.000000
    33  H    4.299948   3.584124   0.000000
 Stoichiometry    H12O16Si4Zr
 Framework group  C1[X(H12O16Si4Zr)]
 Deg. of freedom    93
 Full point group                 C1      NOp   1
 Largest Abelian subgroup         C1      NOp   1
 Largest concise Abelian subgroup C1      NOp   1
                         Standard orientation:                         
 ---------------------------------------------------------------------
 Center     Atomic      Atomic             Coordinates (Angstroms)
 Number     Number       Type             X           Y           Z
 ---------------------------------------------------------------------
      1         40           0        0.657790   -0.125060   -0.071641
      2          8           0       -0.222850   -0.906240    1.477299
      3          8           0        0.103021    1.747480   -0.122991
      4          8           0       -0.268300   -0.978850   -1.597051
      5          8           0        2.592060   -0.436300   -0.082841
      6         14           0       -1.831190   -1.332440   -1.953601
      7         14           0       -1.115499    2.841720   -0.082791
      8         14           0       -1.723760   -1.152910    2.115169
      9         14           0        4.216310   -0.261050    0.012519
     10          8           0        4.955660   -0.099720   -1.454751
     11          8           0        4.898770   -1.607040    0.697749
     12          8           0        4.447780    1.129440    0.869849
     13          8           0       -2.319240   -2.624000    1.696269
     14          8           0       -2.724220    0.065080    1.550859
     15          8           0       -1.597340   -1.019570    3.744389
     16          8           0       -2.001440   -1.559650   -3.577821
     17          8           0       -2.825090   -0.186760   -1.301451
     18          8           0       -2.344480   -2.714390   -1.182771
     19          8           0       -2.040459    2.439570   -1.430231
     20          8           0       -0.635649    4.400490   -0.299871
     21          8           0       -1.965509    2.760860    1.313829
     22          1           0        5.335010    1.505160    0.858649
     23          1           0        5.304200   -0.911110   -1.841121
     24          1           0        4.463730   -1.977950    1.473519
     25          1           0       -2.405770   -2.809510    0.743919
     26          1           0       -2.381370   -1.224230    4.265349
     27          1           0       -3.060340   -0.083060    0.645889
     28          1           0       -0.527309    4.927280    0.500149
     29          1           0       -2.269089    1.869320    1.585329
     30          1           0       -2.648539    3.126760   -1.730141
     31          1           0       -2.304520   -3.529520   -1.695621
     32          1           0       -1.271140   -1.263050   -4.132231
     33          1           0       -2.610260    0.754610   -1.489931
 ---------------------------------------------------------------------
 Rotational constants (GHZ):           0.2124034           0.1338443           0.1240683
 General basis read from cards:  (5D, 7F)
 ======================================================================================================
                                       Pseudopotential Parameters
 ======================================================================================================
  Center     Atomic      Valence      Angular      Power
  Number     Number     Electrons     Momentum     of R      Exponent        Coefficient   SO-Coeffient
 ======================================================================================================
    1         40           12
                                      G and up 
                                                     2        1.0000000        0.00000000    0.00000000
                                      S - G
                                                     2        8.6365280      150.24299400    0.00000000
                                                     2        3.7176390       18.78003600    0.00000000
                                      P - G
                                                     2        7.6267280       33.19279100    0.00000000
                                                     2        7.4532070       66.38903900    0.00000000
                                                     2        3.3583890        4.62072600    0.00000000
                                                     2        3.2297380        9.26027000    0.00000000
                                      D - G
                                                     2        5.9380860       13.99338300    0.00000000
                                                     2        5.8255440       20.99588200    0.00000000
                                                     2        2.2050190        2.28516600    0.00000000
                                                     2        2.2062920        3.44126000    0.00000000
                                      F - G
                                                     2        4.8002150       -5.23932000    0.00000000
                                                     2        4.7989920       -6.98742400    0.00000000
    2          8
                                   No pseudopotential on this center.
    3          8
                                   No pseudopotential on this center.
    4          8
                                   No pseudopotential on this center.
    5          8
                                   No pseudopotential on this center.
    6         14
                                   No pseudopotential on this center.
    7         14
                                   No pseudopotential on this center.
    8         14
                                   No pseudopotential on this center.
    9         14
                                   No pseudopotential on this center.
   10          8
                                   No pseudopotential on this center.
   11          8
                                   No pseudopotential on this center.
   12          8
                                   No pseudopotential on this center.
   13          8
                                   No pseudopotential on this center.
   14          8
                                   No pseudopotential on this center.
   15          8
                                   No pseudopotential on this center.
   16          8
                                   No pseudopotential on this center.
   17          8
                                   No pseudopotential on this center.
   18          8
                                   No pseudopotential on this center.
   19          8
                                   No pseudopotential on this center.
   20          8
                                   No pseudopotential on this center.
   21          8
                                   No pseudopotential on this center.
   22          1
                                   No pseudopotential on this center.
   23          1
                                   No pseudopotential on this center.
   24          1
                                   No pseudopotential on this center.
   25          1
                                   No pseudopotential on this center.
   26          1
                                   No pseudopotential on this center.
   27          1
                                   No pseudopotential on this center.
   28          1
                                   No pseudopotential on this center.
   29          1
                                   No pseudopotential on this center.
   30          1
                                   No pseudopotential on this center.
   31          1
                                   No pseudopotential on this center.
   32          1
                                   No pseudopotential on this center.
   33          1
                                   No pseudopotential on this center.
 ======================================================================================================
 There are   570 symmetry adapted cartesian basis functions of A   symmetry.
 There are   524 symmetry adapted basis functions of A   symmetry.
   524 basis functions,  1074 primitive gaussians,   570 cartesian basis functions
   104 alpha electrons      104 beta electrons
       nuclear repulsion energy      2832.8954027521 Hartrees.
 NAtoms=   33 NActive=   33 NUniq=   33 SFac= 1.00D+00 NAtFMM=   60 NAOKFM=F Big=F
 Integral buffers will be    131072 words long.
 Raffenetti 2 integral format.
 Two-electron integral symmetry is turned on.
 Nuclear repulsion after empirical dispersion term =     2832.8545992116 Hartrees.
 One-electron integrals computed using PRISM.
 PrsmSu:  requested number of processors reduced to:   4 ShMem   1 Linda.
   1 Symmetry operations used in ECPInt.
 ECPInt:  NShTT=   13203 NPrTT=   78401 LenC2=   11524 LenP2D=   44635.
 LDataN:  DoStor=T MaxTD1= 8 Len=  415
 Number of processors reduced to  13 by ecpmxn.
 NBasis=   524 RedAO= T EigKep=  3.16D-05  NBF=   524
 NBsUse=   524 1.00D-06 EigRej= -1.00D+00 NBFU=   524
 Defaulting to unpruned grid for atomic number  40.
 ExpMin= 1.01D-02 ExpMax= 1.61D+04 ExpMxC= 2.43D+03 IAcc=3 IRadAn=         5 AccDes= 0.00D+00
 Harris functional with IExCor=  402 and IRadAn=       5 diagonalized for initial guess.
 HarFok:  IExCor=  402 AccDes= 0.00D+00 IRadAn=         5 IDoV= 1 UseB2=F ITyADJ=14
 ICtDFT=  3500011 ScaDFX=  1.000000  1.000000  1.000000  1.000000
 Defaulting to unpruned grid for atomic number  40.
 FoFCou: FMM=F IPFlag=           0 FMFlag=      100000 FMFlg1=           0
         NFxFlg=           0 DoJE=T BraDBF=F KetDBF=T FulRan=T
         wScrn=  0.000000 ICntrl=       500 IOpCl=  0 I1Cent=   200000004 NGrid=           0
         NMat0=    1 NMatS0=      1 NMatT0=    0 NMatD0=    1 NMtDS0=    0 NMtDT0=    0
 Petite list used in FoFCou.
 Requested convergence on RMS density matrix=1.00D-08 within 128 cycles.
 Requested convergence on MAX density matrix=1.00D-06.
 Requested convergence on             energy=1.00D-06.
 No special actions if energy rises.
 Defaulting to unpruned grid for atomic number  40.
 Defaulting to unpruned grid for atomic number  40.
 Defaulting to unpruned grid for atomic number  40.
 Defaulting to unpruned grid for atomic number  40.
 Defaulting to unpruned grid for atomic number  40.
 Defaulting to unpruned grid for atomic number  40.
 Defaulting to unpruned grid for atomic number  40.
 Defaulting to unpruned grid for atomic number  40.
 Defaulting to unpruned grid for atomic number  40.
 Defaulting to unpruned grid for atomic number  40.
 Defaulting to unpruned grid for atomic number  40.
 Defaulting to unpruned grid for atomic number  40.
 Defaulting to unpruned grid for atomic number  40.
 Defaulting to unpruned grid for atomic number  40.
 Defaulting to unpruned grid for atomic number  40.
 Defaulting to unpruned grid for atomic number  40.
 SCF Done:  E(RB3LYP) =  -2416.94685692     A.U. after   14 cycles
            NFock= 14  Conv=0.25D-08     -V/T= 2.0185

 **********************************************************************

            Population analysis using the SCF Density.

 **********************************************************************

 Orbital symmetries:
       Occupied  (A) (A) (A) (A) (A) (A) (A) (A) (A) (A) (A) (A)
                 (A) (A) (A) (A) (A) (A) (A) (A) (A) (A) (A) (A)
                 (A) (A) (A) (A) (A) (A) (A) (A) (A) (A) (A) (A)
                 (A) (A) (A) (A) (A) (A) (A) (A) (A) (A) (A) (A)
                 (A) (A) (A) (A) (A) (A) (A) (A) (A) (A) (A) (A)
                 (A) (A) (A) (A) (A) (A) (A) (A) (A) (A) (A) (A)
                 (A) (A) (A) (A) (A) (A) (A) (A) (A) (A) (A) (A)
                 (A) (A) (A) (A) (A) (A) (A) (A) (A) (A) (A) (A)
                 (A) (A) (A) (A) (A) (A) (A) (A)
       Virtual   (A) (A) (A) (A) (A) (A) (A) (A) (A) (A) (A) (A)
                 (A) (A) (A) (A) (A) (A) (A) (A) (A) (A) (A) (A)
                 (A) (A) (A) (A) (A) (A) (A) (A) (A) (A) (A) (A)
                 (A) (A) (A) (A) (A) (A) (A) (A) (A) (A) (A) (A)
                 (A) (A) (A) (A) (A) (A) (A) (A) (A) (A) (A) (A)
                 (A) (A) (A) (A) (A) (A) (A) (A) (A) (A) (A) (A)
                 (A) (A) (A) (A) (A) (A) (A) (A) (A) (A) (A) (A)
                 (A) (A) (A) (A) (A) (A) (A) (A) (A) (A) (A) (A)
                 (A) (A) (A) (A) (A) (A) (A) (A) (A) (A) (A) (A)
                 (A) (A) (A) (A) (A) (A) (A) (A) (A) (A) (A) (A)
                 (A) (A) (A) (A) (A) (A) (A) (A) (A) (A) (A) (A)
                 (A) (A) (A) (A) (A) (A) (A) (A) (A) (A) (A) (A)
                 (A) (A) (A) (A) (A) (A) (A) (A) (A) (A) (A) (A)
                 (A) (A) (A) (A) (A) (A) (A) (A) (A) (A) (A) (A)
                 (A) (A) (A) (A) (A) (A) (A) (A) (A) (A) (A) (A)
                 (A) (A) (A) (A) (A) (A) (A) (A) (A) (A) (A) (A)
                 (A) (A) (A) (A) (A) (A) (A) (A) (A) (A) (A) (A)
                 (A) (A) (A) (A) (A) (A) (A) (A) (A) (A) (A) (A)
                 (A) (A) (A) (A) (A) (A) (A) (A) (A) (A) (A) (A)
                 (A) (A) (A) (A) (A) (A) (A) (A) (A) (A) (A) (A)
                 (A) (A) (A) (A) (A) (A) (A) (A) (A) (A) (A) (A)
                 (A) (A) (A) (A) (A) (A) (A) (A) (A) (A) (A) (A)
                 (A) (A) (A) (A) (A) (A) (A) (A) (A) (A) (A) (A)
                 (A) (A) (A) (A) (A) (A) (A) (A) (A) (A) (A) (A)
                 (A) (A) (A) (A) (A) (A) (A) (A) (A) (A) (A) (A)
                 (A) (A) (A) (A) (A) (A) (A) (A) (A) (A) (A) (A)
                 (A) (A) (A) (A) (A) (A) (A) (A) (A) (A) (A) (A)
                 (A) (A) (A) (A) (A) (A) (A) (A) (A) (A) (A) (A)
                 (A) (A) (A) (A) (A) (A) (A) (A) (A) (A) (A) (A)
                 (A) (A) (A) (A) (A) (A) (A) (A) (A) (A) (A) (A)
                 (A) (A) (A) (A) (A) (A) (A) (A) (A) (A) (A) (A)
                 (A) (A) (A) (A) (A) (A) (A) (A) (A) (A) (A) (A)
                 (A) (A) (A) (A) (A) (A) (A) (A) (A) (A) (A) (A)
                 (A) (A) (A) (A) (A) (A) (A) (A) (A) (A) (A) (A)
                 (A) (A) (A) (A) (A) (A) (A) (A) (A) (A) (A) (A)
 The electronic state is 1-A.
 Alpha  occ. eigenvalues --  -66.22805 -66.21755 -66.21491 -66.21038 -19.18590
 Alpha  occ. eigenvalues --  -19.18352 -19.17788 -19.17026 -19.16733 -19.16537
 Alpha  occ. eigenvalues --  -19.16441 -19.16221 -19.16184 -19.16013 -19.15997
 Alpha  occ. eigenvalues --  -19.15502 -19.15334 -19.15254 -19.14896 -19.14707
 Alpha  occ. eigenvalues --   -5.36865  -5.35836  -5.35566  -5.35098  -3.72849
 Alpha  occ. eigenvalues --   -3.72823  -3.72776  -3.71828  -3.71781  -3.71746
 Alpha  occ. eigenvalues --   -3.71535  -3.71527  -3.71487  -3.71063  -3.71054
 Alpha  occ. eigenvalues --   -3.71028  -2.13364  -1.29607  -1.29523  -1.29366
 Alpha  occ. eigenvalues --   -1.05681  -1.04776  -1.04152  -1.03497  -1.02565
 Alpha  occ. eigenvalues --   -1.02170  -1.01472  -1.00920  -1.00763  -1.00665
 Alpha  occ. eigenvalues --   -0.99832  -0.99306  -0.97372  -0.96283  -0.95726
 Alpha  occ. eigenvalues --   -0.95403  -0.60991  -0.59160  -0.58975  -0.58490
 Alpha  occ. eigenvalues --   -0.55541  -0.54532  -0.53866  -0.53041  -0.52990
 Alpha  occ. eigenvalues --   -0.52492  -0.52148  -0.51709  -0.48779  -0.47603
 Alpha  occ. eigenvalues --   -0.47203  -0.46720  -0.43376  -0.42652  -0.41862
 Alpha  occ. eigenvalues --   -0.41395  -0.41111  -0.40527  -0.39831  -0.39332
 Alpha  occ. eigenvalues --   -0.38806  -0.38678  -0.38653  -0.38144  -0.38018
 Alpha  occ. eigenvalues --   -0.37626  -0.37486  -0.37186  -0.36536  -0.36411
 Alpha  occ. eigenvalues --   -0.36085  -0.35631  -0.35469  -0.35091  -0.34900
 Alpha  occ. eigenvalues --   -0.34606  -0.34000  -0.33697  -0.33479  -0.33262
 Alpha  occ. eigenvalues --   -0.32814  -0.32178  -0.32054  -0.31302
 Alpha virt. eigenvalues --   -0.04327  -0.03159  -0.03038  -0.02753  -0.02093
 Alpha virt. eigenvalues --   -0.01172  -0.00556  -0.00132   0.00128   0.00285
 Alpha virt. eigenvalues --    0.00762   0.00931   0.01026   0.01950   0.02345
 Alpha virt. eigenvalues --    0.03238   0.03333   0.03853   0.03941   0.04067
 Alpha virt. eigenvalues --    0.04152   0.04719   0.05569   0.05846   0.06180
 Alpha virt. eigenvalues --    0.06476   0.07092   0.07459   0.07714   0.08663
 Alpha virt. eigenvalues --    0.08797   0.09046   0.09186   0.09679   0.09958
 Alpha virt. eigenvalues --    0.10370   0.10657   0.10859   0.11245   0.11690
 Alpha virt. eigenvalues --    0.11822   0.12556   0.13274   0.13333   0.13639
 Alpha virt. eigenvalues --    0.14035   0.14419   0.14883   0.15073   0.15284
 Alpha virt. eigenvalues --    0.15364   0.15744   0.16185   0.16710   0.16936
 Alpha virt. eigenvalues --    0.17381   0.17512   0.17693   0.18136   0.18411
 Alpha virt. eigenvalues --    0.18512   0.18753   0.19216   0.19695   0.19745
 Alpha virt. eigenvalues --    0.20124   0.20317   0.20643   0.20963   0.21199
 Alpha virt. eigenvalues --    0.21752   0.21955   0.22307   0.22441   0.22769
 Alpha virt. eigenvalues --    0.23345   0.23755   0.24042   0.24167   0.24477
 Alpha virt. eigenvalues --    0.24858   0.25092   0.25595   0.25816   0.26151
 Alpha virt. eigenvalues --    0.26590   0.26687   0.26908   0.27234   0.27443
 Alpha virt. eigenvalues --    0.27945   0.28266   0.28536   0.28825   0.29033
 Alpha virt. eigenvalues --    0.29455   0.29721   0.30064   0.30406   0.30639
 Alpha virt. eigenvalues --    0.30814   0.31352   0.31484   0.31578   0.32141
 Alpha virt. eigenvalues --    0.32345   0.32784   0.33080   0.33575   0.34030
 Alpha virt. eigenvalues --    0.34475   0.34623   0.35335   0.35713   0.36272
 Alpha virt. eigenvalues --    0.36977   0.37544   0.38018   0.38446   0.38805
 Alpha virt. eigenvalues --    0.39335   0.39950   0.40018   0.41122   0.41601
 Alpha virt. eigenvalues --    0.42701   0.43128   0.43901   0.44330   0.44936
 Alpha virt. eigenvalues --    0.45318   0.45650   0.45933   0.46645   0.47466
 Alpha virt. eigenvalues --    0.47889   0.48570   0.48856   0.49396   0.49560
 Alpha virt. eigenvalues --    0.50032   0.50853   0.51064   0.51340   0.53140
 Alpha virt. eigenvalues --    0.54129   0.54434   0.55159   0.56776   0.57295
 Alpha virt. eigenvalues --    0.58241   0.58705   0.59093   0.59360   0.60352
 Alpha virt. eigenvalues --    0.61215   0.61691   0.62133   0.64089   0.65882
 Alpha virt. eigenvalues --    0.66916   0.67958   0.68450   0.68796   0.69473
 Alpha virt. eigenvalues --    0.70071   0.70515   0.72978   0.74431   0.75134
 Alpha virt. eigenvalues --    0.75483   0.77377   0.78570   0.78999   0.80381
 Alpha virt. eigenvalues --    0.81143   0.81502   0.82586   0.84135   0.85412
 Alpha virt. eigenvalues --    0.86703   0.87666   0.89817   0.90586   0.91202
 Alpha virt. eigenvalues --    0.94371   0.95713   0.96278   0.96886   0.97485
 Alpha virt. eigenvalues --    0.98119   0.98794   0.99241   0.99785   1.00372
 Alpha virt. eigenvalues --    1.00737   1.01469   1.02088   1.03225   1.04063
 Alpha virt. eigenvalues --    1.04286   1.05568   1.06377   1.06703   1.07948
 Alpha virt. eigenvalues --    1.09761   1.12338   1.15236   1.16192   1.16456
 Alpha virt. eigenvalues --    1.18704   1.19071   1.19861   1.20603   1.21015
 Alpha virt. eigenvalues --    1.21381   1.21769   1.22353   1.22845   1.22959
 Alpha virt. eigenvalues --    1.23473   1.23960   1.24284   1.25213   1.25713
 Alpha virt. eigenvalues --    1.26041   1.27155   1.27519   1.28127   1.28440
 Alpha virt. eigenvalues --    1.28981   1.29818   1.30117   1.30883   1.31420
 Alpha virt. eigenvalues --    1.32452   1.32660   1.33021   1.33430   1.34473
 Alpha virt. eigenvalues --    1.35264   1.36047   1.36505   1.36880   1.37774
 Alpha virt. eigenvalues --    1.39173   1.39740   1.40216   1.41213   1.41498
 Alpha virt. eigenvalues --    1.42766   1.43697   1.44229   1.45266   1.46366
 Alpha virt. eigenvalues --    1.46978   1.48832   1.51104   1.51413   1.52778
 Alpha virt. eigenvalues --    1.56739   1.57256   1.57733   1.59292   1.59773
 Alpha virt. eigenvalues --    1.60069   1.61195   1.61929   1.62487   1.63065
 Alpha virt. eigenvalues --    1.63224   1.63823   1.65213   1.65395   1.66609
 Alpha virt. eigenvalues --    1.67305   1.68006   1.69278   1.69568   1.70105
 Alpha virt. eigenvalues --    1.71372   1.71467   1.71613   1.72644   1.73269
 Alpha virt. eigenvalues --    1.74088   1.74984   1.75636   1.76067   1.76647
 Alpha virt. eigenvalues --    1.77187   1.77364   1.78500   1.78759   1.79644
 Alpha virt. eigenvalues --    1.80557   1.81446   1.82214   1.82505   1.83052
 Alpha virt. eigenvalues --    1.83352   1.84811   1.85087   1.85918   1.86614
 Alpha virt. eigenvalues --    1.87185   1.88077   1.88656   1.89796   1.90475
 Alpha virt. eigenvalues --    1.91224   1.91404   1.92531   1.92804   1.93931
 Alpha virt. eigenvalues --    1.94766   1.94961   1.95898   1.97272   1.98369
 Alpha virt. eigenvalues --    1.98898   2.00510   2.01170   2.02782   2.03661
 Alpha virt. eigenvalues --    2.05893   2.06545   2.07685   2.09789   2.10411
 Alpha virt. eigenvalues --    2.11219   2.13028   2.14314   2.16157   2.16308
 Alpha virt. eigenvalues --    2.17788   2.18830   2.19080   2.20826   2.26461
 Alpha virt. eigenvalues --    2.32545   2.33471   2.35458   2.39477   2.40434
 Alpha virt. eigenvalues --    2.41170   2.41357   2.41713   2.42744   2.43743
 Alpha virt. eigenvalues --    2.44016   2.45704   2.46692   2.47615   2.49016
 Alpha virt. eigenvalues --    2.50215   2.50310   2.51672   2.52742   2.53335
 Alpha virt. eigenvalues --    2.55445   2.58339   2.59225   2.60068   2.60699
 Alpha virt. eigenvalues --    2.61121   2.61779   2.62074   2.62439   2.62792
 Alpha virt. eigenvalues --    2.63159   2.64033   2.64619   2.64987   2.65966
 Alpha virt. eigenvalues --    2.66296   2.66622   2.67332   2.67560   2.69378
 Alpha virt. eigenvalues --    2.69704   2.70310   2.71219   2.71674   2.72392
 Alpha virt. eigenvalues --    2.72869   2.74347   2.75562   2.76757   2.77476
 Alpha virt. eigenvalues --    2.78942   2.80553   2.81476   2.82460   2.83474
 Alpha virt. eigenvalues --    2.83727   2.84703   2.86671   2.87790   2.88140
 Alpha virt. eigenvalues --    3.14756   3.20382   3.35833   3.41113   3.46764
 Alpha virt. eigenvalues --    3.47853   3.48599   3.48634   3.51092   3.51106
 Alpha virt. eigenvalues --    3.52881   3.54125   3.60309   3.61075   3.62062
 Alpha virt. eigenvalues --    3.66199   4.32692   4.59634   7.89892  31.29230
          Condensed to atoms (all electrons):
               1          2          3          4          5          6
     1  Zr  15.085922  -0.125457  -0.001938  -0.134770  -0.192433  -0.597782
     2  O   -0.125457   9.064316   0.019501  -0.042559  -0.057491   0.088702
     3  O   -0.001938   0.019501   8.828768   0.015824  -0.043910  -0.004144
     4  O   -0.134770  -0.042559   0.015824   8.811056  -0.060076  -0.675509
     5  O   -0.192433  -0.057491  -0.043910  -0.060076   9.429924  -0.007121
     6  Si  -0.597782   0.088702  -0.004144  -0.675509  -0.007121  13.988647
     7  Si  -0.615049  -0.028189  -0.876015  -0.007044  -0.033868   0.084319
     8  Si  -0.588552  -0.999663  -0.020190   0.071496  -0.014228  -0.017242
     9  Si  -0.321174  -0.040765  -0.026524  -0.033209  -1.235027   0.038667
    10  O   -0.014228   0.001027  -0.002030   0.000962   0.130031  -0.002404
    11  O   -0.064361   0.003432   0.002981   0.001225   0.314182  -0.000811
    12  O    0.042356  -0.000010   0.004698   0.002085   0.154278  -0.002969
    13  O   -0.036573   0.186459   0.001656  -0.015603  -0.000668   0.035549
    14  O   -0.017759   0.263331  -0.017658  -0.008812   0.001902   0.029060
    15  O   -0.083261   0.292898  -0.000694   0.001240   0.000578  -0.000111
    16  O   -0.125137   0.004688  -0.000490   0.345045   0.003215  -0.423670
    17  O   -0.081182  -0.039873   0.008015   0.218407   0.001315  -0.452892
    18  O   -0.026513  -0.014471   0.003733   0.198372  -0.000612  -0.451195
    19  O    0.001272   0.008984   0.264949   0.010213   0.002129  -0.007529
    20  O   -0.145823  -0.000576   0.163841  -0.000864   0.001475   0.009037
    21  O    0.036034   0.010309   0.146308   0.003411   0.000210  -0.011879
    22  H   -0.008954  -0.000018  -0.000013  -0.000009   0.005766   0.000086
    23  H   -0.007672  -0.000013  -0.000006  -0.000055  -0.025262   0.000086
    24  H   -0.005223  -0.000191  -0.000012   0.000003  -0.005366   0.000071
    25  H    0.017014  -0.020016  -0.000111  -0.000303   0.000019   0.002595
    26  H    0.007282   0.000603   0.000014  -0.000011  -0.000004  -0.000147
    27  H    0.004352  -0.019191   0.000844  -0.001713   0.000011   0.008785
    28  H    0.005079  -0.000011  -0.018411  -0.000014  -0.000015  -0.000282
    29  H    0.004169  -0.007068  -0.020282  -0.000140  -0.000073   0.000138
    30  H    0.000736  -0.000012   0.000064  -0.000453  -0.000008  -0.000661
    31  H   -0.000116   0.000175  -0.000020  -0.018436  -0.000009   0.063719
    32  H    0.002101  -0.000024   0.000040   0.010439   0.000001   0.022787
    33  H   -0.016040   0.001018  -0.010111  -0.009589  -0.000101   0.053278
               7          8          9         10         11         12
     1  Zr  -0.615049  -0.588552  -0.321174  -0.014228  -0.064361   0.042356
     2  O   -0.028189  -0.999663  -0.040765   0.001027   0.003432  -0.000010
     3  O   -0.876015  -0.020190  -0.026524  -0.002030   0.002981   0.004698
     4  O   -0.007044   0.071496  -0.033209   0.000962   0.001225   0.002085
     5  O   -0.033868  -0.014228  -1.235027   0.130031   0.314182   0.154278
     6  Si   0.084319  -0.017242   0.038667  -0.002404  -0.000811  -0.002969
     7  Si  13.795779   0.182220   0.020054  -0.000245  -0.000872   0.004004
     8  Si   0.182220  13.805438   0.026153  -0.000985   0.001191  -0.000823
     9  Si   0.020054   0.026153  14.264319  -0.069172  -0.182530  -0.213039
    10  O   -0.000245  -0.000985  -0.069172   8.525277   0.014775   0.031573
    11  O   -0.000872   0.001191  -0.182530   0.014775   8.517558  -0.050537
    12  O    0.004004  -0.000823  -0.213039   0.031573  -0.050537   8.601120
    13  O    0.007326  -0.095369   0.000233   0.000000   0.000018   0.000009
    14  O    0.009459  -0.368265  -0.001483  -0.000002   0.000001   0.000017
    15  O   -0.002618  -0.304953  -0.000633   0.000000  -0.000024  -0.000016
    16  O    0.003810  -0.010265  -0.001024   0.000005  -0.000003  -0.000001
    17  O   -0.000719   0.096707   0.002554  -0.000001   0.000002  -0.000006
    18  O   -0.000725   0.074647   0.004178  -0.000002  -0.000001  -0.000001
    19  O   -0.409018  -0.016045   0.001043   0.000007  -0.000002  -0.000022
    20  O   -0.108789   0.009652   0.003158   0.000002  -0.000003  -0.000029
    21  O    0.024440  -0.040163  -0.001810   0.000001   0.000001   0.000024
    22  H   -0.000185   0.000089   0.047288  -0.006525  -0.005074   0.219690
    23  H    0.000060   0.000062   0.081070   0.228562  -0.006139   0.005877
    24  H    0.000054  -0.000092   0.037121   0.007364   0.242493  -0.007433
    25  H   -0.000462   0.057413  -0.000211   0.000000  -0.000000  -0.000000
    26  H   -0.000381   0.046128  -0.000043  -0.000000   0.000000  -0.000000
    27  H    0.001320   0.068411  -0.000008   0.000000  -0.000000  -0.000000
    28  H    0.056619  -0.000069  -0.000135  -0.000000  -0.000000  -0.000004
    29  H    0.048159   0.021918  -0.000057   0.000000   0.000000  -0.000001
    30  H    0.040275   0.000110   0.000023  -0.000000   0.000000   0.000000
    31  H    0.000154  -0.001973  -0.000052   0.000000  -0.000000   0.000000
    32  H   -0.000661   0.000053   0.000008  -0.000000   0.000000  -0.000000
    33  H    0.020633   0.000110   0.000077  -0.000000   0.000000   0.000000
              13         14         15         16         17         18
     1  Zr  -0.036573  -0.017759  -0.083261  -0.125137  -0.081182  -0.026513
     2  O    0.186459   0.263331   0.292898   0.004688  -0.039873  -0.014471
     3  O    0.001656  -0.017658  -0.000694  -0.000490   0.008015   0.003733
     4  O   -0.015603  -0.008812   0.001240   0.345045   0.218407   0.198372
     5  O   -0.000668   0.001902   0.000578   0.003215   0.001315  -0.000612
     6  Si   0.035549   0.029060  -0.000111  -0.423670  -0.452892  -0.451195
     7  Si   0.007326   0.009459  -0.002618   0.003810  -0.000719  -0.000725
     8  Si  -0.095369  -0.368265  -0.304953  -0.010265   0.096707   0.074647
     9  Si   0.000233  -0.001483  -0.000633  -0.001024   0.002554   0.004178
    10  O    0.000000  -0.000002   0.000000   0.000005  -0.000001  -0.000002
    11  O    0.000018   0.000001  -0.000024  -0.000003   0.000002  -0.000001
    12  O    0.000009   0.000017  -0.000016  -0.000001  -0.000006  -0.000001
    13  O    8.628401   0.087087  -0.090631   0.003732  -0.030889  -0.045563
    14  O    0.087087   8.674715   0.055506   0.003668  -0.035865  -0.026857
    15  O   -0.090631   0.055506   8.777218  -0.000174   0.003599   0.001673
    16  O    0.003732   0.003668  -0.000174   8.902234  -0.091625  -0.114948
    17  O   -0.030889  -0.035865   0.003599  -0.091625   8.935619   0.227481
    18  O   -0.045563  -0.026857   0.001673  -0.114948   0.227481   9.013084
    19  O    0.000181  -0.000427   0.000140  -0.001542  -0.030034   0.000163
    20  O    0.000008  -0.000245   0.000038   0.000065  -0.000983   0.000015
    21  O   -0.000252   0.016008  -0.000612  -0.000214  -0.005564   0.000477
    22  H   -0.000000  -0.000000  -0.000000   0.000000   0.000000  -0.000000
    23  H    0.000000   0.000000  -0.000000  -0.000000   0.000000  -0.000000
    24  H   -0.000000   0.000000   0.000002   0.000000  -0.000000  -0.000000
    25  H    0.218359  -0.011958   0.008915  -0.000053   0.000634   0.014926
    26  H   -0.005126  -0.010084   0.217002   0.000000  -0.000003   0.000006
    27  H   -0.009735   0.219286   0.004629   0.000184   0.017922  -0.000259
    28  H   -0.000000  -0.000006  -0.000001  -0.000000   0.000004  -0.000000
    29  H    0.000796   0.017581  -0.002571  -0.000004  -0.000395   0.000006
    30  H    0.000001   0.000001   0.000000   0.000115  -0.000398  -0.000007
    31  H    0.002360   0.000166  -0.000018   0.003785  -0.000753   0.218146
    32  H   -0.000008  -0.000006   0.000000   0.233445  -0.003636   0.003884
    33  H    0.000230   0.002087  -0.000035  -0.000111   0.231007   0.002105
              19         20         21         22         23         24
     1  Zr   0.001272  -0.145823   0.036034  -0.008954  -0.007672  -0.005223
     2  O    0.008984  -0.000576   0.010309  -0.000018  -0.000013  -0.000191
     3  O    0.264949   0.163841   0.146308  -0.000013  -0.000006  -0.000012
     4  O    0.010213  -0.000864   0.003411  -0.000009  -0.000055   0.000003
     5  O    0.002129   0.001475   0.000210   0.005766  -0.025262  -0.005366
     6  Si  -0.007529   0.009037  -0.011879   0.000086   0.000086   0.000071
     7  Si  -0.409018  -0.108789   0.024440  -0.000185   0.000060   0.000054
     8  Si  -0.016045   0.009652  -0.040163   0.000089   0.000062  -0.000092
     9  Si   0.001043   0.003158  -0.001810   0.047288   0.081070   0.037121
    10  O    0.000007   0.000002   0.000001  -0.006525   0.228562   0.007364
    11  O   -0.000002  -0.000003   0.000001  -0.005074  -0.006139   0.242493
    12  O   -0.000022  -0.000029   0.000024   0.219690   0.005877  -0.007433
    13  O    0.000181   0.000008  -0.000252  -0.000000   0.000000  -0.000000
    14  O   -0.000427  -0.000245   0.016008  -0.000000   0.000000   0.000000
    15  O    0.000140   0.000038  -0.000612  -0.000000  -0.000000   0.000002
    16  O   -0.001542   0.000065  -0.000214   0.000000  -0.000000   0.000000
    17  O   -0.030034  -0.000983  -0.005564   0.000000   0.000000  -0.000000
    18  O    0.000163   0.000015   0.000477  -0.000000  -0.000000  -0.000000
    19  O    8.872756   0.032171   0.023445  -0.000000   0.000000  -0.000000
    20  O    0.032171   8.657027  -0.050462   0.000000   0.000000  -0.000000
    21  O    0.023445  -0.050462   8.485541  -0.000000   0.000000   0.000000
    22  H   -0.000000   0.000000  -0.000000   0.361717   0.000057   0.000122
    23  H    0.000000   0.000000   0.000000   0.000057   0.351016   0.000014
    24  H   -0.000000  -0.000000   0.000000   0.000122   0.000014   0.365155
    25  H   -0.000024   0.000000  -0.000019   0.000000   0.000000   0.000000
    26  H    0.000001  -0.000000   0.000039  -0.000000  -0.000000  -0.000000
    27  H    0.000032   0.000192  -0.004018  -0.000000  -0.000000   0.000000
    28  H    0.004618   0.229586  -0.002067  -0.000000   0.000000  -0.000000
    29  H   -0.008570   0.007668   0.206469   0.000000   0.000000  -0.000000
    30  H    0.224186  -0.001481  -0.007146   0.000000   0.000000  -0.000000
    31  H    0.000004  -0.000000  -0.000000  -0.000000  -0.000000   0.000000
    32  H    0.000097  -0.000000   0.000001  -0.000000  -0.000000  -0.000000
    33  H    0.014835  -0.000081   0.001473  -0.000000  -0.000000  -0.000000
              25         26         27         28         29         30
     1  Zr   0.017014   0.007282   0.004352   0.005079   0.004169   0.000736
     2  O   -0.020016   0.000603  -0.019191  -0.000011  -0.007068  -0.000012
     3  O   -0.000111   0.000014   0.000844  -0.018411  -0.020282   0.000064
     4  O   -0.000303  -0.000011  -0.001713  -0.000014  -0.000140  -0.000453
     5  O    0.000019  -0.000004   0.000011  -0.000015  -0.000073  -0.000008
     6  Si   0.002595  -0.000147   0.008785  -0.000282   0.000138  -0.000661
     7  Si  -0.000462  -0.000381   0.001320   0.056619   0.048159   0.040275
     8  Si   0.057413   0.046128   0.068411  -0.000069   0.021918   0.000110
     9  Si  -0.000211  -0.000043  -0.000008  -0.000135  -0.000057   0.000023
    10  O    0.000000  -0.000000   0.000000  -0.000000   0.000000  -0.000000
    11  O   -0.000000   0.000000  -0.000000  -0.000000   0.000000   0.000000
    12  O   -0.000000  -0.000000  -0.000000  -0.000004  -0.000001   0.000000
    13  O    0.218359  -0.005126  -0.009735  -0.000000   0.000796   0.000001
    14  O   -0.011958  -0.010084   0.219286  -0.000006   0.017581   0.000001
    15  O    0.008915   0.217002   0.004629  -0.000001  -0.002571   0.000000
    16  O   -0.000053   0.000000   0.000184  -0.000000  -0.000004   0.000115
    17  O    0.000634  -0.000003   0.017922   0.000004  -0.000395  -0.000398
    18  O    0.014926   0.000006  -0.000259  -0.000000   0.000006  -0.000007
    19  O   -0.000024   0.000001   0.000032   0.004618  -0.008570   0.224186
    20  O    0.000000  -0.000000   0.000192   0.229586   0.007668  -0.001481
    21  O   -0.000019   0.000039  -0.004018  -0.002067   0.206469  -0.007146
    22  H    0.000000  -0.000000  -0.000000  -0.000000   0.000000   0.000000
    23  H    0.000000  -0.000000  -0.000000   0.000000   0.000000   0.000000
    24  H    0.000000  -0.000000   0.000000  -0.000000  -0.000000  -0.000000
    25  H    0.298892  -0.000012   0.000114   0.000000   0.000001   0.000000
    26  H   -0.000012   0.366006   0.000036   0.000000   0.000021  -0.000000
    27  H    0.000114   0.000036   0.283363  -0.000000  -0.001496   0.000009
    28  H    0.000000   0.000000  -0.000000   0.349181  -0.000017  -0.000016
    29  H    0.000001   0.000021  -0.001496  -0.000017   0.285940   0.000155
    30  H    0.000000  -0.000000   0.000009  -0.000016   0.000155   0.334251
    31  H   -0.000494   0.000000   0.000013  -0.000000   0.000000  -0.000000
    32  H   -0.000001   0.000000  -0.000000   0.000000  -0.000000  -0.000000
    33  H    0.000006  -0.000000  -0.002410  -0.000002   0.000100  -0.001157
              31         32         33
     1  Zr  -0.000116   0.002101  -0.016040
     2  O    0.000175  -0.000024   0.001018
     3  O   -0.000020   0.000040  -0.010111
     4  O   -0.018436   0.010439  -0.009589
     5  O   -0.000009   0.000001  -0.000101
     6  Si   0.063719   0.022787   0.053278
     7  Si   0.000154  -0.000661   0.020633
     8  Si  -0.001973   0.000053   0.000110
     9  Si  -0.000052   0.000008   0.000077
    10  O    0.000000  -0.000000  -0.000000
    11  O   -0.000000   0.000000   0.000000
    12  O    0.000000  -0.000000   0.000000
    13  O    0.002360  -0.000008   0.000230
    14  O    0.000166  -0.000006   0.002087
    15  O   -0.000018   0.000000  -0.000035
    16  O    0.003785   0.233445  -0.000111
    17  O   -0.000753  -0.003636   0.231007
    18  O    0.218146   0.003884   0.002105
    19  O    0.000004   0.000097   0.014835
    20  O   -0.000000  -0.000000  -0.000081
    21  O   -0.000000   0.000001   0.001473
    22  H   -0.000000  -0.000000  -0.000000
    23  H   -0.000000  -0.000000  -0.000000
    24  H    0.000000  -0.000000  -0.000000
    25  H   -0.000494  -0.000001   0.000006
    26  H    0.000000   0.000000  -0.000000
    27  H    0.000013  -0.000000  -0.002410
    28  H   -0.000000   0.000000  -0.000002
    29  H    0.000000  -0.000000   0.000100
    30  H   -0.000000  -0.000000  -0.001157
    31  H    0.331391   0.000001  -0.000038
    32  H    0.000001   0.349960   0.000157
    33  H   -0.000038   0.000157   0.269256
 Mulliken charges:
               1
     1  Zr   0.003684
     2  O   -0.549847
     3  O   -0.418679
     4  O   -0.680609
     5  O   -0.368762
     6  Si   2.230819
     7  Si   1.786156
     8  Si   2.017075
     9  Si   1.600949
    10  O   -0.843990
    11  O   -0.787505
    12  O   -0.790844
    13  O   -0.841988
    14  O   -0.880448
    15  O   -0.877087
    16  O   -0.734729
    17  O   -0.968447
    18  O   -1.081740
    19  O   -0.988016
    20  O   -0.804602
    21  O   -0.829984
    22  H    0.385963
    23  H    0.372344
    24  H    0.365919
    25  H    0.414775
    26  H    0.378673
    27  H    0.429329
    28  H    0.375963
    29  H    0.447552
    30  H    0.411414
    31  H    0.401996
    32  H    0.381363
    33  H    0.443304
 Sum of Mulliken charges =  -0.00000
 Mulliken charges with hydrogens summed into heavy atoms:
               1
     1  Zr   0.003684
     2  O   -0.549847
     3  O   -0.418679
     4  O   -0.680609
     5  O   -0.368762
     6  Si   2.230819
     7  Si   1.786156
     8  Si   2.017075
     9  Si   1.600949
    10  O   -0.471646
    11  O   -0.421586
    12  O   -0.404881
    13  O   -0.427213
    14  O   -0.451119
    15  O   -0.498414
    16  O   -0.353366
    17  O   -0.525143
    18  O   -0.679744
    19  O   -0.576602
    20  O   -0.428639
    21  O   -0.382432
 Electronic spatial extent (au):  <R**2>=           9869.0465
 Charge=             -0.0000 electrons
 Dipole moment (field-independent basis, Debye):
    X=              1.0778    Y=             -0.7778    Z=             -2.4094  Tot=              2.7517
 Quadrupole moment (field-independent basis, Debye-Ang):
   XX=           -160.2089   YY=           -154.6521   ZZ=           -157.7992
   XY=             -4.9207   XZ=              2.2317   YZ=              5.7265
 Traceless Quadrupole moment (field-independent basis, Debye-Ang):
   XX=             -2.6555   YY=              2.9013   ZZ=             -0.2458
   XY=             -4.9207   XZ=              2.2317   YZ=              5.7265
 Octapole moment (field-independent basis, Debye-Ang**2):
  XXX=             74.3012  YYY=              6.7154  ZZZ=            -18.6010  XYY=             -2.1178
  XXY=             20.2131  XXZ=             19.0959  XZZ=              5.3245  YZZ=            -17.2352
  YYZ=            -15.7107  XYZ=             28.1115
 Hexadecapole moment (field-independent basis, Debye-Ang**3):
 XXXX=          -6031.4753 YYYY=          -2835.2009 ZZZZ=          -2261.4316 XXXY=             56.9508
 XXXZ=            -24.5536 YYYX=              4.5645 YYYZ=            217.6577 ZZZX=           -183.7200
 ZZZY=            -55.1162 XXYY=          -1482.7289 XXZZ=          -1362.5993 YYZZ=           -924.5022
 XXYZ=             -7.2510 YYXZ=            130.0718 ZZXY=            -60.2284
 N-N= 2.832854599212D+03 E-N=-1.137831022804D+04  KE= 2.373154970572D+03
 PrsmSu:  requested number of processors reduced to:   2 ShMem   1 Linda.
 PrsmSu:  requested number of processors reduced to:  10 ShMem   1 Linda.
   1 Symmetry operations used in ECPInt.
 ECPInt:  NShTT=   13203 NPrTT=   78401 LenC2=   11524 LenP2D=   44635.
 LDataN:  DoStor=T MaxTD1= 9 Len=  602
 Number of processors reduced to  14 by ecpmxn.
 Calling FoFJK, ICntrl=      2127 FMM=F ISym2X=0 I1Cent= 0 IOpClX= 0 NMat=1 NMatS=1 NMatT=0.
 CoulSu:  requested number of processors reduced to:  10 ShMem   1 Linda.
 Defaulting to unpruned grid for atomic number  40.
 Defaulting to unpruned grid for atomic number  40.
 Defaulting to unpruned grid for atomic number  40.
 Defaulting to unpruned grid for atomic number  40.
 Defaulting to unpruned grid for atomic number  40.
 Defaulting to unpruned grid for atomic number  40.
 Defaulting to unpruned grid for atomic number  40.
 Defaulting to unpruned grid for atomic number  40.
 Defaulting to unpruned grid for atomic number  40.
 Defaulting to unpruned grid for atomic number  40.
 Defaulting to unpruned grid for atomic number  40.
 Defaulting to unpruned grid for atomic number  40.
 Defaulting to unpruned grid for atomic number  40.
 Defaulting to unpruned grid for atomic number  40.
 Defaulting to unpruned grid for atomic number  40.
 Defaulting to unpruned grid for atomic number  40.
 ***** Axes restored to original set *****
 -------------------------------------------------------------------
 Center     Atomic                   Forces (Hartrees/Bohr)
 Number     Number              X              Y              Z
 -------------------------------------------------------------------
      1       40          -0.000010109   -0.000012388    0.000001372
      2        8          -0.000004668    0.000002167   -0.000003780
      3        8           0.000007826    0.000006358   -0.000001719
      4        8           0.000008568   -0.000005279    0.000005154
      5        8           0.000008143    0.000005931   -0.000010407
      6       14          -0.000018696    0.000011476    0.000002336
      7       14           0.000010109   -0.000006991   -0.000002492
      8       14          -0.000001244   -0.000004570    0.000008041
      9       14          -0.000014752    0.000016923    0.000013764
     10        8           0.000010543    0.000004289   -0.000006144
     11        8           0.000008266   -0.000021387   -0.000006124
     12        8          -0.000002628   -0.000006206    0.000000243
     13        8          -0.000002571    0.000003256    0.000001387
     14        8           0.000000886    0.000000071    0.000000810
     15        8          -0.000002297   -0.000002228   -0.000009939
     16        8           0.000003838   -0.000001631   -0.000001480
     17        8           0.000010527   -0.000003783   -0.000006058
     18        8          -0.000006399    0.000003892    0.000003273
     19        8          -0.000000315    0.000002652   -0.000000138
     20        8           0.000001177    0.000002397    0.000003395
     21        8          -0.000005370    0.000003672   -0.000000682
     22        1           0.000002927   -0.000002777   -0.000000204
     23        1          -0.000007683   -0.000007538   -0.000001163
     24        1          -0.000000030    0.000006662    0.000007390
     25        1           0.000000794    0.000000363   -0.000002793
     26        1           0.000000064    0.000003750    0.000002987
     27        1          -0.000001868    0.000002155   -0.000002374
     28        1           0.000002429   -0.000000274   -0.000000864
     29        1           0.000002860   -0.000000898    0.000002734
     30        1           0.000001502    0.000001137    0.000000399
     31        1           0.000004272   -0.000003400   -0.000002268
     32        1          -0.000004652    0.000001231    0.000001283
     33        1          -0.000001449    0.000000968    0.000004060
 -------------------------------------------------------------------
 Cartesian Forces:  Max     0.000021387 RMS     0.000006172

 GradGradGradGradGradGradGradGradGradGradGradGradGradGradGradGradGradGrad
 Berny optimization.
 FormGI is forming the generalized inverse of G from B-inverse, IUseBI=4.
 Internal  Forces:  Max     0.000023227 RMS     0.000005000
 Search for a local minimum.
 Step number   1 out of a maximum of  148
 All quantities printed in internal units (Hartrees-Bohrs-Radians)
 Mixed Optimization -- En-DIIS/RFO-DIIS
 Second derivative matrix not updated -- first step.
 ITU=  0
     Eigenvalues ---    0.00230   0.00230   0.00230   0.00230   0.03240
     Eigenvalues ---    0.03358   0.03498   0.03580   0.03665   0.03666
     Eigenvalues ---    0.03680   0.03686   0.03693   0.03739   0.03789
     Eigenvalues ---    0.03792   0.03816   0.03834   0.03850   0.03857
     Eigenvalues ---    0.08405   0.09407   0.11077   0.11224   0.11819
     Eigenvalues ---    0.11833   0.11884   0.12136   0.12177   0.12239
     Eigenvalues ---    0.12563   0.12783   0.12895   0.13099   0.13313
     Eigenvalues ---    0.16000   0.16000   0.16000   0.16000   0.16000
     Eigenvalues ---    0.16000   0.16000   0.16000   0.16000   0.16000
     Eigenvalues ---    0.16000   0.16000   0.19173   0.19893   0.20028
     Eigenvalues ---    0.20179   0.20203   0.20204   0.20208   0.20515
     Eigenvalues ---    0.20653   0.20795   0.20989   0.21175   0.21186
     Eigenvalues ---    0.21263   0.25000   0.25000   0.25000   0.38002
     Eigenvalues ---    0.39187   0.40659   0.41547   0.42502   0.42510
     Eigenvalues ---    0.42670   0.42743   0.42824   0.43363   0.43951
     Eigenvalues ---    0.43980   0.44273   0.44485   0.44689   0.44768
     Eigenvalues ---    0.50655   0.51353   0.52036   0.52548   0.54334
     Eigenvalues ---    0.54624   0.54642   0.54649   0.54689   0.54692
     Eigenvalues ---    0.54712   0.547651000.000001000.000001000.00000
     Eigenvalues --- 1000.000001000.000001000.000001000.000001000.00000
     Eigenvalues --- 1000.000001000.000001000.000001000.000001000.00000
     Eigenvalues --- 1000.000001000.000001000.000001000.000001000.00000
     Eigenvalues --- 1000.000001000.000001000.000001000.000001000.00000
     Eigenvalues --- 1000.000001000.000001000.000001000.000001000.00000
     Eigenvalues --- 1000.000001000.000001000.000001000.000001000.00000
     Eigenvalues --- 1000.000001000.000001000.000001000.000001000.00000
     Eigenvalues --- 1000.000001000.000001000.000001000.000001000.00000
     Eigenvalues --- 1000.000001000.000001000.00000
 RFO step:  Lambda=-3.05817008D-08 EMin= 2.30000000D-03
 Linear search not attempted -- first point.
 Iteration  1 RMS(Cart)=  0.00098442 RMS(Int)=  0.00000018
 Iteration  2 RMS(Cart)=  0.00000032 RMS(Int)=  0.00000000
 Iteration  1 RMS(Cart)=  0.00000000 RMS(Int)=  0.00000000
 Variable       Old X    -DE/DX   Delta X   Delta X   Delta X     New X
                                 (Linear)    (Quad)   (Total)
    R1        3.67647  -0.00000   0.00000  -0.00000  -0.00000   3.67646
    R2        3.69189   0.00000   0.00000   0.00000   0.00000   3.69190
    R3        3.73835  -0.00000   0.00000  -0.00002  -0.00002   3.73833
    R4        3.70232   0.00000   0.00000   0.00002   0.00002   3.70234
    R5        3.11688   0.00000   0.00000   0.00000   0.00000   3.11688
    R6        3.09579  -0.00000   0.00000  -0.00001  -0.00001   3.09578
    R7        3.10213   0.00001   0.00000   0.00002   0.00002   3.10215
    R8        3.09246  -0.00000   0.00000  -0.00000  -0.00000   3.09245
    R9        3.11587   0.00000   0.00000   0.00000   0.00000   3.11587
   R10        3.11989  -0.00001   0.00000  -0.00002  -0.00002   3.11987
   R11        3.14367   0.00000   0.00000   0.00000   0.00000   3.14368
   R12        3.18062   0.00000   0.00000   0.00000   0.00000   3.18062
   R13        3.10924   0.00000   0.00000   0.00000   0.00000   3.10925
   R14        3.09339   0.00000   0.00000   0.00001   0.00001   3.09339
   R15        3.10179  -0.00000   0.00000  -0.00000  -0.00000   3.10178
   R16        3.16373   0.00000   0.00000   0.00000   0.00000   3.16374
   R17        3.09830  -0.00001   0.00000  -0.00002  -0.00002   3.09828
   R18        3.11979   0.00001   0.00000   0.00002   0.00002   3.11981
   R19        3.13204   0.00001   0.00000   0.00003   0.00003   3.13207
   R20        3.11779  -0.00000   0.00000  -0.00001  -0.00001   3.11778
   R21        1.82152   0.00000   0.00000   0.00000   0.00000   1.82152
   R22        1.82107   0.00000   0.00000   0.00000   0.00000   1.82107
   R23        1.82088   0.00000   0.00000   0.00000   0.00000   1.82089
   R24        1.84078   0.00000   0.00000   0.00000   0.00000   1.84079
   R25        1.84565   0.00000   0.00000   0.00001   0.00001   1.84565
   R26        1.82041   0.00000   0.00000   0.00000   0.00000   1.82041
   R27        1.82109  -0.00000   0.00000  -0.00001  -0.00001   1.82109
   R28        1.85910  -0.00000   0.00000  -0.00000  -0.00000   1.85910
   R29        1.82145   0.00001   0.00000   0.00001   0.00001   1.82146
   R30        1.82428  -0.00000   0.00000  -0.00000  -0.00000   1.82428
   R31        1.82168  -0.00000   0.00000  -0.00000  -0.00000   1.82168
   R32        1.85224   0.00000   0.00000   0.00000   0.00000   1.85224
    A1        1.85172   0.00000   0.00000   0.00001   0.00001   1.85174
    A2        1.80155  -0.00002   0.00000  -0.00008  -0.00008   1.80147
    A3        1.96889   0.00002   0.00000   0.00010   0.00010   1.96899
    A4        1.83430   0.00001   0.00000   0.00004   0.00004   1.83435
    A5        2.01802  -0.00002   0.00000  -0.00013  -0.00013   2.01790
    A6        1.97057   0.00001   0.00000   0.00005   0.00005   1.97062
    A7        2.46524  -0.00001   0.00000  -0.00003  -0.00003   2.46521
    A8        2.58826   0.00000   0.00000   0.00001   0.00001   2.58826
    A9        2.35483  -0.00002   0.00000  -0.00006  -0.00006   2.35477
   A10        2.86714  -0.00000   0.00000   0.00000   0.00000   2.86714
   A11        1.91978   0.00000   0.00000   0.00001   0.00001   1.91978
   A12        1.91546  -0.00000   0.00000  -0.00001  -0.00001   1.91546
   A13        1.95201  -0.00000   0.00000  -0.00003  -0.00003   1.95199
   A14        2.00708   0.00000   0.00000   0.00002   0.00002   2.00710
   A15        1.88610  -0.00000   0.00000  -0.00000  -0.00000   1.88610
   A16        1.78001   0.00000   0.00000   0.00000   0.00000   1.78001
   A17        1.80238   0.00000   0.00000   0.00001   0.00001   1.80240
   A18        1.99614   0.00000   0.00000   0.00000   0.00000   1.99615
[...]
 Alpha virt. eigenvalues --    3.14758   3.20381   3.35834   3.41112   3.46764
 Alpha virt. eigenvalues --    3.47853   3.48599   3.48632   3.51085   3.51106
 Alpha virt. eigenvalues --    3.52875   3.54125   3.60308   3.61079   3.62058
 Alpha virt. eigenvalues --    3.66204   4.32687   4.59660   7.89897  31.29231
          Condensed to atoms (all electrons):
               1          2          3          4          5          6
     1  Zr  15.086202  -0.125968  -0.001628  -0.134950  -0.192706  -0.597447
     2  O   -0.125968   9.064371   0.019523  -0.042544  -0.057481   0.088813
     3  O   -0.001628   0.019523   8.828670   0.015807  -0.043913  -0.004183
     4  O   -0.134950  -0.042544   0.015807   8.810855  -0.060070  -0.675103
     5  O   -0.192706  -0.057481  -0.043913  -0.060070   9.429707  -0.007088
     6  Si  -0.597447   0.088813  -0.004183  -0.675103  -0.007088  13.987592
     7  Si  -0.615186  -0.028164  -0.876104  -0.007011  -0.033883   0.084303
     8  Si  -0.588013  -0.999473  -0.020247   0.071523  -0.014230  -0.017505
     9  Si  -0.320931  -0.040678  -0.026554  -0.033172  -1.234417   0.038658
    10  O   -0.014206   0.001025  -0.002031   0.000959   0.129962  -0.002406
    11  O   -0.064342   0.003429   0.002985   0.001223   0.314017  -0.000810
    12  O    0.042302  -0.000014   0.004697   0.002083   0.154212  -0.002967
    13  O   -0.036690   0.186459   0.001653  -0.015603  -0.000671   0.035572
    14  O   -0.017937   0.263323  -0.017653  -0.008826   0.001902   0.029127
    15  O   -0.083267   0.292921  -0.000690   0.001240   0.000579  -0.000106
    16  O   -0.125141   0.004690  -0.000493   0.344982   0.003215  -0.423532
    17  O   -0.081219  -0.039904   0.007984   0.218361   0.001307  -0.452818
    18  O   -0.026678  -0.014463   0.003732   0.198401  -0.000610  -0.451040
    19  O    0.001133   0.008987   0.264949   0.010221   0.002130  -0.007494
    20  O   -0.145834  -0.000575   0.163791  -0.000863   0.001477   0.009040
    21  O    0.036059   0.010313   0.146342   0.003410   0.000211  -0.011878
    22  H   -0.008952  -0.000018  -0.000013  -0.000009   0.005774   0.000086
    23  H   -0.007669  -0.000013  -0.000006  -0.000056  -0.025275   0.000086
    24  H   -0.005232  -0.000191  -0.000011   0.000003  -0.005384   0.000071
    25  H    0.017040  -0.020017  -0.000111  -0.000304   0.000019   0.002593
    26  H    0.007283   0.000602   0.000014  -0.000011  -0.000004  -0.000148
    27  H    0.004362  -0.019189   0.000844  -0.001712   0.000011   0.008783
    28  H    0.005079  -0.000011  -0.018408  -0.000014  -0.000015  -0.000282
    29  H    0.004175  -0.007072  -0.020281  -0.000140  -0.000073   0.000138
    30  H    0.000746  -0.000012   0.000063  -0.000453  -0.000008  -0.000666
    31  H   -0.000119   0.000175  -0.000020  -0.018444  -0.000009   0.063739
    32  H    0.002101  -0.000024   0.000040   0.010430   0.000001   0.022804
    33  H   -0.016031   0.001019  -0.010109  -0.009580  -0.000101   0.053258
               7          8          9         10         11         12
     1  Zr  -0.615186  -0.588013  -0.320931  -0.014206  -0.064342   0.042302
     2  O   -0.028164  -0.999473  -0.040678   0.001025   0.003429  -0.000014
     3  O   -0.876104  -0.020247  -0.026554  -0.002031   0.002985   0.004697
     4  O   -0.007011   0.071523  -0.033172   0.000959   0.001223   0.002083
     5  O   -0.033883  -0.014230  -1.234417   0.129962   0.314017   0.154212
     6  Si   0.084303  -0.017505   0.038658  -0.002406  -0.000810  -0.002967
     7  Si  13.795989   0.182218   0.020053  -0.000247  -0.000870   0.004007
     8  Si   0.182218  13.804838   0.026130  -0.000985   0.001190  -0.000821
     9  Si   0.020053   0.026130  14.262923  -0.068941  -0.182212  -0.212834
    10  O   -0.000247  -0.000985  -0.068941   8.525099   0.014767   0.031536
    11  O   -0.000870   0.001190  -0.182212   0.014767   8.517431  -0.050650
    12  O    0.004007  -0.000821  -0.212834   0.031536  -0.050650   8.601050
    13  O    0.007327  -0.095285   0.000235   0.000000   0.000018   0.000009
    14  O    0.009483  -0.368147  -0.001480  -0.000002   0.000001   0.000017
    15  O   -0.002618  -0.305023  -0.000632   0.000000  -0.000024  -0.000016
    16  O    0.003811  -0.010263  -0.001024   0.000005  -0.000003  -0.000001
    17  O   -0.000664   0.096746   0.002553  -0.000001   0.000002  -0.000006
    18  O   -0.000724   0.074673   0.004178  -0.000002  -0.000001  -0.000001
    19  O   -0.408890  -0.016035   0.001046   0.000007  -0.000002  -0.000022
    20  O   -0.108766   0.009655   0.003160   0.000002  -0.000003  -0.000028
    21  O    0.024366  -0.040171  -0.001811   0.000001   0.000001   0.000024
    22  H   -0.000185   0.000089   0.047279  -0.006529  -0.005076   0.219702
    23  H    0.000060   0.000062   0.081087   0.228568  -0.006151   0.005884
    24  H    0.000054  -0.000091   0.037172   0.007365   0.242474  -0.007442
    25  H   -0.000462   0.057407  -0.000210   0.000000  -0.000000  -0.000000
    26  H   -0.000381   0.046123  -0.000043  -0.000000   0.000000  -0.000000
    27  H    0.001314   0.068400  -0.000008   0.000000  -0.000000  -0.000000
    28  H    0.056617  -0.000069  -0.000135  -0.000000  -0.000000  -0.000004
    29  H    0.048157   0.021924  -0.000057   0.000000   0.000000  -0.000001
    30  H    0.040262   0.000109   0.000023  -0.000000   0.000000   0.000000
    31  H    0.000154  -0.001974  -0.000052   0.000000  -0.000000   0.000000
    32  H   -0.000661   0.000053   0.000008  -0.000000   0.000000  -0.000000
    33  H    0.020620   0.000111   0.000077  -0.000000   0.000000   0.000000
              13         14         15         16         17         18
     1  Zr  -0.036690  -0.017937  -0.083267  -0.125141  -0.081219  -0.026678
     2  O    0.186459   0.263323   0.292921   0.004690  -0.039904  -0.014463
     3  O    0.001653  -0.017653  -0.000690  -0.000493   0.007984   0.003732
     4  O   -0.015603  -0.008826   0.001240   0.344982   0.218361   0.198401
     5  O   -0.000671   0.001902   0.000579   0.003215   0.001307  -0.000610
     6  Si   0.035572   0.029127  -0.000106  -0.423532  -0.452818  -0.451040
     7  Si   0.007327   0.009483  -0.002618   0.003811  -0.000664  -0.000724
     8  Si  -0.095285  -0.368147  -0.305023  -0.010263   0.096746   0.074673
     9  Si   0.000235  -0.001480  -0.000632  -0.001024   0.002553   0.004178
    10  O    0.000000  -0.000002   0.000000   0.000005  -0.000001  -0.000002
    11  O    0.000018   0.000001  -0.000024  -0.000003   0.000002  -0.000001
    12  O    0.000009   0.000017  -0.000016  -0.000001  -0.000006  -0.000001
    13  O    8.628379   0.087079  -0.090695   0.003731  -0.030891  -0.045548
    14  O    0.087079   8.674723   0.055524   0.003669  -0.035899  -0.026864
    15  O   -0.090695   0.055524   8.777360  -0.000174   0.003600   0.001673
    16  O    0.003731   0.003669  -0.000174   8.902293  -0.091695  -0.115002
    17  O   -0.030891  -0.035899   0.003600  -0.091695   8.935741   0.227515
    18  O   -0.045548  -0.026864   0.001673  -0.115002   0.227515   9.012967
    19  O    0.000181  -0.000430   0.000140  -0.001544  -0.030051   0.000164
    20  O    0.000008  -0.000245   0.000038   0.000065  -0.000983   0.000015
    21  O   -0.000252   0.016004  -0.000612  -0.000214  -0.005573   0.000477
    22  H   -0.000000  -0.000000  -0.000000   0.000000   0.000000  -0.000000
    23  H    0.000000   0.000000  -0.000000  -0.000000   0.000000  -0.000000
    24  H   -0.000000   0.000000   0.000002   0.000000  -0.000000  -0.000000
    25  H    0.218354  -0.011960   0.008915  -0.000053   0.000631   0.014922
    26  H   -0.005122  -0.010084   0.217005   0.000000  -0.000003   0.000006
    27  H   -0.009734   0.219292   0.004631   0.000184   0.017921  -0.000258
    28  H   -0.000000  -0.000006  -0.000001  -0.000000   0.000004  -0.000000
    29  H    0.000796   0.017576  -0.002571  -0.000004  -0.000394   0.000006
    30  H    0.000001   0.000001   0.000000   0.000115  -0.000396  -0.000007
    31  H    0.002359   0.000166  -0.000018   0.003778  -0.000749   0.218145
    32  H   -0.000008  -0.000006   0.000000   0.233433  -0.003637   0.003886
    33  H    0.000230   0.002087  -0.000035  -0.000106   0.231013   0.002102
              19         20         21         22         23         24
     1  Zr   0.001133  -0.145834   0.036059  -0.008952  -0.007669  -0.005232
     2  O    0.008987  -0.000575   0.010313  -0.000018  -0.000013  -0.000191
     3  O    0.264949   0.163791   0.146342  -0.000013  -0.000006  -0.000011
     4  O    0.010221  -0.000863   0.003410  -0.000009  -0.000056   0.000003
     5  O    0.002130   0.001477   0.000211   0.005774  -0.025275  -0.005384
     6  Si  -0.007494   0.009040  -0.011878   0.000086   0.000086   0.000071
     7  Si  -0.408890  -0.108766   0.024366  -0.000185   0.000060   0.000054
     8  Si  -0.016035   0.009655  -0.040171   0.000089   0.000062  -0.000091
     9  Si   0.001046   0.003160  -0.001811   0.047279   0.081087   0.037172
    10  O    0.000007   0.000002   0.000001  -0.006529   0.228568   0.007365
    11  O   -0.000002  -0.000003   0.000001  -0.005076  -0.006151   0.242474
    12  O   -0.000022  -0.000028   0.000024   0.219702   0.005884  -0.007442
    13  O    0.000181   0.000008  -0.000252  -0.000000   0.000000  -0.000000
    14  O   -0.000430  -0.000245   0.016004  -0.000000   0.000000   0.000000
    15  O    0.000140   0.000038  -0.000612  -0.000000  -0.000000   0.000002
    16  O   -0.001544   0.000065  -0.000214   0.000000  -0.000000   0.000000
    17  O   -0.030051  -0.000983  -0.005573   0.000000   0.000000  -0.000000
    18  O    0.000164   0.000015   0.000477  -0.000000  -0.000000  -0.000000
    19  O    8.872698   0.032153   0.023454  -0.000000   0.000000  -0.000000
    20  O    0.032153   8.657053  -0.050453   0.000000   0.000000  -0.000000
    21  O    0.023454  -0.050453   8.485606  -0.000000   0.000000   0.000000
    22  H   -0.000000   0.000000  -0.000000   0.361706   0.000057   0.000122
    23  H    0.000000   0.000000   0.000000   0.000057   0.351025   0.000014
    24  H   -0.000000  -0.000000   0.000000   0.000122   0.000014   0.365191
    25  H   -0.000024   0.000000  -0.000019   0.000000   0.000000   0.000000
    26  H    0.000001  -0.000000   0.000039  -0.000000  -0.000000  -0.000000
    27  H    0.000031   0.000192  -0.004018  -0.000000  -0.000000   0.000000
    28  H    0.004617   0.229588  -0.002067  -0.000000   0.000000  -0.000000
    29  H   -0.008568   0.007667   0.206459   0.000000   0.000000  -0.000000
    30  H    0.224205  -0.001481  -0.007146   0.000000   0.000000  -0.000000
    31  H    0.000004  -0.000000  -0.000000  -0.000000  -0.000000   0.000000
    32  H    0.000097  -0.000000   0.000001  -0.000000  -0.000000  -0.000000
    33  H    0.014847  -0.000081   0.001475  -0.000000  -0.000000  -0.000000
              25         26         27         28         29         30
     1  Zr   0.017040   0.007283   0.004362   0.005079   0.004175   0.000746
     2  O   -0.020017   0.000602  -0.019189  -0.000011  -0.007072  -0.000012
     3  O   -0.000111   0.000014   0.000844  -0.018408  -0.020281   0.000063
     4  O   -0.000304  -0.000011  -0.001712  -0.000014  -0.000140  -0.000453
     5  O    0.000019  -0.000004   0.000011  -0.000015  -0.000073  -0.000008
     6  Si   0.002593  -0.000148   0.008783  -0.000282   0.000138  -0.000666
     7  Si  -0.000462  -0.000381   0.001314   0.056617   0.048157   0.040262
     8  Si   0.057407   0.046123   0.068400  -0.000069   0.021924   0.000109
     9  Si  -0.000210  -0.000043  -0.000008  -0.000135  -0.000057   0.000023
    10  O    0.000000  -0.000000   0.000000  -0.000000   0.000000  -0.000000
    11  O   -0.000000   0.000000  -0.000000  -0.000000   0.000000   0.000000
    12  O   -0.000000  -0.000000  -0.000000  -0.000004  -0.000001   0.000000
    13  O    0.218354  -0.005122  -0.009734  -0.000000   0.000796   0.000001
    14  O   -0.011960  -0.010084   0.219292  -0.000006   0.017576   0.000001
    15  O    0.008915   0.217005   0.004631  -0.000001  -0.002571   0.000000
    16  O   -0.000053   0.000000   0.000184  -0.000000  -0.000004   0.000115
    17  O    0.000631  -0.000003   0.017921   0.000004  -0.000394  -0.000396
    18  O    0.014922   0.000006  -0.000258  -0.000000   0.000006  -0.000007
    19  O   -0.000024   0.000001   0.000031   0.004617  -0.008568   0.224205
    20  O    0.000000  -0.000000   0.000192   0.229588   0.007667  -0.001481
    21  O   -0.000019   0.000039  -0.004018  -0.002067   0.206459  -0.007146
    22  H    0.000000  -0.000000  -0.000000  -0.000000   0.000000   0.000000
    23  H    0.000000  -0.000000  -0.000000   0.000000   0.000000   0.000000
    24  H    0.000000  -0.000000   0.000000  -0.000000  -0.000000  -0.000000
    25  H    0.298910  -0.000012   0.000114   0.000000   0.000001   0.000000
    26  H   -0.000012   0.365995   0.000036   0.000000   0.000021  -0.000000
    27  H    0.000114   0.000036   0.283358  -0.000000  -0.001496   0.000009
    28  H    0.000000   0.000000  -0.000000   0.349177  -0.000017  -0.000016
    29  H    0.000001   0.000021  -0.001496  -0.000017   0.285934   0.000155
    30  H    0.000000  -0.000000   0.000009  -0.000016   0.000155   0.334243
    31  H   -0.000495   0.000000   0.000013  -0.000000   0.000000  -0.000000
    32  H   -0.000001   0.000000  -0.000000   0.000000  -0.000000  -0.000000
    33  H    0.000006  -0.000000  -0.002410  -0.000002   0.000100  -0.001160
              31         32         33
     1  Zr  -0.000119   0.002101  -0.016031
     2  O    0.000175  -0.000024   0.001019
     3  O   -0.000020   0.000040  -0.010109
     4  O   -0.018444   0.010430  -0.009580
     5  O   -0.000009   0.000001  -0.000101
     6  Si   0.063739   0.022804   0.053258
     7  Si   0.000154  -0.000661   0.020620
     8  Si  -0.001974   0.000053   0.000111
     9  Si  -0.000052   0.000008   0.000077
    10  O    0.000000  -0.000000  -0.000000
    11  O   -0.000000   0.000000   0.000000
    12  O    0.000000  -0.000000   0.000000
    13  O    0.002359  -0.000008   0.000230
    14  O    0.000166  -0.000006   0.002087
    15  O   -0.000018   0.000000  -0.000035
    16  O    0.003778   0.233433  -0.000106
    17  O   -0.000749  -0.003637   0.231013
    18  O    0.218145   0.003886   0.002102
    19  O    0.000004   0.000097   0.014847
    20  O   -0.000000  -0.000000  -0.000081
    21  O   -0.000000   0.000001   0.001475
    22  H   -0.000000  -0.000000  -0.000000
    23  H   -0.000000  -0.000000  -0.000000
    24  H    0.000000  -0.000000  -0.000000
    25  H   -0.000495  -0.000001   0.000006
    26  H    0.000000   0.000000  -0.000000
    27  H    0.000013  -0.000000  -0.002410
    28  H   -0.000000   0.000000  -0.000002
    29  H    0.000000  -0.000000   0.000100
    30  H   -0.000000  -0.000000  -0.001160
    31  H    0.331418   0.000001  -0.000038
    32  H    0.000001   0.349968   0.000157
    33  H   -0.000038   0.000157   0.269205
 Mulliken charges:
               1
     1  Zr   0.003664
     2  O   -0.549842
     3  O   -0.418641
     4  O   -0.680635
     5  O   -0.368584
     6  Si   2.230809
     7  Si   1.786020
     8  Si   2.017080
     9  Si   1.600612
    10  O   -0.843947
    11  O   -0.787396
    12  O   -0.790717
    13  O   -0.841894
    14  O   -0.880436
    15  O   -0.877144
    16  O   -0.734723
    17  O   -0.968496
    18  O   -1.081663
    19  O   -0.988006
    20  O   -0.804592
    21  O   -0.830031
    22  H    0.385966
    23  H    0.372326
    24  H    0.365883
    25  H    0.414756
    26  H    0.378683
    27  H    0.429330
    28  H    0.375965
    29  H    0.447565
    30  H    0.411413
    31  H    0.401967
    32  H    0.381358
    33  H    0.443348
 Sum of Mulliken charges =  -0.00000
 Mulliken charges with hydrogens summed into heavy atoms:
               1
     1  Zr   0.003664
     2  O   -0.549842
     3  O   -0.418641
     4  O   -0.680635
     5  O   -0.368584
     6  Si   2.230809
     7  Si   1.786020
     8  Si   2.017080
     9  Si   1.600612
    10  O   -0.471621
    11  O   -0.421513
    12  O   -0.404751
    13  O   -0.427138
    14  O   -0.451106
    15  O   -0.498461
    16  O   -0.353365
    17  O   -0.525148
    18  O   -0.679696
    19  O   -0.576593
    20  O   -0.428628
    21  O   -0.382465
 Electronic spatial extent (au):  <R**2>=           9868.9597
 Charge=              0.0000 electrons
 Dipole moment (field-independent basis, Debye):
    X=              1.0770    Y=             -0.7776    Z=             -2.4072  Tot=              2.7494
 Quadrupole moment (field-independent basis, Debye-Ang):
   XX=           -160.2238   YY=           -154.6538   ZZ=           -157.7925
   XY=             -4.9165   XZ=              2.2395   YZ=              5.7276
 Traceless Quadrupole moment (field-independent basis, Debye-Ang):
   XX=             -2.6671   YY=              2.9030   ZZ=             -0.2358
   XY=             -4.9165   XZ=              2.2395   YZ=              5.7276
 Octapole moment (field-independent basis, Debye-Ang**2):
  XXX=             74.2527  YYY=              6.7227  ZZZ=            -18.5637  XYY=             -2.1221
  XXY=             20.2108  XXZ=             19.1638  XZZ=              5.3218  YZZ=            -17.2304
  YYZ=            -15.7461  XYZ=             28.0939
 Hexadecapole moment (field-independent basis, Debye-Ang**3):
 XXXX=          -6032.3587 YYYY=          -2835.0278 ZZZZ=          -2261.3342 XXXY=             57.1608
 XXXZ=            -24.3244 YYYX=              4.6264 YYYZ=            217.5146 ZZZX=           -183.6145
 ZZZY=            -55.0477 XXYY=          -1482.7590 XXZZ=          -1362.6305 YYZZ=           -924.3936
 XXYZ=             -7.1849 YYXZ=            130.2016 ZZXY=            -60.3133
 N-N= 2.832868210595D+03 E-N=-1.137833697797D+04  KE= 2.373154927257D+03
 1\1\GINC-GRA1290\FOpt\RB3LYP\Gen\H12O16Si4Zr1\SARASHS\14-Aug-2020\0\\#
 n B3LYP/Gen Pseudo=cards EmpiricalDispersion=GD3 Opt=modredundant\\Tit
 le\\0,1\Zr,0.6577203777,-0.1256836009,-0.0714900394\O,-0.2232087644,-0
 .9067234071,1.4773638287\O,0.1033794821,1.7469683725,-0.1228161002\O,-
 0.2683723697,-0.9793769015,-1.5969365085\O,2.592100856,-0.4363672813,-
 0.0827509521\Si,-1.8313780001,-1.3324556462,-1.9536338228\Si,-1.114976
 0476,2.8413659126,-0.0826615809\Si,-1.7242067908,-1.1531379459,2.11515
 77654\Si,4.2162969339,-0.2606187687,0.0124337017\O,4.9553191083,-0.099
 5991261,-1.4550767085\O,4.8993115388,-1.606263556,0.6979274702\O,4.447
 6382034,1.1301131695,0.8693671901\O,-2.3199272999,-2.6241213989,1.6962
 783151\O,-2.7244049699,0.0650206095,1.5507320476\O,-1.5978214072,-1.01
 96661694,3.7443438211\O,-2.0015449254,-1.5596323469,-3.5778642221\O,-2
 .8249479949,-0.1865366617,-1.301503573\O,-2.3450745767,-2.7143317389,-
 1.1829216676\O,-2.039810868,2.4394899628,-1.4302711218\O,-0.63490649,4
 .4001116756,-0.2994563141\O,-1.9652621023,2.7604921526,1.3138053637\H,
 5.3348182028,1.5059560951,0.8579064388\H,5.3034910475,-0.911207455,-1.
 8413390982\H,4.4647461717,-1.9765651483,1.4742657247\H,-2.4063284208,-
 2.8096356091,0.7439084823\H,-2.3818742417,-1.2239535309,4.265411844\H,
 -3.0605399545,-0.083047846,0.6457550078\H,-0.5266025142,4.9267766388,0
 .5006475838\H,-2.2688695518,1.868949931,1.5852827008\H,-2.6477626394,3
 .126794632,-1.7301760536\H,-2.3049324258,-3.5294634846,-1.6957763908\H
 ,-1.271199597,-1.2631209298,-4.1322491835\H,-2.60990997,0.754829401,-1
 .4897539487\\Version=ES64L-G16RevB.01\State=1-A\HF=-2416.946857\RMSD=3
 .500e-09\RMSF=5.067e-06\Dipole=0.4238099,-0.3058076,-0.9470823\Quadrup
 ole=-1.9807816,2.1561094,-0.1753279,-3.6565574,1.6637587,4.2588038\PG=
 C01 [X(H12O16Si4Zr1)]\\@


 DEPRESSION IS WAITING FOR YOUR SHIP TO COME IN,
 AND FINDING OUT IT'S THE TITANIC.
 Job cpu time:       0 days  5 hours 23 minutes 23.8 seconds.
 Elapsed time:       0 days  0 hours 24 minutes 21.1 seconds.
 File lengths (MBytes):  RWF=    167 Int=      0 D2E=      0 Chk=     21 Scr=      1
 Normal termination of Gaussian 16 at Fri Aug 14 03:47:53 2020.
