 Entering Gaussian System, Link 0=g16
 Initial command:
 /opt/software/gaussian/g16.b01/l1.exe "/localscratch/sarashs.37242639.0/Gau-9402.inp" -scrdir="/localscratch/sarashs.37242639.0/"
 Entering Link 1 = /opt/software/gaussian/g16.b01/l1.exe PID=      9403.
  
 Copyright (c) 1988-2017, Gaussian, Inc.  All Rights Reserved.
  
 This is part of the Gaussian(R) 16 program.  It is based on
 the Gaussian(R) 09 system (copyright 2009, Gaussian, Inc.),
 the Gaussian(R) 03 system (copyright 2003, Gaussian, Inc.),
 the Gaussian(R) 98 system (copyright 1998, Gaussian, Inc.),
 the Gaussian(R) 94 system (copyright 1995, Gaussian, Inc.),
 the Gaussian 92(TM) system (copyright 1992, Gaussian, Inc.),
 the Gaussian 90(TM) system (copyright 1990, Gaussian, Inc.),
 the Gaussian 88(TM) system (copyright 1988, Gaussian, Inc.),
 the Gaussian 86(TM) system (copyright 1986, Carnegie Mellon
 University), and the Gaussian 82(TM) system (copyright 1983,
 Carnegie Mellon University). Gaussian is a federally registered
 trademark of Gaussian, Inc.
  
 This software contains proprietary and confidential information,
 including trade secrets, belonging to Gaussian, Inc.
  
 This software is provided under written license and may be
 used, copied, transmitted, or stored only in accord with that
 written license.
  
 The following legend is applicable only to US Government
 contracts under FAR:
  
                    RESTRICTED RIGHTS LEGEND
  
 Use, reproduction and disclosure by the US Government is
 subject to restrictions as set forth in subparagraphs (a)
 and (c) of the Commercial Computer Software - Restricted
 Rights clause in FAR 52.227-19.
  
 Gaussian, Inc.
 340 Quinnipiac St., Bldg. 40, Wallingford CT 06492
  
  
 ---------------------------------------------------------------
 Warning -- This program may not be used in any manner that
 competes with the business of Gaussian, Inc. or will provide
 assistance to any competitor of Gaussian, Inc.  The licensee
 of this program is prohibited from giving any competitor of
 Gaussian, Inc. access to this program.  By using this program,
 the user acknowledges that Gaussian, Inc. is engaged in the
 business of creating and licensing software in the field of
 computational chemistry and represents and warrants to the
 licensee that it is not a competitor of Gaussian, Inc. and that
 it will not use this program in any manner prohibited above.
 ---------------------------------------------------------------
  

 Cite this work as:
 Gaussian 16, Revision B.01,
 M. J. Frisch, G. W. Trucks, H. B. Schlegel, G. E. Scuseria, 
 M. A. Robb, J. R. Cheeseman, G. Scalmani, V. Barone, 
 G. A. Petersson, H. Nakatsuji, X. Li, M. Caricato, A. V. Marenich, 
 J. Bloino, B. G. Janesko, R. Gomperts, B. Mennucci, H. P. Hratchian, 
 J. V. Ortiz, A. F. Izmaylov, J. L. Sonnenberg, D. Williams-Young, 
 F. Ding, F. Lipparini, F. Egidi, J. Goings, B. Peng, A. Petrone, 
 T. Henderson, D. Ranasinghe, V. G. Zakrzewski, J. Gao, N. Rega, 
 G. Zheng, W. Liang, M. Hada, M. Ehara, K. Toyota, R. Fukuda, 
 J. Hasegawa, M. Ishida, T. Nakajima, Y. Honda, O. Kitao, H. Nakai, 
 T. Vreven, K. Throssell, J. A. Montgomery, Jr., J. E. Peralta, 
 F. Ogliaro, M. J. Bearpark, J. J. Heyd, E. N. Brothers, K. N. Kudin, 
 V. N. Staroverov, T. A. Keith, R. Kobayashi, J. Normand, 
 K. Raghavachari, A. P. Rendell, J. C. Burant, S. S. Iyengar, 
 J. Tomasi, M. Cossi, J. M. Millam, M. Klene, C. Adamo, R. Cammi, 
 J. W. Ochterski, R. L. Martin, K. Morokuma, O. Farkas, 
 J. B. Foresman, and D. J. Fox, Gaussian, Inc., Wallingford CT, 2016.
 
 ******************************************
 Gaussian 16:  ES64L-G16RevB.01 20-Dec-2017
                14-Aug-2020 
 ******************************************
 %NProcShared=16
 Will use up to   16 processors via shared memory.
 ------------------------------------------------------------------
 #n B3LYP/Gen Pseudo=cards EmpiricalDispersion=GD3 Opt=modredundant
 ------------------------------------------------------------------
 1/18=120,19=15,26=3,38=1/1,3;
 2/9=110,12=2,17=6,18=5,40=1/2;
 3/5=7,11=2,16=1,17=8,25=1,30=1,71=1,74=-5,124=31/1,2,3;
 4//1;
 5/5=2,38=5/2;
 6/7=2,8=2,9=2,10=2,28=1/1;
 7//1,2,3,16;
 1/18=20,19=15,26=3/3(2);
 2/9=110/2;
 99//99;
 2/9=110/2;
 3/5=7,6=1,11=2,16=1,17=8,25=1,30=1,71=1,74=-5,82=7,124=31/1,2,3;
 4/5=5,16=3,69=1/1;
 5/5=2,38=5/2;
 7//1,2,3,16;
 1/18=20,19=15,26=3/3(-5);
 2/9=110/2;
 6/7=2,8=2,9=2,10=2,19=2,28=1/1;
 99/9=1/99;
 -----
 Title
 -----
 Symbolic Z-matrix:
 Charge =  0 Multiplicity = 1
 Zr                    0.66105  -0.11227  -0.15064 
 O                    -0.25116  -0.64666   1.48254 
 O                     0.12585   1.73573  -0.49013 
 O                    -0.24983  -1.1773   -1.54688 
 O                     2.59206  -0.4363   -0.08284 
 Si                   -1.81048  -1.56835  -1.87283 
 Si                   -1.08218   2.83288  -0.6341 
 Si                   -1.76413  -0.78395   2.12482 
 Si                    4.21631  -0.26105   0.01252 
 O                     4.95566  -0.09972  -1.45475 
 O                     4.89877  -1.60704   0.69775 
 O                     4.44778   1.12944   0.86985 
 O                    -2.36772  -2.29655   1.9202 
 O                    -2.74356   0.34362   1.36839 
 O                    -1.66158  -0.40972   3.71779 
 O                    -1.95787  -2.03432  -3.44759 
 O                    -2.80286  -0.33064  -1.41569 
 O                    -2.34937  -2.81575  -0.91314 
 O                    -1.99017   2.24098  -1.92176 
 O                    -0.58351   4.33807  -1.07327 
 O                    -1.95442   2.96795   0.74451 
 H                     5.33501   1.50516   0.85865 
 H                     5.3042   -0.91111  -1.84112 
 H                     4.46373  -1.97795   1.47352 
 H                    -2.44137  -2.62157   1.00488 
 H                    -2.45557  -0.52834   4.25024 
 H                    -3.06712   0.06452   0.49014 
 H                    -0.48229   4.97761  -0.35911 
 H                    -2.27104   2.12928   1.14088 
 H                    -2.58666   2.88025  -2.331 
 H                    -2.30963  -3.69862  -1.29786 
 H                    -1.21617  -1.82938  -4.02772 
 H                    -2.57577   0.57037  -1.73891 
 
 The following ModRedundant input section has been read:
 A       1       5       9 F                                                   
 

 GradGradGradGradGradGradGradGradGradGradGradGradGradGradGradGradGradGrad
 Berny optimization.
 Initialization pass.
                           ----------------------------
                           !    Initial Parameters    !
                           ! (Angstroms and Degrees)  !
 --------------------------                            --------------------------
 ! Name  Definition              Value          Derivative Info.                !
 --------------------------------------------------------------------------------
 ! R1    R(1,2)                  1.9455         estimate D2E/DX2                !
 ! R2    R(1,3)                  1.9537         estimate D2E/DX2                !
 ! R3    R(1,4)                  1.9783         estimate D2E/DX2                !
 ! R4    R(1,5)                  1.9592         estimate D2E/DX2                !
 ! R5    R(2,8)                  1.6494         estimate D2E/DX2                !
 ! R6    R(3,7)                  1.6382         estimate D2E/DX2                !
 ! R7    R(4,6)                  1.6416         estimate D2E/DX2                !
 ! R8    R(5,9)                  1.6365         estimate D2E/DX2                !
 ! R9    R(6,16)                 1.6489         estimate D2E/DX2                !
 ! R10   R(6,17)                 1.651          estimate D2E/DX2                !
 ! R11   R(6,18)                 1.6636         estimate D2E/DX2                !
 ! R12   R(7,19)                 1.6831         estimate D2E/DX2                !
 ! R13   R(7,20)                 1.6453         estimate D2E/DX2                !
 ! R14   R(7,21)                 1.637          estimate D2E/DX2                !
 ! R15   R(8,13)                 1.6414         estimate D2E/DX2                !
 ! R16   R(8,14)                 1.6742         estimate D2E/DX2                !
 ! R17   R(8,15)                 1.6395         estimate D2E/DX2                !
 ! R18   R(9,10)                 1.6509         estimate D2E/DX2                !
 ! R19   R(9,11)                 1.6574         estimate D2E/DX2                !
 ! R20   R(9,12)                 1.6499         estimate D2E/DX2                !
 ! R21   R(10,23)                0.9639         estimate D2E/DX2                !
 ! R22   R(11,24)                0.9637         estimate D2E/DX2                !
 ! R23   R(12,22)                0.9636         estimate D2E/DX2                !
 ! R24   R(13,25)                0.9741         estimate D2E/DX2                !
 ! R25   R(14,27)                0.9767         estimate D2E/DX2                !
 ! R26   R(15,26)                0.9633         estimate D2E/DX2                !
 ! R27   R(16,32)                0.9637         estimate D2E/DX2                !
 ! R28   R(17,33)                0.9838         estimate D2E/DX2                !
 ! R29   R(18,31)                0.9639         estimate D2E/DX2                !
 ! R30   R(19,30)                0.9654         estimate D2E/DX2                !
 ! R31   R(20,28)                0.964          estimate D2E/DX2                !
 ! R32   R(21,29)                0.9802         estimate D2E/DX2                !
 ! A1    A(2,1,3)              106.0961         estimate D2E/DX2                !
 ! A2    A(2,1,4)              103.2215         estimate D2E/DX2                !
 ! A3    A(2,1,5)              112.8089         estimate D2E/DX2                !
 ! A4    A(3,1,4)              105.0978         estimate D2E/DX2                !
 ! A5    A(3,1,5)              115.6242         estimate D2E/DX2                !
 ! A6    A(4,1,5)              112.9054         estimate D2E/DX2                !
 ! A7    A(1,2,8)              141.2478         estimate D2E/DX2                !
 ! A8    A(1,3,7)              148.296          estimate D2E/DX2                !
 ! A9    A(1,4,6)              134.9214         estimate D2E/DX2                !
 ! A10   A(1,5,9)              164.2749         Frozen                          !
 ! A11   A(4,6,16)             109.995          estimate D2E/DX2                !
 ! A12   A(4,6,17)             109.7482         estimate D2E/DX2                !
 ! A13   A(4,6,18)             111.8418         estimate D2E/DX2                !
 ! A14   A(16,6,17)            114.9976         estimate D2E/DX2                !
 ! A15   A(16,6,18)            108.0655         estimate D2E/DX2                !
 ! A16   A(17,6,18)            101.9871         estimate D2E/DX2                !
 ! A17   A(3,7,19)             103.2688         estimate D2E/DX2                !
 ! A18   A(3,7,20)             114.3705         estimate D2E/DX2                !
 ! A19   A(3,7,21)             111.9728         estimate D2E/DX2                !
 ! A20   A(19,7,20)            106.3207         estimate D2E/DX2                !
 ! A21   A(19,7,21)            112.6979         estimate D2E/DX2                !
 ! A22   A(20,7,21)            108.1076         estimate D2E/DX2                !
 ! A23   A(2,8,13)             111.4372         estimate D2E/DX2                !
 ! A24   A(2,8,14)             107.7362         estimate D2E/DX2                !
 ! A25   A(2,8,15)             107.576          estimate D2E/DX2                !
 ! A26   A(13,8,14)            110.4387         estimate D2E/DX2                !
 ! A27   A(13,8,15)            110.7607         estimate D2E/DX2                !
 ! A28   A(14,8,15)            108.7747         estimate D2E/DX2                !
 ! A29   A(5,9,10)             113.7768         estimate D2E/DX2                !
 ! A30   A(5,9,11)             110.2316         estimate D2E/DX2                !
 ! A31   A(5,9,12)             105.0573         estimate D2E/DX2                !
 ! A32   A(10,9,11)            105.2125         estimate D2E/DX2                !
 ! A33   A(10,9,12)            108.46           estimate D2E/DX2                !
 ! A34   A(11,9,12)            114.3199         estimate D2E/DX2                !
 ! A35   A(9,10,23)            115.8441         estimate D2E/DX2                !
 ! A36   A(9,11,24)            117.3556         estimate D2E/DX2                !
 ! A37   A(9,12,22)            116.857          estimate D2E/DX2                !
 ! A38   A(8,13,25)            116.8994         estimate D2E/DX2                !
 ! A39   A(8,14,27)            114.056          estimate D2E/DX2                !
 ! A40   A(8,15,26)            117.2169         estimate D2E/DX2                !
 ! A41   A(6,16,32)            116.4903         estimate D2E/DX2                !
 ! A42   A(6,17,33)            117.1858         estimate D2E/DX2                !
 ! A43   A(6,18,31)            116.3088         estimate D2E/DX2                !
 ! A44   A(7,19,30)            115.1364         estimate D2E/DX2                !
 ! A45   A(7,20,28)            116.1677         estimate D2E/DX2                !
 ! A46   A(7,21,29)            116.2374         estimate D2E/DX2                !
 ! D1    D(3,1,2,8)             57.7297         estimate D2E/DX2                !
 ! D2    D(4,1,2,8)            -52.5298         estimate D2E/DX2                !
 ! D3    D(5,1,2,8)           -174.7062         estimate D2E/DX2                !
 ! D4    D(2,1,3,7)            -50.0981         estimate D2E/DX2                !
 ! D5    D(4,1,3,7)             58.8315         estimate D2E/DX2                !
 ! D6    D(5,1,3,7)           -175.9642         estimate D2E/DX2                !
 ! D7    D(2,1,4,6)             42.7689         estimate D2E/DX2                !
 ! D8    D(3,1,4,6)            -68.2308         estimate D2E/DX2                !
 ! D9    D(5,1,4,6)            164.8806         estimate D2E/DX2                !
 ! D10   D(2,1,5,9)           -106.9254         estimate D2E/DX2                !
 ! D11   D(3,1,5,9)             15.438          estimate D2E/DX2                !
 ! D12   D(4,1,5,9)            136.5202         estimate D2E/DX2                !
 ! D13   D(1,2,8,13)            93.5302         estimate D2E/DX2                !
 ! D14   D(1,2,8,14)           -27.766          estimate D2E/DX2                !
 ! D15   D(1,2,8,15)          -144.8803         estimate D2E/DX2                !
 ! D16   D(1,3,7,19)           -61.1012         estimate D2E/DX2                !
 ! D17   D(1,3,7,20)          -176.1752         estimate D2E/DX2                !
 ! D18   D(1,3,7,21)            60.4093         estimate D2E/DX2                !
 ! D19   D(1,4,6,16)           160.167          estimate D2E/DX2                !
 ! D20   D(1,4,6,17)            32.6919         estimate D2E/DX2                !
 ! D21   D(1,4,6,18)           -79.7428         estimate D2E/DX2                !
 ! D22   D(1,5,9,10)           -91.478          estimate D2E/DX2                !
 ! D23   D(1,5,9,11)           150.6198         estimate D2E/DX2                !
 ! D24   D(1,5,9,12)            27.0009         estimate D2E/DX2                !
 ! D25   D(4,6,16,32)          -14.2003         estimate D2E/DX2                !
 ! D26   D(17,6,16,32)         110.298          estimate D2E/DX2                !
 ! D27   D(18,6,16,32)        -136.5529         estimate D2E/DX2                !
 ! D28   D(4,6,17,33)           51.0105         estimate D2E/DX2                !
 ! D29   D(16,6,17,33)         -73.6173         estimate D2E/DX2                !
 ! D30   D(18,6,17,33)         169.7174         estimate D2E/DX2                !
 ! D31   D(4,6,18,31)          -96.4422         estimate D2E/DX2                !
 ! D32   D(16,6,18,31)          24.7711         estimate D2E/DX2                !
 ! D33   D(17,6,18,31)         146.349          estimate D2E/DX2                !
 ! D34   D(3,7,19,30)         -162.1839         estimate D2E/DX2                !
 ! D35   D(20,7,19,30)         -41.4664         estimate D2E/DX2                !
 ! D36   D(21,7,19,30)          76.7962         estimate D2E/DX2                !
 ! D37   D(3,7,20,28)          -98.4266         estimate D2E/DX2                !
 ! D38   D(19,7,20,28)         148.2952         estimate D2E/DX2                !
 ! D39   D(21,7,20,28)          27.0452         estimate D2E/DX2                !
 ! D40   D(3,7,21,29)          -49.9            estimate D2E/DX2                !
 ! D41   D(19,7,21,29)          66.0148         estimate D2E/DX2                !
 ! D42   D(20,7,21,29)        -176.7755         estimate D2E/DX2                !
 ! D43   D(2,8,13,25)          -58.4673         estimate D2E/DX2                !
 ! D44   D(14,8,13,25)          61.2413         estimate D2E/DX2                !
 ! D45   D(15,8,13,25)        -178.1888         estimate D2E/DX2                !
 ! D46   D(2,8,14,27)           80.2917         estimate D2E/DX2                !
 ! D47   D(13,8,14,27)         -41.6253         estimate D2E/DX2                !
 ! D48   D(15,8,14,27)        -163.3758         estimate D2E/DX2                !
 ! D49   D(2,8,15,26)         -174.1998         estimate D2E/DX2                !
 ! D50   D(13,8,15,26)         -52.1892         estimate D2E/DX2                !
 ! D51   D(14,8,15,26)          69.3649         estimate D2E/DX2                !
 ! D52   D(5,9,10,23)          -94.8502         estimate D2E/DX2                !
 ! D53   D(11,9,10,23)          25.9079         estimate D2E/DX2                !
 ! D54   D(12,9,10,23)         148.64           estimate D2E/DX2                !
 ! D55   D(5,9,11,24)          -43.8205         estimate D2E/DX2                !
 ! D56   D(10,9,11,24)        -166.8799         estimate D2E/DX2                !
 ! D57   D(12,9,11,24)          74.2393         estimate D2E/DX2                !
 ! D58   D(5,9,12,22)         -166.4771         estimate D2E/DX2                !
 ! D59   D(10,9,12,22)         -44.4742         estimate D2E/DX2                !
 ! D60   D(11,9,12,22)          72.5545         estimate D2E/DX2                !
 --------------------------------------------------------------------------------
 Trust Radius=3.00D-01 FncErr=1.00D-07 GrdErr=1.00D-06 EigMax=2.50D+02 EigMin=1.00D-04
 Number of steps in this run=    148 maximum allowed number of steps=    198.
 GradGradGradGradGradGradGradGradGradGradGradGradGradGradGradGradGradGrad

                          Input orientation:                          
 ---------------------------------------------------------------------
 Center     Atomic      Atomic             Coordinates (Angstroms)
 Number     Number       Type             X           Y           Z
 ---------------------------------------------------------------------
      1         40           0        0.661050   -0.112270   -0.150640
      2          8           0       -0.251160   -0.646660    1.482540
      3          8           0        0.125850    1.735730   -0.490130
      4          8           0       -0.249830   -1.177300   -1.546880
      5          8           0        2.592060   -0.436300   -0.082840
      6         14           0       -1.810480   -1.568350   -1.872830
      7         14           0       -1.082180    2.832880   -0.634100
      8         14           0       -1.764130   -0.783950    2.124820
      9         14           0        4.216310   -0.261050    0.012520
     10          8           0        4.955660   -0.099720   -1.454750
     11          8           0        4.898770   -1.607040    0.697750
     12          8           0        4.447780    1.129440    0.869850
     13          8           0       -2.367720   -2.296550    1.920200
     14          8           0       -2.743560    0.343620    1.368390
     15          8           0       -1.661580   -0.409720    3.717790
     16          8           0       -1.957870   -2.034320   -3.447590
     17          8           0       -2.802860   -0.330640   -1.415690
     18          8           0       -2.349370   -2.815750   -0.913140
     19          8           0       -1.990170    2.240980   -1.921760
     20          8           0       -0.583510    4.338070   -1.073270
     21          8           0       -1.954420    2.967950    0.744510
     22          1           0        5.335010    1.505160    0.858650
     23          1           0        5.304200   -0.911110   -1.841120
     24          1           0        4.463730   -1.977950    1.473520
     25          1           0       -2.441370   -2.621570    1.004880
     26          1           0       -2.455570   -0.528340    4.250240
     27          1           0       -3.067120    0.064520    0.490140
     28          1           0       -0.482290    4.977610   -0.359110
     29          1           0       -2.271040    2.129280    1.140880
     30          1           0       -2.586660    2.880250   -2.331000
     31          1           0       -2.309630   -3.698620   -1.297860
     32          1           0       -1.216170   -1.829380   -4.027720
     33          1           0       -2.575770    0.570370   -1.738910
 ---------------------------------------------------------------------
                    Distance matrix (angstroms):
                    1          2          3          4          5
     1  Zr   0.000000
     2  O    1.945502   0.000000
     3  O    1.953662   3.115982   0.000000
     4  O    1.978251   3.075543   3.121474   0.000000
     5  O    1.959181   3.252471   3.311464   3.281590   0.000000
     6  Si   3.345828   3.813070   4.071631   1.641582   4.885485
     7  Si   3.456370   4.156676   1.638231   4.196131   4.948885
     8  Si   3.392694   1.649379   4.093748   3.991141   4.896020
     9  Si   3.562110   4.718892   4.579481   4.818470   1.636458
    10  O    4.488266   6.003148   5.256085   5.316652   2.753548
    11  O    4.573005   5.297169   5.946927   5.633038   2.702011
    12  O    4.113705   5.060628   4.571237   5.764475   2.608229
    13  O    4.270001   2.719101   5.318540   4.214122   5.663225
    14  O    3.755883   2.684351   3.691284   4.126825   5.584191
    15  O    4.521928   2.653633   5.050193   5.504450   5.704292
    16  O    4.628488   5.398578   5.225106   2.695289   5.880227
    17  O    3.694145   3.874375   3.701876   2.692955   5.558131
    18  O    4.117383   3.853144   5.198233   2.737556   5.546973
    19  O    3.962779   4.790812   2.604301   3.854083   5.616608
    20  O    4.712293   5.611609   2.759605   5.545715   5.818918
    21  O    4.138808   4.063396   2.714816   5.033805   5.739678
    22  H    5.047836   6.018709   5.385881   6.646247   3.489906
    23  H    5.005468   6.479095   5.970448   5.568185   3.266909
    24  H    4.536412   4.899245   6.038588   5.655219   2.881335
    25  H    4.154133   2.987549   5.273683   3.660634   5.594100
    26  H    5.408713   3.540281   5.853277   6.236428   6.653016
    27  H    3.786965   3.069245   3.734827   3.691706   5.710118
    28  H    5.220878   5.922627   3.301028   6.272779   6.232044
    29  H    3.910207   3.449999   2.925775   4.716229   5.632889
    30  H    4.925116   5.695326   3.472238   4.747560   6.547738
    31  H    4.796140   4.613283   6.009671   3.265248   6.012119
    32  H    4.637259   5.717782   5.198612   2.741093   5.657329
    33  H    3.669551   4.154842   3.196289   2.915686   5.519277
                    6          7          8          9         10
     6  Si   0.000000
     7  Si   4.629870   0.000000
     8  Si   4.074143   4.599799   0.000000
     9  Si   6.448703   6.169645   6.364032   0.000000
    10  O    6.936304   6.762331   7.644414   1.650923   0.000000
    11  O    7.184944   7.566933   6.863544   1.657402   2.628404
    12  O    7.346168   5.978631   6.619957   1.649865   2.678160
    13  O    3.902290   5.872658   1.641386   7.150661   8.357526
    14  O    3.877083   3.600912   1.674181   7.116446   8.212470
    15  O    5.711359   5.457940   1.639548   6.949872   8.404709
    16  O    1.648854   5.689657   5.714255   7.296393   7.450569
    17  O    1.650976   3.685035   3.717480   7.163335   7.762054
    18  O    1.663555   5.795745   3.701340   7.105737   7.812402
    19  O    3.813880   1.683110   5.057282   6.965773   7.344490
    20  O    6.085273   1.645339   6.152782   6.735660   7.107877
    21  O    5.239199   1.636952   4.002277   7.002868   7.873789
    22  H    8.244118   6.720972   7.565778   2.255421   2.841015
    23  H    7.145043   7.500680   8.105932   2.245454   0.963906
    24  H    7.122608   7.638276   6.374643   2.267925   3.513475
    25  H    3.128659   5.855312   2.256051   7.133129   8.193019
    26  H    6.244177   6.086113   2.249630   7.908457   9.362529
    27  H    3.135129   3.587160   2.256072   7.306331   8.256789
    28  H    6.848725   2.243960   6.403795   7.046879   7.520040
    29  H    4.792393   2.249221   3.116409   7.005183   7.995682
    30  H    4.538989   2.268298   5.827285   7.851131   8.156876
    31  H    2.262254   6.678900   4.528533   7.491454   8.109324
    32  H    2.250531   5.768126   6.264737   6.949463   6.906764
    33  H    2.275462   2.927519   4.173889   7.063364   7.566519
                   11         12         13         14         15
    11  O    0.000000
    12  O    2.778729   0.000000
    13  O    7.400789   7.700109   0.000000
    14  O    7.915810   7.251305   2.723279   0.000000
    15  O    7.320684   6.914048   2.700017   2.694046   0.000000
    16  O    8.023710   8.347576   5.389797   5.428220   7.353216
    17  O    8.087702   7.741273   3.896449   2.865178   5.259410
    18  O    7.522731   8.058835   2.880576   3.916935   5.263796
    19  O    8.314240   7.104633   5.957548   3.872035   6.240089
    20  O    8.278662   6.275739   7.494161   5.155885   6.830666
    21  O    8.240081   6.662131   5.409993   2.810530   4.509413
    22  H    3.146742   0.963570   8.655168   8.177549   7.797033
    23  H    2.663560   3.499523   8.655942   8.754527   8.926083
    24  H    0.963666   3.165524   6.853447   7.572699   6.709360
    25  H    7.416283   7.845298   0.974101   3.002634   3.586117
    26  H    8.238331   7.863302   2.926324   3.024618   0.963324
    27  H    8.142028   7.599471   2.847610   0.976684   3.552206
    28  H    8.569153   6.373723   7.852611   5.437965   6.858219
    29  H    8.097075   6.798211   4.494959   1.861080   3.668573
    30  H    9.238006   7.924274   6.702231   4.488273   6.947484
    31  H    7.766479   8.583223   3.510710   4.861778   6.032709
    32  H    7.731235   8.051158   6.076353   6.014387   7.887126
    33  H    8.157645   7.513218   4.653128   3.120077   5.618887
                   16         17         18         19         20
    16  O    0.000000
    17  O    2.783011   0.000000
    18  O    2.680922   2.575652   0.000000
    19  O    4.539536   2.744048   5.168835   0.000000
    20  O    6.937839   5.180697   7.370281   2.663910   0.000000
    21  O    6.526593   4.033238   6.029509   2.763831   2.657244
    22  H    9.179200   8.646832   8.992174   7.869585   6.840071
    23  H    7.521968   8.138941   7.941406   7.946698   7.925189
    24  H    8.090578   7.991526   7.267488   8.424970   8.476608
    25  H    4.516982   3.352342   1.930018   5.693259   7.497129
    26  H    7.859534   5.680005   5.648364   6.780805   7.451598
    27  H    4.597965   1.964223   3.283339   3.422581   5.184187
    28  H    7.802769   5.888881   8.033019   3.493526   0.963992
    29  H    6.203845   3.587491   5.355227   3.077520   3.553726
    30  H    5.078892   3.345796   5.874611   0.965372   2.778441
    31  H    2.741344   3.405943   0.963871   5.980816   8.223036
    32  H    0.963675   3.403896   3.457987   4.647792   6.867785
    33  H    3.175815   0.983799   3.492701   1.779691   4.313669
                   21         22         23         24         25
    21  O    0.000000
    22  H    7.435629   0.000000
    23  H    8.626712   3.623268   0.000000
    24  H    8.135480   3.642698   3.582091   0.000000
    25  H    5.616729   8.804736   8.427292   6.950847   0.000000
    26  H    4.976478   8.736770   9.872447   7.595279   3.861887
    27  H    3.119729   8.532704   8.744463   7.864631   2.805637
    28  H    2.724679   6.883446   8.387899   8.729345   7.965300
    29  H    0.980166   7.636830   8.690256   7.895386   4.755847
    30  H    3.141048   8.649716   8.768128   9.369337   6.435777
    31  H    6.981447   9.495809   8.126238   7.517956   2.545585
    32  H    6.806876   8.826875   6.938275   7.908665   5.239823
    33  H    3.507398   8.378639   8.018676   8.146668   4.211286
                   26         27         28         29         30
    26  H    0.000000
    27  H    3.855364   0.000000
    28  H    7.446840   5.616140   0.000000
    29  H    4.094523   2.306608   3.682741   0.000000
    30  H    7.412718   4.014724   3.565900   3.566164   0.000000
    31  H    6.391665   4.234614   8.916131   6.317702   6.665257
    32  H    8.470740   5.236786   7.767393   6.595314   5.190156
    33  H    6.090282   2.337942   5.070530   3.288807   2.384583
                   31         32         33
    31  H    0.000000
    32  H    3.484516   0.000000
    33  H    4.299957   3.584127   0.000000
 Stoichiometry    H12O16Si4Zr
 Framework group  C1[X(H12O16Si4Zr)]
 Deg. of freedom    93
 Full point group                 C1      NOp   1
 Largest Abelian subgroup         C1      NOp   1
 Largest concise Abelian subgroup C1      NOp   1
                         Standard orientation:                         
 ---------------------------------------------------------------------
 Center     Atomic      Atomic             Coordinates (Angstroms)
 Number     Number       Type             X           Y           Z
 ---------------------------------------------------------------------
      1         40           0        0.657739   -0.125552   -0.070452
      2          8           0       -0.224102   -0.901150    1.480606
      3          8           0        0.103890    1.747065   -0.128344
      4          8           0       -0.267931   -0.983986   -1.593509
      5          8           0        2.591866   -0.437743   -0.079569
      6         14           0       -1.830802   -1.338015   -1.949723
      7         14           0       -1.114142    2.842013   -0.092452
      8         14           0       -1.725470   -1.144991    2.118481
      9         14           0        4.216147   -0.262943    0.016085
     10          8           0        4.930511    0.117761   -1.422768
     11          8           0        4.919223   -1.688009    0.487094
     12          8           0        4.451471    0.989675    1.063761
     13          8           0       -2.321431   -2.617174    1.704165
     14          8           0       -2.725055    0.071587    1.549577
     15          8           0       -1.599873   -1.006279    3.747315
     16          8           0       -2.000281   -1.570563   -3.573275
     17          8           0       -2.824510   -0.189701   -1.301928
     18          8           0       -2.345156   -2.717147   -1.174578
     19          8           0       -2.038559    2.435805   -1.439043
     20          8           0       -0.633437    4.399823   -0.314465
     21          8           0       -1.964932    2.766206    1.303979
     22          1           0        5.335688    1.371376    1.094303
     23          1           0        5.278567   -0.625229   -1.928671
     24          1           0        4.499448   -2.172252    1.206782
     25          1           0       -2.407534   -2.805823    0.752393
     26          1           0       -2.384283   -1.208829    4.268533
     27          1           0       -3.060759   -0.079406    0.644915
     28          1           0       -0.525274    4.929227    0.483855
     29          1           0       -2.269085    1.875717    1.578288
     30          1           0       -2.646152    3.122286   -1.741563
     31          1           0       -2.305312   -3.534008   -1.684675
     32          1           0       -1.269542   -1.276157   -4.128267
     33          1           0       -2.609138    0.750937   -1.493436
 ---------------------------------------------------------------------
 Rotational constants (GHZ):           0.2123927           0.1338259           0.1240869
 General basis read from cards:  (5D, 7F)
 ======================================================================================================
                                       Pseudopotential Parameters
 ======================================================================================================
  Center     Atomic      Valence      Angular      Power
  Number     Number     Electrons     Momentum     of R      Exponent        Coefficient   SO-Coeffient
 ======================================================================================================
    1         40           12
                                      G and up 
                                                     2        1.0000000        0.00000000    0.00000000
                                      S - G
                                                     2        8.6365280      150.24299400    0.00000000
                                                     2        3.7176390       18.78003600    0.00000000
                                      P - G
                                                     2        7.6267280       33.19279100    0.00000000
                                                     2        7.4532070       66.38903900    0.00000000
                                                     2        3.3583890        4.62072600    0.00000000
                                                     2        3.2297380        9.26027000    0.00000000
                                      D - G
                                                     2        5.9380860       13.99338300    0.00000000
                                                     2        5.8255440       20.99588200    0.00000000
                                                     2        2.2050190        2.28516600    0.00000000
                                                     2        2.2062920        3.44126000    0.00000000
                                      F - G
                                                     2        4.8002150       -5.23932000    0.00000000
                                                     2        4.7989920       -6.98742400    0.00000000
    2          8
                                   No pseudopotential on this center.
    3          8
                                   No pseudopotential on this center.
    4          8
                                   No pseudopotential on this center.
    5          8
                                   No pseudopotential on this center.
    6         14
                                   No pseudopotential on this center.
    7         14
                                   No pseudopotential on this center.
    8         14
                                   No pseudopotential on this center.
    9         14
                                   No pseudopotential on this center.
   10          8
                                   No pseudopotential on this center.
   11          8
                                   No pseudopotential on this center.
   12          8
                                   No pseudopotential on this center.
   13          8
                                   No pseudopotential on this center.
   14          8
                                   No pseudopotential on this center.
   15          8
                                   No pseudopotential on this center.
   16          8
                                   No pseudopotential on this center.
   17          8
                                   No pseudopotential on this center.
   18          8
                                   No pseudopotential on this center.
   19          8
                                   No pseudopotential on this center.
   20          8
                                   No pseudopotential on this center.
   21          8
                                   No pseudopotential on this center.
   22          1
                                   No pseudopotential on this center.
   23          1
                                   No pseudopotential on this center.
   24          1
                                   No pseudopotential on this center.
   25          1
                                   No pseudopotential on this center.
   26          1
                                   No pseudopotential on this center.
   27          1
                                   No pseudopotential on this center.
   28          1
                                   No pseudopotential on this center.
   29          1
                                   No pseudopotential on this center.
   30          1
                                   No pseudopotential on this center.
   31          1
                                   No pseudopotential on this center.
   32          1
                                   No pseudopotential on this center.
   33          1
                                   No pseudopotential on this center.
 ======================================================================================================
 There are   570 symmetry adapted cartesian basis functions of A   symmetry.
 There are   524 symmetry adapted basis functions of A   symmetry.
   524 basis functions,  1074 primitive gaussians,   570 cartesian basis functions
   104 alpha electrons      104 beta electrons
       nuclear repulsion energy      2832.7743208086 Hartrees.
 NAtoms=   33 NActive=   33 NUniq=   33 SFac= 1.00D+00 NAtFMM=   60 NAOKFM=F Big=F
 Integral buffers will be    131072 words long.
 Raffenetti 2 integral format.
 Two-electron integral symmetry is turned on.
 Nuclear repulsion after empirical dispersion term =     2832.7335295456 Hartrees.
 One-electron integrals computed using PRISM.
 PrsmSu:  requested number of processors reduced to:   4 ShMem   1 Linda.
   1 Symmetry operations used in ECPInt.
 ECPInt:  NShTT=   13203 NPrTT=   78401 LenC2=   11525 LenP2D=   44625.
 LDataN:  DoStor=T MaxTD1= 8 Len=  415
 Number of processors reduced to  13 by ecpmxn.
 NBasis=   524 RedAO= T EigKep=  3.18D-05  NBF=   524
 NBsUse=   524 1.00D-06 EigRej= -1.00D+00 NBFU=   524
 Defaulting to unpruned grid for atomic number  40.
 ExpMin= 1.01D-02 ExpMax= 1.61D+04 ExpMxC= 2.43D+03 IAcc=3 IRadAn=         5 AccDes= 0.00D+00
 Harris functional with IExCor=  402 and IRadAn=       5 diagonalized for initial guess.
 HarFok:  IExCor=  402 AccDes= 0.00D+00 IRadAn=         5 IDoV= 1 UseB2=F ITyADJ=14
 ICtDFT=  3500011 ScaDFX=  1.000000  1.000000  1.000000  1.000000
 Defaulting to unpruned grid for atomic number  40.
 FoFCou: FMM=F IPFlag=           0 FMFlag=      100000 FMFlg1=           0
         NFxFlg=           0 DoJE=T BraDBF=F KetDBF=T FulRan=T
         wScrn=  0.000000 ICntrl=       500 IOpCl=  0 I1Cent=   200000004 NGrid=           0
         NMat0=    1 NMatS0=      1 NMatT0=    0 NMatD0=    1 NMtDS0=    0 NMtDT0=    0
 Petite list used in FoFCou.
 Requested convergence on RMS density matrix=1.00D-08 within 128 cycles.
 Requested convergence on MAX density matrix=1.00D-06.
 Requested convergence on             energy=1.00D-06.
 No special actions if energy rises.
 Defaulting to unpruned grid for atomic number  40.
 Defaulting to unpruned grid for atomic number  40.
 Defaulting to unpruned grid for atomic number  40.
 Defaulting to unpruned grid for atomic number  40.
 Defaulting to unpruned grid for atomic number  40.
 Defaulting to unpruned grid for atomic number  40.
 Defaulting to unpruned grid for atomic number  40.
 Defaulting to unpruned grid for atomic number  40.
 Defaulting to unpruned grid for atomic number  40.
 Defaulting to unpruned grid for atomic number  40.
 Defaulting to unpruned grid for atomic number  40.
 Defaulting to unpruned grid for atomic number  40.
 Defaulting to unpruned grid for atomic number  40.
 Defaulting to unpruned grid for atomic number  40.
 Defaulting to unpruned grid for atomic number  40.
 Defaulting to unpruned grid for atomic number  40.
 SCF Done:  E(RB3LYP) =  -2416.94682749     A.U. after   14 cycles
            NFock= 14  Conv=0.26D-08     -V/T= 2.0185

 **********************************************************************

            Population analysis using the SCF Density.

 **********************************************************************

 Orbital symmetries:
       Occupied  (A) (A) (A) (A) (A) (A) (A) (A) (A) (A) (A) (A)
                 (A) (A) (A) (A) (A) (A) (A) (A) (A) (A) (A) (A)
                 (A) (A) (A) (A) (A) (A) (A) (A) (A) (A) (A) (A)
                 (A) (A) (A) (A) (A) (A) (A) (A) (A) (A) (A) (A)
                 (A) (A) (A) (A) (A) (A) (A) (A) (A) (A) (A) (A)
                 (A) (A) (A) (A) (A) (A) (A) (A) (A) (A) (A) (A)
                 (A) (A) (A) (A) (A) (A) (A) (A) (A) (A) (A) (A)
                 (A) (A) (A) (A) (A) (A) (A) (A) (A) (A) (A) (A)
                 (A) (A) (A) (A) (A) (A) (A) (A)
       Virtual   (A) (A) (A) (A) (A) (A) (A) (A) (A) (A) (A) (A)
                 (A) (A) (A) (A) (A) (A) (A) (A) (A) (A) (A) (A)
                 (A) (A) (A) (A) (A) (A) (A) (A) (A) (A) (A) (A)
                 (A) (A) (A) (A) (A) (A) (A) (A) (A) (A) (A) (A)
                 (A) (A) (A) (A) (A) (A) (A) (A) (A) (A) (A) (A)
                 (A) (A) (A) (A) (A) (A) (A) (A) (A) (A) (A) (A)
                 (A) (A) (A) (A) (A) (A) (A) (A) (A) (A) (A) (A)
                 (A) (A) (A) (A) (A) (A) (A) (A) (A) (A) (A) (A)
                 (A) (A) (A) (A) (A) (A) (A) (A) (A) (A) (A) (A)
                 (A) (A) (A) (A) (A) (A) (A) (A) (A) (A) (A) (A)
                 (A) (A) (A) (A) (A) (A) (A) (A) (A) (A) (A) (A)
                 (A) (A) (A) (A) (A) (A) (A) (A) (A) (A) (A) (A)
                 (A) (A) (A) (A) (A) (A) (A) (A) (A) (A) (A) (A)
                 (A) (A) (A) (A) (A) (A) (A) (A) (A) (A) (A) (A)
                 (A) (A) (A) (A) (A) (A) (A) (A) (A) (A) (A) (A)
                 (A) (A) (A) (A) (A) (A) (A) (A) (A) (A) (A) (A)
                 (A) (A) (A) (A) (A) (A) (A) (A) (A) (A) (A) (A)
                 (A) (A) (A) (A) (A) (A) (A) (A) (A) (A) (A) (A)
                 (A) (A) (A) (A) (A) (A) (A) (A) (A) (A) (A) (A)
                 (A) (A) (A) (A) (A) (A) (A) (A) (A) (A) (A) (A)
                 (A) (A) (A) (A) (A) (A) (A) (A) (A) (A) (A) (A)
                 (A) (A) (A) (A) (A) (A) (A) (A) (A) (A) (A) (A)
                 (A) (A) (A) (A) (A) (A) (A) (A) (A) (A) (A) (A)
                 (A) (A) (A) (A) (A) (A) (A) (A) (A) (A) (A) (A)
                 (A) (A) (A) (A) (A) (A) (A) (A) (A) (A) (A) (A)
                 (A) (A) (A) (A) (A) (A) (A) (A) (A) (A) (A) (A)
                 (A) (A) (A) (A) (A) (A) (A) (A) (A) (A) (A) (A)
                 (A) (A) (A) (A) (A) (A) (A) (A) (A) (A) (A) (A)
                 (A) (A) (A) (A) (A) (A) (A) (A) (A) (A) (A) (A)
                 (A) (A) (A) (A) (A) (A) (A) (A) (A) (A) (A) (A)
                 (A) (A) (A) (A) (A) (A) (A) (A) (A) (A) (A) (A)
                 (A) (A) (A) (A) (A) (A) (A) (A) (A) (A) (A) (A)
                 (A) (A) (A) (A) (A) (A) (A) (A) (A) (A) (A) (A)
                 (A) (A) (A) (A) (A) (A) (A) (A) (A) (A) (A) (A)
                 (A) (A) (A) (A) (A) (A) (A) (A) (A) (A) (A) (A)
 The electronic state is 1-A.
 Alpha  occ. eigenvalues --  -66.22814 -66.21756 -66.21493 -66.21015 -19.18597
 Alpha  occ. eigenvalues --  -19.18354 -19.17802 -19.17030 -19.16736 -19.16550
 Alpha  occ. eigenvalues --  -19.16452 -19.16209 -19.16169 -19.16020 -19.15964
 Alpha  occ. eigenvalues --  -19.15505 -19.15331 -19.15228 -19.14888 -19.14695
 Alpha  occ. eigenvalues --   -5.36874  -5.35837  -5.35568  -5.35075  -3.72858
 Alpha  occ. eigenvalues --   -3.72831  -3.72784  -3.71828  -3.71781  -3.71746
 Alpha  occ. eigenvalues --   -3.71537  -3.71529  -3.71489  -3.71040  -3.71031
 Alpha  occ. eigenvalues --   -3.71006  -2.13359  -1.29603  -1.29519  -1.29360
 Alpha  occ. eigenvalues --   -1.05688  -1.04778  -1.04157  -1.03477  -1.02576
 Alpha  occ. eigenvalues --   -1.02174  -1.01473  -1.00920  -1.00771  -1.00646
 Alpha  occ. eigenvalues --   -0.99820  -0.99294  -0.97373  -0.96287  -0.95722
 Alpha  occ. eigenvalues --   -0.95386  -0.60999  -0.59161  -0.58978  -0.58467
 Alpha  occ. eigenvalues --   -0.55551  -0.54534  -0.53871  -0.53035  -0.52994
 Alpha  occ. eigenvalues --   -0.52481  -0.52127  -0.51710  -0.48787  -0.47602
 Alpha  occ. eigenvalues --   -0.47204  -0.46697  -0.43378  -0.42641  -0.41867
 Alpha  occ. eigenvalues --   -0.41403  -0.41103  -0.40530  -0.39840  -0.39311
 Alpha  occ. eigenvalues --   -0.38823  -0.38690  -0.38641  -0.38138  -0.38003
 Alpha  occ. eigenvalues --   -0.37619  -0.37502  -0.37156  -0.36506  -0.36424
 Alpha  occ. eigenvalues --   -0.36118  -0.35653  -0.35440  -0.35076  -0.34915
 Alpha  occ. eigenvalues --   -0.34604  -0.33983  -0.33699  -0.33451  -0.33282
 Alpha  occ. eigenvalues --   -0.32789  -0.32182  -0.32047  -0.31291
 Alpha virt. eigenvalues --   -0.04336  -0.03151  -0.03026  -0.02760  -0.02098
 Alpha virt. eigenvalues --   -0.01168  -0.00565  -0.00161   0.00137   0.00301
 Alpha virt. eigenvalues --    0.00762   0.00943   0.01024   0.01948   0.02341
 Alpha virt. eigenvalues --    0.03201   0.03346   0.03829   0.03921   0.04075
 Alpha virt. eigenvalues --    0.04161   0.04820   0.05589   0.05835   0.06145
 Alpha virt. eigenvalues --    0.06486   0.07116   0.07412   0.07721   0.08658
 Alpha virt. eigenvalues --    0.08780   0.09009   0.09190   0.09683   0.09994
 Alpha virt. eigenvalues --    0.10423   0.10624   0.10817   0.11165   0.11709
 Alpha virt. eigenvalues --    0.11840   0.12535   0.13269   0.13331   0.13823
 Alpha virt. eigenvalues --    0.14058   0.14317   0.14863   0.15185   0.15387
 Alpha virt. eigenvalues --    0.15425   0.15753   0.16172   0.16717   0.16908
 Alpha virt. eigenvalues --    0.17418   0.17493   0.17656   0.18048   0.18295
 Alpha virt. eigenvalues --    0.18505   0.18814   0.19182   0.19590   0.19745
 Alpha virt. eigenvalues --    0.20082   0.20438   0.20648   0.21057   0.21238
 Alpha virt. eigenvalues --    0.21731   0.21802   0.22233   0.22531   0.22833
 Alpha virt. eigenvalues --    0.23387   0.23825   0.24007   0.24194   0.24494
 Alpha virt. eigenvalues --    0.25047   0.25176   0.25495   0.25792   0.26156
 Alpha virt. eigenvalues --    0.26457   0.26716   0.26890   0.27302   0.27331
 Alpha virt. eigenvalues --    0.27945   0.28153   0.28448   0.28883   0.29029
 Alpha virt. eigenvalues --    0.29501   0.29609   0.29896   0.30439   0.30603
 Alpha virt. eigenvalues --    0.30884   0.31310   0.31397   0.31562   0.32227
 Alpha virt. eigenvalues --    0.32418   0.32848   0.33144   0.33523   0.34041
 Alpha virt. eigenvalues --    0.34313   0.34758   0.35317   0.35777   0.36290
 Alpha virt. eigenvalues --    0.36953   0.37640   0.37979   0.38359   0.38932
 Alpha virt. eigenvalues --    0.39214   0.39841   0.40103   0.41186   0.41638
 Alpha virt. eigenvalues --    0.42338   0.43259   0.43854   0.44430   0.44825
 Alpha virt. eigenvalues --    0.45206   0.45845   0.46062   0.46793   0.47478
 Alpha virt. eigenvalues --    0.47792   0.48365   0.49028   0.49380   0.49624
 Alpha virt. eigenvalues --    0.49903   0.50625   0.51097   0.51369   0.53200
 Alpha virt. eigenvalues --    0.54064   0.54507   0.55174   0.56953   0.57298
 Alpha virt. eigenvalues --    0.58270   0.58828   0.59235   0.59570   0.60302
 Alpha virt. eigenvalues --    0.61299   0.61690   0.62079   0.63886   0.65930
 Alpha virt. eigenvalues --    0.66702   0.67742   0.68306   0.69134   0.69490
 Alpha virt. eigenvalues --    0.70363   0.70413   0.72860   0.74364   0.75154
 Alpha virt. eigenvalues --    0.75530   0.77524   0.78596   0.79020   0.80468
 Alpha virt. eigenvalues --    0.81114   0.81466   0.82607   0.84161   0.85510
 Alpha virt. eigenvalues --    0.86874   0.87662   0.89841   0.90667   0.91137
 Alpha virt. eigenvalues --    0.94214   0.95698   0.96362   0.96900   0.97500
 Alpha virt. eigenvalues --    0.98184   0.98896   0.99300   0.99849   1.00126
 Alpha virt. eigenvalues --    1.00656   1.01459   1.01884   1.03190   1.04022
 Alpha virt. eigenvalues --    1.04244   1.05599   1.06251   1.06716   1.07864
 Alpha virt. eigenvalues --    1.09746   1.12331   1.15223   1.16179   1.16439
 Alpha virt. eigenvalues --    1.18752   1.19058   1.19995   1.20604   1.21018
 Alpha virt. eigenvalues --    1.21411   1.21774   1.22248   1.22688   1.22964
 Alpha virt. eigenvalues --    1.23501   1.24045   1.24154   1.25244   1.25723
 Alpha virt. eigenvalues --    1.25950   1.27127   1.27612   1.28058   1.28455
 Alpha virt. eigenvalues --    1.28964   1.29791   1.30163   1.31018   1.31370
 Alpha virt. eigenvalues --    1.32386   1.32623   1.32993   1.33394   1.34465
 Alpha virt. eigenvalues --    1.35134   1.36150   1.36449   1.36876   1.37794
 Alpha virt. eigenvalues --    1.39159   1.39744   1.40165   1.41290   1.41593
 Alpha virt. eigenvalues --    1.42710   1.43593   1.44129   1.45019   1.46393
 Alpha virt. eigenvalues --    1.47074   1.48986   1.51297   1.51611   1.52859
 Alpha virt. eigenvalues --    1.56746   1.57476   1.58002   1.59334   1.59654
 Alpha virt. eigenvalues --    1.60053   1.61123   1.61973   1.62547   1.62958
 Alpha virt. eigenvalues --    1.63287   1.63782   1.65136   1.65415   1.66488
 Alpha virt. eigenvalues --    1.67603   1.68119   1.69188   1.69387   1.70036
 Alpha virt. eigenvalues --    1.71317   1.71537   1.71748   1.72763   1.73079
 Alpha virt. eigenvalues --    1.74036   1.74993   1.75677   1.76096   1.76454
 Alpha virt. eigenvalues --    1.77092   1.77288   1.78493   1.78924   1.79766
 Alpha virt. eigenvalues --    1.80470   1.81385   1.82147   1.82606   1.83053
 Alpha virt. eigenvalues --    1.83360   1.84806   1.85046   1.85863   1.86602
 Alpha virt. eigenvalues --    1.87270   1.88082   1.88812   1.89676   1.90475
 Alpha virt. eigenvalues --    1.91072   1.91550   1.92569   1.92719   1.93951
 Alpha virt. eigenvalues --    1.94604   1.95084   1.95924   1.97199   1.98372
 Alpha virt. eigenvalues --    1.98735   2.00407   2.01137   2.02583   2.03722
 Alpha virt. eigenvalues --    2.05817   2.06515   2.07567   2.09876   2.10419
 Alpha virt. eigenvalues --    2.11375   2.12990   2.14480   2.16131   2.16400
 Alpha virt. eigenvalues --    2.17691   2.18842   2.19219   2.20864   2.26663
 Alpha virt. eigenvalues --    2.32552   2.33440   2.35408   2.39468   2.40434
 Alpha virt. eigenvalues --    2.41133   2.41404   2.41627   2.42780   2.43769
 Alpha virt. eigenvalues --    2.43993   2.45588   2.46687   2.47560   2.49077
 Alpha virt. eigenvalues --    2.50209   2.50315   2.51662   2.52687   2.53297
 Alpha virt. eigenvalues --    2.55476   2.58418   2.59164   2.60055   2.60700
 Alpha virt. eigenvalues --    2.61117   2.61742   2.62102   2.62482   2.62787
 Alpha virt. eigenvalues --    2.63169   2.64042   2.64685   2.64997   2.65955
 Alpha virt. eigenvalues --    2.66259   2.66692   2.67331   2.67562   2.69373
 Alpha virt. eigenvalues --    2.69805   2.70308   2.71221   2.71668   2.72386
 Alpha virt. eigenvalues --    2.72928   2.74352   2.75559   2.76781   2.77480
 Alpha virt. eigenvalues --    2.78949   2.80607   2.81437   2.82453   2.83494
 Alpha virt. eigenvalues --    2.83776   2.84707   2.86693   2.87790   2.88145
 Alpha virt. eigenvalues --    3.14937   3.20749   3.35890   3.41141   3.46705
 Alpha virt. eigenvalues --    3.47813   3.48510   3.48624   3.51065   3.51104
 Alpha virt. eigenvalues --    3.52873   3.53829   3.60311   3.61069   3.62071
 Alpha virt. eigenvalues --    3.66191   4.34862   4.61183   7.94145  31.29295
          Condensed to atoms (all electrons):
               1          2          3          4          5          6
     1  Zr  15.085693  -0.104679  -0.002774  -0.126243  -0.196032  -0.633592
     2  O   -0.104679   9.050278   0.019827  -0.041772  -0.058560   0.082790
     3  O   -0.002774   0.019827   8.826041   0.017102  -0.045848  -0.002015
     4  O   -0.126243  -0.041772   0.017102   8.814039  -0.060068  -0.681935
     5  O   -0.196032  -0.058560  -0.045848  -0.060068   9.424999  -0.008963
     6  Si  -0.633592   0.082790  -0.002015  -0.681935  -0.008963  14.031400
     7  Si  -0.611177  -0.028639  -0.871410  -0.009121  -0.034402   0.082802
     8  Si  -0.634815  -0.991948  -0.019221   0.067695  -0.015586  -0.000713
     9  Si  -0.299686  -0.039904  -0.025578  -0.032260  -1.200865   0.039226
    10  O   -0.014208   0.001006  -0.001753   0.000648   0.124776  -0.002371
    11  O   -0.075267   0.003202   0.003114   0.001517   0.320107  -0.000384
    12  O    0.049176   0.000235   0.004591   0.001958   0.137337  -0.003210
    13  O   -0.027532   0.182831   0.001630  -0.015445  -0.000720   0.033407
    14  O   -0.009679   0.259320  -0.017558  -0.008549   0.001769   0.026891
    15  O   -0.085148   0.292218  -0.000640   0.001221   0.000632   0.000461
    16  O   -0.123148   0.004680  -0.000526   0.347049   0.003257  -0.429290
    17  O   -0.076051  -0.039833   0.008490   0.215673   0.001312  -0.452317
    18  O   -0.025901  -0.014486   0.003752   0.197012  -0.000698  -0.450180
    19  O    0.005053   0.008834   0.266434   0.010223   0.002091  -0.008133
    20  O   -0.144537  -0.000581   0.162780  -0.000810   0.001499   0.009042
    21  O    0.037069   0.010114   0.146545   0.003441   0.000185  -0.011929
    22  H   -0.009121  -0.000013   0.000006  -0.000007   0.006106   0.000088
    23  H   -0.008346  -0.000011  -0.000003  -0.000052  -0.024848   0.000117
    24  H   -0.006268  -0.000129  -0.000010   0.000007  -0.004587   0.000116
    25  H    0.016575  -0.019817  -0.000111  -0.000382   0.000018   0.002937
    26  H    0.007042   0.000773   0.000014  -0.000011  -0.000003  -0.000143
    27  H    0.002104  -0.018768   0.000795  -0.001782   0.000014   0.009556
    28  H    0.004973  -0.000011  -0.018366  -0.000014  -0.000014  -0.000272
    29  H    0.003460  -0.007023  -0.020241  -0.000138  -0.000073   0.000234
    30  H    0.000477  -0.000011   0.000050  -0.000456  -0.000008  -0.000580
    31  H   -0.000044   0.000182  -0.000020  -0.018439  -0.000010   0.063705
    32  H    0.002193  -0.000024   0.000041   0.010442   0.000001   0.022705
    33  H   -0.015479   0.001031  -0.010093  -0.009604  -0.000097   0.052783
               7          8          9         10         11         12
     1  Zr  -0.611177  -0.634815  -0.299686  -0.014208  -0.075267   0.049176
     2  O   -0.028639  -0.991948  -0.039904   0.001006   0.003202   0.000235
     3  O   -0.871410  -0.019221  -0.025578  -0.001753   0.003114   0.004591
     4  O   -0.009121   0.067695  -0.032260   0.000648   0.001517   0.001958
     5  O   -0.034402  -0.015586  -1.200865   0.124776   0.320107   0.137337
     6  Si   0.082802  -0.000713   0.039226  -0.002371  -0.000384  -0.003210
     7  Si  13.792297   0.183919   0.017404  -0.000142  -0.000976   0.003763
     8  Si   0.183919  13.824809   0.028107  -0.001221   0.001253  -0.001340
     9  Si   0.017404   0.028107  14.170993  -0.060426  -0.183858  -0.187152
    10  O   -0.000142  -0.001221  -0.060426   8.517844   0.016273   0.031711
    11  O   -0.000976   0.001253  -0.183858   0.016273   8.523428  -0.054089
    12  O    0.003763  -0.001340  -0.187152   0.031711  -0.054089   8.596303
    13  O    0.007086  -0.095954   0.000200   0.000000   0.000016   0.000004
    14  O    0.008635  -0.364483  -0.001590  -0.000002   0.000003   0.000011
    15  O   -0.002311  -0.304089  -0.000602  -0.000000  -0.000020  -0.000005
    16  O    0.003688  -0.010657  -0.000982   0.000005  -0.000005  -0.000001
    17  O   -0.001574   0.095931   0.002312  -0.000000   0.000003  -0.000006
    18  O   -0.000732   0.076154   0.003980  -0.000001   0.000004  -0.000000
    19  O   -0.413478  -0.016508   0.001024   0.000008  -0.000001  -0.000032
    20  O   -0.109335   0.009800   0.003040   0.000008  -0.000002  -0.000046
    21  O    0.025331  -0.041057  -0.001619  -0.000000   0.000001   0.000014
    22  H   -0.000129   0.000094   0.047315  -0.006668  -0.004922   0.219646
    23  H    0.000065   0.000061   0.080933   0.228869  -0.005862   0.005706
    24  H    0.000043   0.000010   0.036606   0.007172   0.243085  -0.007240
    25  H   -0.000454   0.057142  -0.000209   0.000000  -0.000000  -0.000000
    26  H   -0.000376   0.046291  -0.000041  -0.000000   0.000000  -0.000000
    27  H    0.001639   0.068600   0.000005   0.000000  -0.000000  -0.000000
    28  H    0.056595  -0.000043  -0.000144  -0.000000  -0.000000  -0.000003
    29  H    0.048167   0.022339  -0.000056   0.000000   0.000000  -0.000001
    30  H    0.040455   0.000132   0.000020  -0.000000   0.000000   0.000000
    31  H    0.000154  -0.002053  -0.000046   0.000000  -0.000000   0.000000
    32  H   -0.000669   0.000053   0.000016  -0.000000   0.000000  -0.000000
    33  H    0.020625   0.000002   0.000072  -0.000000   0.000000   0.000000
              13         14         15         16         17         18
     1  Zr  -0.027532  -0.009679  -0.085148  -0.123148  -0.076051  -0.025901
     2  O    0.182831   0.259320   0.292218   0.004680  -0.039833  -0.014486
     3  O    0.001630  -0.017558  -0.000640  -0.000526   0.008490   0.003752
     4  O   -0.015445  -0.008549   0.001221   0.347049   0.215673   0.197012
     5  O   -0.000720   0.001769   0.000632   0.003257   0.001312  -0.000698
     6  Si   0.033407   0.026891   0.000461  -0.429290  -0.452317  -0.450180
     7  Si   0.007086   0.008635  -0.002311   0.003688  -0.001574  -0.000732
     8  Si  -0.095954  -0.364483  -0.304089  -0.010657   0.095931   0.076154
     9  Si   0.000200  -0.001590  -0.000602  -0.000982   0.002312   0.003980
    10  O    0.000000  -0.000002  -0.000000   0.000005  -0.000000  -0.000001
    11  O    0.000016   0.000003  -0.000020  -0.000005   0.000003   0.000004
    12  O    0.000004   0.000011  -0.000005  -0.000001  -0.000006  -0.000000
    13  O    8.626667   0.086357  -0.090161   0.003752  -0.030915  -0.045663
    14  O    0.086357   8.670685   0.055589   0.003669  -0.035977  -0.026963
    15  O   -0.090161   0.055589   8.777511  -0.000174   0.003594   0.001678
    16  O    0.003752   0.003669  -0.000174   8.904464  -0.091896  -0.114851
    17  O   -0.030915  -0.035977   0.003594  -0.091896   8.934901   0.226871
    18  O   -0.045663  -0.026963   0.001678  -0.114851   0.226871   9.011856
    19  O    0.000173  -0.000559   0.000141  -0.001543  -0.030196   0.000149
    20  O    0.000009  -0.000280   0.000036   0.000066  -0.000977   0.000014
    21  O   -0.000271   0.015965  -0.000598  -0.000213  -0.005545   0.000479
    22  H   -0.000000  -0.000000   0.000000   0.000000   0.000000  -0.000000
    23  H    0.000000   0.000000  -0.000000  -0.000000   0.000000   0.000000
    24  H   -0.000000   0.000000   0.000001   0.000000  -0.000000  -0.000000
    25  H    0.218501  -0.011860   0.008906  -0.000059   0.000630   0.014956
    26  H   -0.005097  -0.010133   0.216850   0.000000  -0.000002   0.000006
    27  H   -0.009616   0.219717   0.004644   0.000181   0.017956  -0.000234
    28  H    0.000000  -0.000005  -0.000001  -0.000000   0.000004  -0.000000
    29  H    0.000806   0.017528  -0.002579  -0.000004  -0.000392   0.000007
    30  H    0.000001   0.000005   0.000000   0.000113  -0.000404  -0.000007
    31  H    0.002360   0.000171  -0.000018   0.003743  -0.000724   0.218166
    32  H   -0.000008  -0.000006   0.000000   0.233395  -0.003640   0.003868
    33  H    0.000227   0.002104  -0.000035  -0.000097   0.231021   0.002106
              19         20         21         22         23         24
     1  Zr   0.005053  -0.144537   0.037069  -0.009121  -0.008346  -0.006268
     2  O    0.008834  -0.000581   0.010114  -0.000013  -0.000011  -0.000129
     3  O    0.266434   0.162780   0.146545   0.000006  -0.000003  -0.000010
     4  O    0.010223  -0.000810   0.003441  -0.000007  -0.000052   0.000007
     5  O    0.002091   0.001499   0.000185   0.006106  -0.024848  -0.004587
     6  Si  -0.008133   0.009042  -0.011929   0.000088   0.000117   0.000116
     7  Si  -0.413478  -0.109335   0.025331  -0.000129   0.000065   0.000043
     8  Si  -0.016508   0.009800  -0.041057   0.000094   0.000061   0.000010
     9  Si   0.001024   0.003040  -0.001619   0.047315   0.080933   0.036606
    10  O    0.000008   0.000008  -0.000000  -0.006668   0.228869   0.007172
    11  O   -0.000001  -0.000002   0.000001  -0.004922  -0.005862   0.243085
    12  O   -0.000032  -0.000046   0.000014   0.219646   0.005706  -0.007240
    13  O    0.000173   0.000009  -0.000271  -0.000000   0.000000  -0.000000
    14  O   -0.000559  -0.000280   0.015965  -0.000000   0.000000   0.000000
    15  O    0.000141   0.000036  -0.000598   0.000000  -0.000000   0.000001
    16  O   -0.001543   0.000066  -0.000213   0.000000  -0.000000   0.000000
    17  O   -0.030196  -0.000977  -0.005545   0.000000   0.000000  -0.000000
    18  O    0.000149   0.000014   0.000479  -0.000000   0.000000  -0.000000
    19  O    8.874251   0.032273   0.023350  -0.000000   0.000000  -0.000000
    20  O    0.032273   8.657516  -0.050497   0.000000   0.000000  -0.000000
    21  O    0.023350  -0.050497   8.484606  -0.000000   0.000000   0.000000
    22  H   -0.000000   0.000000  -0.000000   0.362624   0.000063   0.000122
    23  H    0.000000   0.000000   0.000000   0.000063   0.351284   0.000018
    24  H   -0.000000  -0.000000   0.000000   0.000122   0.000018   0.365294
    25  H   -0.000024   0.000000  -0.000019   0.000000   0.000000   0.000000
    26  H    0.000001  -0.000000   0.000040  -0.000000  -0.000000  -0.000000
    27  H    0.000039   0.000193  -0.004019  -0.000000  -0.000000   0.000000
    28  H    0.004630   0.229608  -0.002036  -0.000000   0.000000  -0.000000
    29  H   -0.008568   0.007673   0.206459   0.000000  -0.000000  -0.000000
    30  H    0.224109  -0.001461  -0.007145   0.000000  -0.000000  -0.000000
    31  H    0.000004  -0.000000  -0.000000  -0.000000  -0.000000   0.000000
    32  H    0.000097  -0.000000   0.000001  -0.000000  -0.000000  -0.000000
    33  H    0.014803  -0.000080   0.001471  -0.000000  -0.000000  -0.000000
              25         26         27         28         29         30
     1  Zr   0.016575   0.007042   0.002104   0.004973   0.003460   0.000477
     2  O   -0.019817   0.000773  -0.018768  -0.000011  -0.007023  -0.000011
     3  O   -0.000111   0.000014   0.000795  -0.018366  -0.020241   0.000050
     4  O   -0.000382  -0.000011  -0.001782  -0.000014  -0.000138  -0.000456
     5  O    0.000018  -0.000003   0.000014  -0.000014  -0.000073  -0.000008
     6  Si   0.002937  -0.000143   0.009556  -0.000272   0.000234  -0.000580
     7  Si  -0.000454  -0.000376   0.001639   0.056595   0.048167   0.040455
     8  Si   0.057142   0.046291   0.068600  -0.000043   0.022339   0.000132
     9  Si  -0.000209  -0.000041   0.000005  -0.000144  -0.000056   0.000020
    10  O    0.000000  -0.000000   0.000000  -0.000000   0.000000  -0.000000
    11  O   -0.000000   0.000000  -0.000000  -0.000000   0.000000   0.000000
    12  O   -0.000000  -0.000000  -0.000000  -0.000003  -0.000001   0.000000
    13  O    0.218501  -0.005097  -0.009616   0.000000   0.000806   0.000001
    14  O   -0.011860  -0.010133   0.219717  -0.000005   0.017528   0.000005
    15  O    0.008906   0.216850   0.004644  -0.000001  -0.002579   0.000000
    16  O   -0.000059   0.000000   0.000181  -0.000000  -0.000004   0.000113
    17  O    0.000630  -0.000002   0.017956   0.000004  -0.000392  -0.000404
    18  O    0.014956   0.000006  -0.000234  -0.000000   0.000007  -0.000007
    19  O   -0.000024   0.000001   0.000039   0.004630  -0.008568   0.224109
    20  O    0.000000  -0.000000   0.000193   0.229608   0.007673  -0.001461
    21  O   -0.000019   0.000040  -0.004019  -0.002036   0.206459  -0.007145
    22  H    0.000000  -0.000000  -0.000000  -0.000000   0.000000   0.000000
    23  H    0.000000  -0.000000  -0.000000   0.000000  -0.000000  -0.000000
    24  H    0.000000  -0.000000   0.000000  -0.000000  -0.000000  -0.000000
    25  H    0.298970  -0.000011   0.000107   0.000000   0.000001   0.000000
    26  H   -0.000011   0.366158   0.000035   0.000000   0.000021  -0.000000
    27  H    0.000107   0.000035   0.283417  -0.000000  -0.001491   0.000009
    28  H    0.000000   0.000000  -0.000000   0.349102  -0.000017  -0.000016
    29  H    0.000001   0.000021  -0.001491  -0.000017   0.285904   0.000156
    30  H    0.000000  -0.000000   0.000009  -0.000016   0.000156   0.334294
    31  H   -0.000495   0.000000   0.000012  -0.000000   0.000000  -0.000000
    32  H   -0.000001   0.000000  -0.000000   0.000000  -0.000000  -0.000000
    33  H    0.000006  -0.000000  -0.002412  -0.000002   0.000098  -0.001160
              31         32         33
     1  Zr  -0.000044   0.002193  -0.015479
     2  O    0.000182  -0.000024   0.001031
     3  O   -0.000020   0.000041  -0.010093
     4  O   -0.018439   0.010442  -0.009604
     5  O   -0.000010   0.000001  -0.000097
     6  Si   0.063705   0.022705   0.052783
     7  Si   0.000154  -0.000669   0.020625
     8  Si  -0.002053   0.000053   0.000002
     9  Si  -0.000046   0.000016   0.000072
    10  O    0.000000  -0.000000  -0.000000
    11  O   -0.000000   0.000000   0.000000
    12  O    0.000000  -0.000000   0.000000
    13  O    0.002360  -0.000008   0.000227
    14  O    0.000171  -0.000006   0.002104
    15  O   -0.000018   0.000000  -0.000035
    16  O    0.003743   0.233395  -0.000097
    17  O   -0.000724  -0.003640   0.231021
    18  O    0.218166   0.003868   0.002106
    19  O    0.000004   0.000097   0.014803
    20  O   -0.000000  -0.000000  -0.000080
    21  O   -0.000000   0.000001   0.001471
    22  H   -0.000000  -0.000000  -0.000000
    23  H   -0.000000  -0.000000  -0.000000
    24  H    0.000000  -0.000000  -0.000000
    25  H   -0.000495  -0.000001   0.000006
    26  H    0.000000   0.000000  -0.000000
    27  H    0.000012  -0.000000  -0.002412
    28  H   -0.000000   0.000000  -0.000002
    29  H    0.000000  -0.000000   0.000098
    30  H   -0.000000  -0.000000  -0.001160
    31  H    0.331470   0.000002  -0.000038
    32  H    0.000002   0.350145   0.000157
    33  H   -0.000038   0.000157   0.269337
 Mulliken charges:
               1
     1  Zr   0.015912
     2  O   -0.551111
     3  O   -0.425045
     4  O   -0.680939
     5  O   -0.372721
     6  Si   2.227769
     7  Si   1.792258
     8  Si   2.017298
     9  Si   1.603767
    10  O   -0.841524
    11  O   -0.786620
    12  O   -0.797330
    13  O   -0.842646
    14  O   -0.880776
    15  O   -0.877101
    16  O   -0.734615
    17  O   -0.968250
    18  O   -1.081343
    19  O   -0.988644
    20  O   -0.804952
    21  O   -0.830121
    22  H    0.384796
    23  H    0.372005
    24  H    0.365761
    25  H    0.414693
    26  H    0.378588
    27  H    0.429299
    28  H    0.376032
    29  H    0.447730
    30  H    0.411428
    31  H    0.401920
    32  H    0.381232
    33  H    0.443252
 Sum of Mulliken charges =  -0.00000
 Mulliken charges with hydrogens summed into heavy atoms:
               1
     1  Zr   0.015912
     2  O   -0.551111
     3  O   -0.425045
     4  O   -0.680939
     5  O   -0.372721
     6  Si   2.227769
     7  Si   1.792258
     8  Si   2.017298
     9  Si   1.603767
    10  O   -0.469520
    11  O   -0.420860
    12  O   -0.412534
    13  O   -0.427953
    14  O   -0.451477
    15  O   -0.498513
    16  O   -0.353383
    17  O   -0.524998
    18  O   -0.679423
    19  O   -0.577216
    20  O   -0.428920
    21  O   -0.382391
 Electronic spatial extent (au):  <R**2>=           9869.1486
 Charge=              0.0000 electrons
 Dipole moment (field-independent basis, Debye):
    X=              1.0999    Y=             -0.8527    Z=             -2.6101  Tot=              2.9579
 Quadrupole moment (field-independent basis, Debye-Ang):
   XX=           -160.1072   YY=           -154.5958   ZZ=           -157.7720
   XY=             -5.1941   XZ=              1.7903   YZ=              5.5570
 Traceless Quadrupole moment (field-independent basis, Debye-Ang):
   XX=             -2.6155   YY=              2.8958   ZZ=             -0.2803
   XY=             -5.1941   XZ=              1.7903   YZ=              5.5570
 Octapole moment (field-independent basis, Debye-Ang**2):
  XXX=             74.5224  YYY=              4.4740  ZZZ=            -24.2609  XYY=             -3.8419
  XXY=             19.4620  XXZ=             19.9477  XZZ=              7.7201  YZZ=            -15.8090
  YYZ=            -11.9373  XYZ=             26.8582
 Hexadecapole moment (field-independent basis, Debye-Ang**3):
 XXXX=          -6034.2096 YYYY=          -2823.0715 ZZZZ=          -2261.4039 XXXY=             56.8798
 XXXZ=             -5.2119 YYYX=             -3.9856 YYYZ=            209.9605 ZZZX=           -210.2008
 ZZZY=            -49.6311 XXYY=          -1502.4043 XXZZ=          -1339.4154 YYZZ=           -930.2839
 XXYZ=            -15.7502 YYXZ=            150.1415 ZZXY=            -54.5045
 N-N= 2.832733529546D+03 E-N=-1.137807397377D+04  KE= 2.373155082736D+03
 PrsmSu:  requested number of processors reduced to:   2 ShMem   1 Linda.
 PrsmSu:  requested number of processors reduced to:  10 ShMem   1 Linda.
   1 Symmetry operations used in ECPInt.
 ECPInt:  NShTT=   13203 NPrTT=   78401 LenC2=   11525 LenP2D=   44625.
 LDataN:  DoStor=T MaxTD1= 9 Len=  602
 Number of processors reduced to  14 by ecpmxn.
 Calling FoFJK, ICntrl=      2127 FMM=F ISym2X=0 I1Cent= 0 IOpClX= 0 NMat=1 NMatS=1 NMatT=0.
 CoulSu:  requested number of processors reduced to:  10 ShMem   1 Linda.
 Defaulting to unpruned grid for atomic number  40.
 Defaulting to unpruned grid for atomic number  40.
 Defaulting to unpruned grid for atomic number  40.
 Defaulting to unpruned grid for atomic number  40.
 Defaulting to unpruned grid for atomic number  40.
 Defaulting to unpruned grid for atomic number  40.
 Defaulting to unpruned grid for atomic number  40.
 Defaulting to unpruned grid for atomic number  40.
 Defaulting to unpruned grid for atomic number  40.
 Defaulting to unpruned grid for atomic number  40.
 Defaulting to unpruned grid for atomic number  40.
 Defaulting to unpruned grid for atomic number  40.
 Defaulting to unpruned grid for atomic number  40.
 Defaulting to unpruned grid for atomic number  40.
 Defaulting to unpruned grid for atomic number  40.
 Defaulting to unpruned grid for atomic number  40.
 ***** Axes restored to original set *****
 -------------------------------------------------------------------
 Center     Atomic                   Forces (Hartrees/Bohr)
 Number     Number              X              Y              Z
 -------------------------------------------------------------------
      1       40          -0.000003479    0.000042820    0.000623561
      2        8          -0.000061741   -0.000038562   -0.000227895
      3        8           0.000064244    0.000056119   -0.000074216
      4        8           0.000009351   -0.000069277   -0.000096717
      5        8           0.000081599   -0.000098337   -0.000412649
      6       14          -0.000049679    0.000047428    0.000065540
      7       14          -0.000045980   -0.000004300    0.000086608
      8       14           0.000109456    0.000074393    0.000141212
      9       14          -0.000082275    0.000182449    0.000347854
     10        8           0.000005352   -0.000048716   -0.000087298
     11        8          -0.000000216   -0.000116598   -0.000035873
     12        8          -0.000033563   -0.000043755   -0.000104710
     13        8          -0.000027407   -0.000056652   -0.000043181
     14        8          -0.000037730    0.000009395   -0.000056626
     15        8          -0.000051617   -0.000026235   -0.000061185
     16        8           0.000016015   -0.000013612   -0.000030447
     17        8           0.000029269   -0.000023265   -0.000040437
     18        8           0.000006076   -0.000006199   -0.000018458
     19        8           0.000003197    0.000000910   -0.000022543
     20        8           0.000029619    0.000003629   -0.000008478
     21        8           0.000006099    0.000007508   -0.000058494
     22        1           0.000007307    0.000001956   -0.000000555
     23        1           0.000029088    0.000002215    0.000001229
     24        1           0.000009912    0.000089736    0.000010679
     25        1          -0.000000097    0.000015339    0.000022742
     26        1           0.000009350    0.000006785    0.000002246
     27        1           0.000001449    0.000007746    0.000032399
     28        1          -0.000008482    0.000001539    0.000004137
     29        1           0.000011525   -0.000009040    0.000020689
     30        1           0.000001384   -0.000001021    0.000005605
     31        1          -0.000003792   -0.000002352   -0.000001682
     32        1          -0.000019918    0.000004009    0.000005339
     33        1          -0.000004316    0.000003942    0.000011603
 -------------------------------------------------------------------
 Cartesian Forces:  Max     0.000623561 RMS     0.000098352

 GradGradGradGradGradGradGradGradGradGradGradGradGradGradGradGradGradGrad
 Berny optimization.
 FormGI is forming the generalized inverse of G from B-inverse, IUseBI=4.
 Internal  Forces:  Max     0.000280340 RMS     0.000056883
 Search for a local minimum.
 Step number   1 out of a maximum of  148
 All quantities printed in internal units (Hartrees-Bohrs-Radians)
 Mixed Optimization -- En-DIIS/RFO-DIIS
 Second derivative matrix not updated -- first step.
 ITU=  0
     Eigenvalues ---    0.00230   0.00230   0.00230   0.00230   0.03240
     Eigenvalues ---    0.03358   0.03498   0.03580   0.03665   0.03666
     Eigenvalues ---    0.03680   0.03686   0.03693   0.03739   0.03789
     Eigenvalues ---    0.03792   0.03816   0.03833   0.03850   0.03857
     Eigenvalues ---    0.08405   0.09407   0.11077   0.11224   0.11819
     Eigenvalues ---    0.11833   0.11884   0.12136   0.12177   0.12239
     Eigenvalues ---    0.12563   0.12783   0.12895   0.13099   0.13313
     Eigenvalues ---    0.16000   0.16000   0.16000   0.16000   0.16000
     Eigenvalues ---    0.16000   0.16000   0.16000   0.16000   0.16000
     Eigenvalues ---    0.16000   0.16000   0.19173   0.19893   0.20028
     Eigenvalues ---    0.20179   0.20203   0.20204   0.20208   0.20516
     Eigenvalues ---    0.20653   0.20795   0.20989   0.21175   0.21186
     Eigenvalues ---    0.21263   0.25000   0.25000   0.25000   0.38002
     Eigenvalues ---    0.39186   0.40660   0.41547   0.42502   0.42510
     Eigenvalues ---    0.42670   0.42743   0.42823   0.43363   0.43950
     Eigenvalues ---    0.43981   0.44273   0.44483   0.44689   0.44768
     Eigenvalues ---    0.50654   0.51353   0.52034   0.52548   0.54334
     Eigenvalues ---    0.54623   0.54642   0.54649   0.54690   0.54692
     Eigenvalues ---    0.54712   0.547641000.000001000.000001000.00000
     Eigenvalues --- 1000.000001000.000001000.000001000.000001000.00000
     Eigenvalues --- 1000.000001000.000001000.000001000.000001000.00000
     Eigenvalues --- 1000.000001000.000001000.000001000.000001000.00000
     Eigenvalues --- 1000.000001000.000001000.000001000.000001000.00000
     Eigenvalues --- 1000.000001000.000001000.000001000.000001000.00000
     Eigenvalues --- 1000.000001000.000001000.000001000.000001000.00000
     Eigenvalues --- 1000.000001000.000001000.000001000.000001000.00000
     Eigenvalues --- 1000.000001000.000001000.000001000.000001000.00000
     Eigenvalues --- 1000.000001000.000001000.00000
 RFO step:  Lambda=-1.75208010D-05 EMin= 2.30000000D-03
 Linear search not attempted -- first point.
 Iteration  1 RMS(Cart)=  0.03362700 RMS(Int)=  0.00044533
 Iteration  2 RMS(Cart)=  0.00071559 RMS(Int)=  0.00000022
 Iteration  3 RMS(Cart)=  0.00000022 RMS(Int)=  0.00000020
 Iteration  1 RMS(Cart)=  0.00000000 RMS(Int)=  0.00000000
 Variable       Old X    -DE/DX   Delta X   Delta X   Delta X     New X
                                 (Linear)    (Quad)   (Total)
    R1        3.67647  -0.00013   0.00000  -0.00062  -0.00062   3.67585
    R2        3.69189   0.00004   0.00000   0.00021   0.00021   3.69209
    R3        3.73835   0.00011   0.00000   0.00060   0.00060   3.73895
    R4        3.70232   0.00001   0.00000   0.00006   0.00006   3.70237
    R5        3.11687   0.00001   0.00000   0.00002   0.00002   3.11689
    R6        3.09581   0.00000   0.00000   0.00001   0.00001   3.09582
    R7        3.10214   0.00002   0.00000   0.00005   0.00005   3.10219
    R8        3.09246  -0.00005   0.00000  -0.00010  -0.00010   3.09235
    R9        3.11588   0.00003   0.00000   0.00006   0.00006   3.11595
   R10        3.11989  -0.00004   0.00000  -0.00009  -0.00009   3.11980
   R11        3.14366  -0.00001   0.00000  -0.00001  -0.00001   3.14365
   R12        3.18062   0.00001   0.00000   0.00003   0.00003   3.18065
   R13        3.10924   0.00001   0.00000   0.00003   0.00003   3.10926
   R14        3.09339  -0.00004   0.00000  -0.00009  -0.00009   3.09330
   R15        3.10177   0.00005   0.00000   0.00012   0.00012   3.10189
   R16        3.16374   0.00004   0.00000   0.00011   0.00011   3.16385
   R17        3.09830  -0.00006   0.00000  -0.00015  -0.00015   3.09815
   R18        3.11979   0.00009   0.00000   0.00021   0.00021   3.12000
   R19        3.13204   0.00001   0.00000   0.00003   0.00003   3.13207
   R20        3.11779  -0.00009   0.00000  -0.00021  -0.00021   3.11758
   R21        1.82152   0.00001   0.00000   0.00001   0.00001   1.82153
   R22        1.82107  -0.00003   0.00000  -0.00006  -0.00006   1.82101
   R23        1.82088   0.00001   0.00000   0.00001   0.00001   1.82090
   R24        1.84078  -0.00003   0.00000  -0.00005  -0.00005   1.84073
   R25        1.84566  -0.00003   0.00000  -0.00006  -0.00006   1.84560
   R26        1.82042  -0.00001   0.00000  -0.00001  -0.00001   1.82041
   R27        1.82108  -0.00002   0.00000  -0.00003  -0.00003   1.82105
   R28        1.85911  -0.00000   0.00000  -0.00000  -0.00000   1.85911
   R29        1.82145   0.00000   0.00000   0.00001   0.00001   1.82146
   R30        1.82429  -0.00000   0.00000  -0.00001  -0.00001   1.82428
   R31        1.82168   0.00000   0.00000   0.00001   0.00001   1.82169
   R32        1.85224   0.00001   0.00000   0.00003   0.00003   1.85227
    A1        1.85173   0.00002   0.00000   0.00061   0.00061   1.85234
    A2        1.80155  -0.00008   0.00000  -0.00031  -0.00031   1.80124
    A3        1.96889   0.00025   0.00000   0.00186   0.00186   1.97075
    A4        1.83430   0.00005   0.00000  -0.00038  -0.00038   1.83392
    A5        2.01802  -0.00013   0.00000  -0.00074  -0.00074   2.01728
    A6        1.97057  -0.00011   0.00000  -0.00105  -0.00105   1.96952
    A7        2.46524   0.00002   0.00000   0.00008   0.00008   2.46532
    A8        2.58825  -0.00004   0.00000  -0.00015  -0.00015   2.58810
    A9        2.35482   0.00003   0.00000   0.00011   0.00011   2.35494
   A10        2.86714  -0.00028   0.00000   0.00000  -0.00000   2.86714
   A11        1.91978  -0.00000   0.00000  -0.00005  -0.00005   1.91972
   A12        1.91547   0.00001   0.00000   0.00006   0.00006   1.91553
   A13        1.95201   0.00001   0.00000   0.00005   0.00005   1.95205
   A14        2.00709  -0.00001   0.00000  -0.00006  -0.00006   2.00702
   A15        1.88610  -0.00002   0.00000  -0.00011  -0.00011   1.88599
   A16        1.78001   0.00002   0.00000   0.00013   0.00013   1.78014
   A17        1.80238  -0.00001   0.00000  -0.00007  -0.00007   1.80231
   A18        1.99614  -0.00001   0.00000  -0.00008  -0.00008   1.99606
[...]
 Alpha virt. eigenvalues --    3.66202   4.32603   4.59705   7.89990  31.29237
          Condensed to atoms (all electrons):
               1          2          3          4          5          6
     1  Zr  15.086839  -0.125870  -0.001740  -0.134864  -0.192969  -0.598041
     2  O   -0.125870   9.064078   0.019585  -0.042552  -0.057499   0.088845
     3  O   -0.001740   0.019585   8.828229   0.015756  -0.043946  -0.004104
     4  O   -0.134864  -0.042552   0.015756   8.809534  -0.060049  -0.672607
     5  O   -0.192969  -0.057499  -0.043946  -0.060049   9.428675  -0.006998
     6  Si  -0.598041   0.088845  -0.004104  -0.672607  -0.006998  13.983030
     7  Si  -0.614855  -0.028156  -0.875598  -0.007054  -0.033878   0.084221
     8  Si  -0.587907  -0.999526  -0.020230   0.071345  -0.014257  -0.017208
     9  Si  -0.321027  -0.040643  -0.026496  -0.033158  -1.233106   0.038765
    10  O   -0.014021   0.001025  -0.002033   0.000958   0.130146  -0.002422
    11  O   -0.064533   0.003432   0.002987   0.001225   0.314098  -0.000804
    12  O    0.042520  -0.000013   0.004691   0.002082   0.154224  -0.002974
    13  O   -0.036635   0.186516   0.001650  -0.015653  -0.000674   0.035559
    14  O   -0.018111   0.263516  -0.017611  -0.008744   0.001908   0.029048
    15  O   -0.083395   0.292777  -0.000692   0.001236   0.000582  -0.000075
    16  O   -0.125162   0.004684  -0.000505   0.344359   0.003210  -0.421977
    17  O   -0.080975  -0.039965   0.008000   0.218471   0.001299  -0.453154
    18  O   -0.027041  -0.014462   0.003739   0.198149  -0.000609  -0.450114
    19  O    0.001177   0.008985   0.264999   0.010185   0.002128  -0.007470
    20  O   -0.145851  -0.000574   0.163890  -0.000860   0.001476   0.009054
    21  O    0.036091   0.010331   0.146352   0.003406   0.000211  -0.011881
    22  H   -0.008962  -0.000018  -0.000013  -0.000009   0.005772   0.000086
    23  H   -0.007676  -0.000013  -0.000006  -0.000056  -0.025285   0.000086
    24  H   -0.005248  -0.000190  -0.000011   0.000003  -0.005399   0.000071
    25  H    0.017081  -0.020011  -0.000111  -0.000311   0.000019   0.002611
    26  H    0.007276   0.000626   0.000014  -0.000011  -0.000004  -0.000149
    27  H    0.004344  -0.019220   0.000839  -0.001704   0.000010   0.008746
    28  H    0.005074  -0.000011  -0.018417  -0.000014  -0.000015  -0.000281
    29  H    0.004229  -0.007075  -0.020286  -0.000141  -0.000074   0.000137
    30  H    0.000725  -0.000012   0.000055  -0.000453  -0.000008  -0.000660
    31  H   -0.000202   0.000172  -0.000020  -0.018458  -0.000009   0.063875
    32  H    0.002089  -0.000024   0.000040   0.010330   0.000001   0.022987
    33  H   -0.016070   0.001024  -0.010106  -0.009609  -0.000101   0.053310
               7          8          9         10         11         12
     1  Zr  -0.614855  -0.587907  -0.321027  -0.014021  -0.064533   0.042520
     2  O   -0.028156  -0.999526  -0.040643   0.001025   0.003432  -0.000013
     3  O   -0.875598  -0.020230  -0.026496  -0.002033   0.002987   0.004691
     4  O   -0.007054   0.071345  -0.033158   0.000958   0.001225   0.002082
     5  O   -0.033878  -0.014257  -1.233106   0.130146   0.314098   0.154224
     6  Si   0.084221  -0.017208   0.038765  -0.002422  -0.000804  -0.002974
     7  Si  13.795290   0.182182   0.020016  -0.000250  -0.000870   0.004010
     8  Si   0.182182  13.804603   0.026120  -0.000990   0.001188  -0.000826
     9  Si   0.020016   0.026120  14.261661  -0.069270  -0.182218  -0.213151
    10  O   -0.000250  -0.000990  -0.069270   8.524822   0.014665   0.031818
    11  O   -0.000870   0.001188  -0.182218   0.014665   8.517604  -0.050721
    12  O    0.004010  -0.000826  -0.213151   0.031818  -0.050721   8.601145
    13  O    0.007325  -0.095367   0.000232   0.000000   0.000018   0.000009
    14  O    0.009489  -0.368258  -0.001477  -0.000002   0.000001   0.000017
    15  O   -0.002573  -0.304417  -0.000639   0.000000  -0.000024  -0.000016
    16  O    0.003796  -0.010280  -0.001025   0.000005  -0.000003  -0.000001
    17  O   -0.000711   0.096711   0.002549  -0.000001   0.000002  -0.000006
    18  O   -0.000702   0.074674   0.004191  -0.000002  -0.000001  -0.000001
    19  O   -0.408987  -0.016036   0.001045   0.000007  -0.000002  -0.000022
    20  O   -0.108881   0.009659   0.003161   0.000002  -0.000003  -0.000029
    21  O    0.024338  -0.040200  -0.001811   0.000001   0.000001   0.000024
    22  H   -0.000185   0.000089   0.047312  -0.006546  -0.005071   0.219704
    23  H    0.000060   0.000062   0.081075   0.228630  -0.006169   0.005905
    24  H    0.000054  -0.000090   0.037233   0.007357   0.242441  -0.007439
    25  H   -0.000461   0.057387  -0.000212   0.000000  -0.000000  -0.000000
    26  H   -0.000380   0.046075  -0.000043  -0.000000   0.000000  -0.000000
    27  H    0.001321   0.068434  -0.000008   0.000000  -0.000000  -0.000000
    28  H    0.056615  -0.000068  -0.000136  -0.000000  -0.000000  -0.000004
    29  H    0.048135   0.021912  -0.000057   0.000000   0.000000  -0.000001
    30  H    0.040288   0.000111   0.000023  -0.000000   0.000000   0.000000
    31  H    0.000155  -0.001971  -0.000052   0.000000  -0.000000   0.000000
    32  H   -0.000664   0.000054   0.000009  -0.000000   0.000000  -0.000000
    33  H    0.020630   0.000118   0.000077  -0.000000   0.000000   0.000000
              13         14         15         16         17         18
     1  Zr  -0.036635  -0.018111  -0.083395  -0.125162  -0.080975  -0.027041
     2  O    0.186516   0.263516   0.292777   0.004684  -0.039965  -0.014462
     3  O    0.001650  -0.017611  -0.000692  -0.000505   0.008000   0.003739
     4  O   -0.015653  -0.008744   0.001236   0.344359   0.218471   0.198149
     5  O   -0.000674   0.001908   0.000582   0.003210   0.001299  -0.000609
     6  Si   0.035559   0.029048  -0.000075  -0.421977  -0.453154  -0.450114
     7  Si   0.007325   0.009489  -0.002573   0.003796  -0.000711  -0.000702
     8  Si  -0.095367  -0.368258  -0.304417  -0.010280   0.096711   0.074674
     9  Si   0.000232  -0.001477  -0.000639  -0.001025   0.002549   0.004191
    10  O    0.000000  -0.000002   0.000000   0.000005  -0.000001  -0.000002
    11  O    0.000018   0.000001  -0.000024  -0.000003   0.000002  -0.000001
    12  O    0.000009   0.000017  -0.000016  -0.000001  -0.000006  -0.000001
    13  O    8.628128   0.087150  -0.090618   0.003732  -0.030901  -0.045591
    14  O    0.087150   8.674548   0.055565   0.003664  -0.035812  -0.026849
    15  O   -0.090618   0.055565   8.776767  -0.000174   0.003600   0.001674
    16  O    0.003732   0.003664  -0.000174   8.901565  -0.092098  -0.115218
    17  O   -0.030901  -0.035812   0.003600  -0.092098   8.936026   0.227917
    18  O   -0.045591  -0.026849   0.001674  -0.115218   0.227917   9.012172
    19  O    0.000182  -0.000442   0.000139  -0.001555  -0.030040   0.000167
    20  O    0.000008  -0.000247   0.000039   0.000065  -0.000980   0.000015
    21  O   -0.000251   0.016001  -0.000614  -0.000213  -0.005575   0.000477
    22  H   -0.000000  -0.000000  -0.000000   0.000000   0.000000  -0.000000
    23  H    0.000000   0.000000  -0.000000  -0.000000   0.000000  -0.000000
    24  H   -0.000000   0.000000   0.000002   0.000000  -0.000000  -0.000000
    25  H    0.218382  -0.011970   0.008903  -0.000049   0.000621   0.014863
    26  H   -0.005130  -0.010091   0.217064   0.000000  -0.000003   0.000006
    27  H   -0.009727   0.219314   0.004635   0.000183   0.017925  -0.000250
    28  H   -0.000000  -0.000005  -0.000001  -0.000000   0.000004  -0.000000
    29  H    0.000796   0.017579  -0.002572  -0.000004  -0.000395   0.000006
    30  H    0.000001   0.000001   0.000000   0.000115  -0.000396  -0.000007
    31  H    0.002352   0.000165  -0.000018   0.003700  -0.000725   0.218205
    32  H   -0.000008  -0.000006   0.000000   0.233341  -0.003670   0.003921
    33  H    0.000230   0.002088  -0.000035  -0.000098   0.230989   0.002091
              19         20         21         22         23         24
     1  Zr   0.001177  -0.145851   0.036091  -0.008962  -0.007676  -0.005248
     2  O    0.008985  -0.000574   0.010331  -0.000018  -0.000013  -0.000190
     3  O    0.264999   0.163890   0.146352  -0.000013  -0.000006  -0.000011
     4  O    0.010185  -0.000860   0.003406  -0.000009  -0.000056   0.000003
     5  O    0.002128   0.001476   0.000211   0.005772  -0.025285  -0.005399
     6  Si  -0.007470   0.009054  -0.011881   0.000086   0.000086   0.000071
     7  Si  -0.408987  -0.108881   0.024338  -0.000185   0.000060   0.000054
     8  Si  -0.016036   0.009659  -0.040200   0.000089   0.000062  -0.000090
     9  Si   0.001045   0.003161  -0.001811   0.047312   0.081075   0.037233
    10  O    0.000007   0.000002   0.000001  -0.006546   0.228630   0.007357
    11  O   -0.000002  -0.000003   0.000001  -0.005071  -0.006169   0.242441
    12  O   -0.000022  -0.000029   0.000024   0.219704   0.005905  -0.007439
    13  O    0.000182   0.000008  -0.000251  -0.000000   0.000000  -0.000000
    14  O   -0.000442  -0.000247   0.016001  -0.000000   0.000000   0.000000
    15  O    0.000139   0.000039  -0.000614  -0.000000  -0.000000   0.000002
    16  O   -0.001555   0.000065  -0.000213   0.000000  -0.000000   0.000000
    17  O   -0.030040  -0.000980  -0.005575   0.000000   0.000000  -0.000000
    18  O    0.000167   0.000015   0.000477  -0.000000  -0.000000  -0.000000
    19  O    8.872690   0.032274   0.023427  -0.000000   0.000000  -0.000000
    20  O    0.032274   8.656934  -0.050457   0.000000   0.000000  -0.000000
    21  O    0.023427  -0.050457   8.485601  -0.000000   0.000000   0.000000
    22  H   -0.000000   0.000000  -0.000000   0.361709   0.000056   0.000122
    23  H    0.000000   0.000000   0.000000   0.000056   0.351040   0.000014
    24  H   -0.000000  -0.000000   0.000000   0.000122   0.000014   0.365206
    25  H   -0.000024   0.000000  -0.000019   0.000000   0.000000   0.000000
    26  H    0.000001  -0.000000   0.000039  -0.000000  -0.000000  -0.000000
    27  H    0.000031   0.000192  -0.004016  -0.000000  -0.000000   0.000000
    28  H    0.004630   0.229624  -0.002083  -0.000000   0.000000  -0.000000
    29  H   -0.008562   0.007664   0.206443   0.000000   0.000000  -0.000000
    30  H    0.224201  -0.001488  -0.007144   0.000000   0.000000  -0.000000
    31  H    0.000004  -0.000000  -0.000000  -0.000000  -0.000000   0.000000
    32  H    0.000097   0.000000   0.000001  -0.000000  -0.000000  -0.000000
    33  H    0.014858  -0.000082   0.001473  -0.000000  -0.000000  -0.000000
              25         26         27         28         29         30
     1  Zr   0.017081   0.007276   0.004344   0.005074   0.004229   0.000725
     2  O   -0.020011   0.000626  -0.019220  -0.000011  -0.007075  -0.000012
     3  O   -0.000111   0.000014   0.000839  -0.018417  -0.020286   0.000055
     4  O   -0.000311  -0.000011  -0.001704  -0.000014  -0.000141  -0.000453
     5  O    0.000019  -0.000004   0.000010  -0.000015  -0.000074  -0.000008
     6  Si   0.002611  -0.000149   0.008746  -0.000281   0.000137  -0.000660
     7  Si  -0.000461  -0.000380   0.001321   0.056615   0.048135   0.040288
     8  Si   0.057387   0.046075   0.068434  -0.000068   0.021912   0.000111
     9  Si  -0.000212  -0.000043  -0.000008  -0.000136  -0.000057   0.000023
    10  O    0.000000  -0.000000   0.000000  -0.000000   0.000000  -0.000000
    11  O   -0.000000   0.000000  -0.000000  -0.000000   0.000000   0.000000
    12  O   -0.000000  -0.000000  -0.000000  -0.000004  -0.000001   0.000000
    13  O    0.218382  -0.005130  -0.009727  -0.000000   0.000796   0.000001
    14  O   -0.011970  -0.010091   0.219314  -0.000005   0.017579   0.000001
    15  O    0.008903   0.217064   0.004635  -0.000001  -0.002572   0.000000
    16  O   -0.000049   0.000000   0.000183  -0.000000  -0.000004   0.000115
    17  O    0.000621  -0.000003   0.017925   0.000004  -0.000395  -0.000396
    18  O    0.014863   0.000006  -0.000250  -0.000000   0.000006  -0.000007
    19  O   -0.000024   0.000001   0.000031   0.004630  -0.008562   0.224201
    20  O    0.000000  -0.000000   0.000192   0.229624   0.007664  -0.001488
    21  O   -0.000019   0.000039  -0.004016  -0.002083   0.206443  -0.007144
    22  H    0.000000  -0.000000  -0.000000  -0.000000   0.000000   0.000000
    23  H    0.000000  -0.000000  -0.000000   0.000000   0.000000   0.000000
    24  H    0.000000  -0.000000   0.000000  -0.000000  -0.000000  -0.000000
    25  H    0.298991  -0.000012   0.000113   0.000000   0.000001   0.000000
    26  H   -0.000012   0.365996   0.000036   0.000000   0.000021  -0.000000
    27  H    0.000113   0.000036   0.283396  -0.000000  -0.001497   0.000009
    28  H    0.000000   0.000000  -0.000000   0.349172  -0.000017  -0.000016
    29  H    0.000001   0.000021  -0.001497  -0.000017   0.285941   0.000155
    30  H    0.000000  -0.000000   0.000009  -0.000016   0.000155   0.334243
    31  H   -0.000508   0.000000   0.000013  -0.000000   0.000000  -0.000000
    32  H   -0.000001   0.000000  -0.000000   0.000000  -0.000000  -0.000000
    33  H    0.000006  -0.000000  -0.002406  -0.000002   0.000099  -0.001159
              31         32         33
     1  Zr  -0.000202   0.002089  -0.016070
     2  O    0.000172  -0.000024   0.001024
     3  O   -0.000020   0.000040  -0.010106
     4  O   -0.018458   0.010330  -0.009609
     5  O   -0.000009   0.000001  -0.000101
     6  Si   0.063875   0.022987   0.053310
     7  Si   0.000155  -0.000664   0.020630
     8  Si  -0.001971   0.000054   0.000118
     9  Si  -0.000052   0.000009   0.000077
    10  O    0.000000  -0.000000  -0.000000
    11  O   -0.000000   0.000000   0.000000
    12  O    0.000000  -0.000000   0.000000
    13  O    0.002352  -0.000008   0.000230
    14  O    0.000165  -0.000006   0.002088
    15  O   -0.000018   0.000000  -0.000035
    16  O    0.003700   0.233341  -0.000098
    17  O   -0.000725  -0.003670   0.230989
    18  O    0.218205   0.003921   0.002091
    19  O    0.000004   0.000097   0.014858
    20  O   -0.000000   0.000000  -0.000082
    21  O   -0.000000   0.000001   0.001473
    22  H   -0.000000  -0.000000  -0.000000
    23  H   -0.000000  -0.000000  -0.000000
    24  H    0.000000  -0.000000  -0.000000
    25  H   -0.000508  -0.000001   0.000006
    26  H    0.000000   0.000000  -0.000000
    27  H    0.000013  -0.000000  -0.002406
    28  H   -0.000000   0.000000  -0.000002
    29  H    0.000000  -0.000000   0.000099
    30  H   -0.000000  -0.000000  -0.001159
    31  H    0.331615   0.000001  -0.000038
    32  H    0.000001   0.350110   0.000157
    33  H   -0.000038   0.000157   0.269231
 Mulliken charges:
               1
     1  Zr   0.003712
     2  O   -0.549764
     3  O   -0.418902
     4  O   -0.680732
     5  O   -0.368878
     6  Si   2.230490
     7  Si   1.786280
     8  Si   2.016907
     9  Si   1.601057
    10  O   -0.843900
    11  O   -0.787244
    12  O   -0.790947
    13  O   -0.841713
    14  O   -0.880431
    15  O   -0.877119
    16  O   -0.734055
    17  O   -0.968707
    18  O   -1.081419
    19  O   -0.988085
    20  O   -0.804606
    21  O   -0.829954
    22  H    0.385952
    23  H    0.372274
    24  H    0.365876
    25  H    0.414713
    26  H    0.378669
    27  H    0.429289
    28  H    0.375951
    29  H    0.447562
    30  H    0.411416
    31  H    0.401746
    32  H    0.381236
    33  H    0.443325
 Sum of Mulliken charges =  -0.00000
 Mulliken charges with hydrogens summed into heavy atoms:
               1
     1  Zr   0.003712
     2  O   -0.549764
     3  O   -0.418902
     4  O   -0.680732
     5  O   -0.368878
     6  Si   2.230490
     7  Si   1.786280
     8  Si   2.016907
     9  Si   1.601057
    10  O   -0.471625
    11  O   -0.421368
    12  O   -0.404994
    13  O   -0.427000
    14  O   -0.451142
    15  O   -0.498450
    16  O   -0.352819
    17  O   -0.525382
    18  O   -0.679674
    19  O   -0.576669
    20  O   -0.428654
    21  O   -0.382392
 Electronic spatial extent (au):  <R**2>=           9868.9335
 Charge=              0.0000 electrons
 Dipole moment (field-independent basis, Debye):
    X=              1.0801    Y=             -0.7714    Z=             -2.4078  Tot=              2.7494
 Quadrupole moment (field-independent basis, Debye-Ang):
   XX=           -160.2745   YY=           -154.6674   ZZ=           -157.7888
   XY=             -4.9506   XZ=              2.2274   YZ=              5.7195
 Traceless Quadrupole moment (field-independent basis, Debye-Ang):
   XX=             -2.6976   YY=              2.9095   ZZ=             -0.2119
   XY=             -4.9506   XZ=              2.2274   YZ=              5.7195
 Octapole moment (field-independent basis, Debye-Ang**2):
  XXX=             74.0471  YYY=              6.6510  ZZZ=            -18.6061  XYY=             -1.9203
  XXY=             20.3857  XXZ=             19.2376  XZZ=              5.3398  YZZ=            -17.0119
  YYZ=            -15.7206  XYZ=             28.1248
 Hexadecapole moment (field-independent basis, Debye-Ang**3):
 XXXX=          -6034.4108 YYYY=          -2834.7130 ZZZZ=          -2261.2165 XXXY=             56.8581
 XXXZ=            -24.2406 YYYX=              4.6386 YYYZ=            217.2905 ZZZX=           -183.9244
 ZZZY=            -54.9190 XXYY=          -1483.5169 XXZZ=          -1362.1000 YYZZ=           -925.2162
 XXYZ=             -7.3871 YYXZ=            130.1945 ZZXY=            -61.0234
 N-N= 2.832857500308D+03 E-N=-1.137831403928D+04  KE= 2.373154974353D+03
 1\1\GINC-GRA303\FOpt\RB3LYP\Gen\H12O16Si4Zr1\SARASHS\14-Aug-2020\0\\#n
  B3LYP/Gen Pseudo=cards EmpiricalDispersion=GD3 Opt=modredundant\\Titl
 e\\0,1\Zr,0.6612047188,-0.1143175095,-0.1577654701\O,-0.2484813581,-0.
 6696017208,1.4698819707\O,0.1257107242,1.7379060841,-0.4728576329\O,-0
 .2518526422,-1.1615214158,-1.5659767407\O,2.5924605292,-0.4384835327,-
 0.0977226675\Si,-1.8133070469,-1.5480935878,-1.8938186643\Si,-1.082426
 1464,2.8370036336,-0.6001959207\Si,-1.7601086009,-0.8146092619,2.11351
 24497\Si,4.216864793,-0.2637947383,-0.0039670908\O,4.9766967776,-0.308
 8500913,-1.4689682753\O,4.8779086417,-1.5090993367,0.8673877663\O,4.45
 01922348,1.2285450536,0.6597185957\O,-2.3646841808,-2.3242629585,1.890
 6973025\O,-2.7409474154,0.3227797389,1.3737315017\O,-1.654060002,-0.46
 05967728,3.7108554372\O,-1.9635313899,-1.994329904,-3.4739909638\O,-2.
 8044174535,-0.3161350857,-1.4188937905\O,-2.3508855133,-2.8074426827,-
 0.9491342542\O,-1.9930028831,2.2619559228,-1.8936286204\O,-0.584414842
 8,4.3476919821,-1.0208254844\O,-1.9519644642,2.954321702,0.7817204675\
 H,5.3409639485,1.5925850009,0.6099227692\H,5.3201806434,-1.1684013429,
 -1.7378862134\H,4.4299834259,-1.7671460308,1.6806694197\H,-2.439464071
 5,-2.6375613956,0.9713856708\H,-2.4476625355,-0.5829223964,4.243033440
 5\H,-3.0662423333,0.0550055838,0.4926353652\H,-0.4806380658,4.97764691
 31,-0.298565716\H,-2.2679181024,2.1107150826,1.1680131184\H,-2.5901606
 926,2.906506104,-2.2934950967\H,-2.3077684602,-3.6858409966,-1.3436456
 497\H,-1.2242277484,-1.779344369,-4.0535486817\H,-2.5780404877,0.58896
 23282,-1.7309383422\\Version=ES64L-G16RevB.01\State=1-A\HF=-2416.94685
 7\RMSD=5.764e-09\RMSF=7.320e-06\Dipole=0.4347004,-0.4329288,-0.8908999
 \Quadrupole=-2.1185381,3.3187674,-1.2002293,-3.4353806,2.1577533,3.715
 6217\PG=C01 [X(H12O16Si4Zr1)]\\@


 ALL MY ATTEMPTS TO ADAPT THE THEORETICAL FOUNDATIONS OF PHYSICS
 TO THESE NEW NOTIONS FAILED COMPLETELY. IT WAS AS IF THE GROUND HAD
 BEEN PULLED OUT FROM UNDER ONE WITH NO FIRM FOUNDATION TO BE SEEN ANYWHERE,
 UPON WHICH ONE COULD HAVE BUILT.  -- A.EINSTEIN
 Job cpu time:       1 days  6 hours 33 minutes 12.4 seconds.
 Elapsed time:       0 days  2 hours 17 minutes 24.2 seconds.
 File lengths (MBytes):  RWF=    167 Int=      0 D2E=      0 Chk=     21 Scr=      1
 Normal termination of Gaussian 16 at Fri Aug 14 05:29:24 2020.
