 Entering Gaussian System, Link 0=g16
 Initial command:
 /opt/software/gaussian/g16.b01/l1.exe "/localscratch/sarashs.37242647.0/Gau-240440.inp" -scrdir="/localscratch/sarashs.37242647.0/"
 Entering Link 1 = /opt/software/gaussian/g16.b01/l1.exe PID=    240441.
  
 Copyright (c) 1988-2017, Gaussian, Inc.  All Rights Reserved.
  
 This is part of the Gaussian(R) 16 program.  It is based on
 the Gaussian(R) 09 system (copyright 2009, Gaussian, Inc.),
 the Gaussian(R) 03 system (copyright 2003, Gaussian, Inc.),
 the Gaussian(R) 98 system (copyright 1998, Gaussian, Inc.),
 the Gaussian(R) 94 system (copyright 1995, Gaussian, Inc.),
 the Gaussian 92(TM) system (copyright 1992, Gaussian, Inc.),
 the Gaussian 90(TM) system (copyright 1990, Gaussian, Inc.),
 the Gaussian 88(TM) system (copyright 1988, Gaussian, Inc.),
 the Gaussian 86(TM) system (copyright 1986, Carnegie Mellon
 University), and the Gaussian 82(TM) system (copyright 1983,
 Carnegie Mellon University). Gaussian is a federally registered
 trademark of Gaussian, Inc.
  
 This software contains proprietary and confidential information,
 including trade secrets, belonging to Gaussian, Inc.
  
 This software is provided under written license and may be
 used, copied, transmitted, or stored only in accord with that
 written license.
  
 The following legend is applicable only to US Government
 contracts under FAR:
  
                    RESTRICTED RIGHTS LEGEND
  
 Use, reproduction and disclosure by the US Government is
 subject to restrictions as set forth in subparagraphs (a)
 and (c) of the Commercial Computer Software - Restricted
 Rights clause in FAR 52.227-19.
  
 Gaussian, Inc.
 340 Quinnipiac St., Bldg. 40, Wallingford CT 06492
  
  
 ---------------------------------------------------------------
 Warning -- This program may not be used in any manner that
 competes with the business of Gaussian, Inc. or will provide
 assistance to any competitor of Gaussian, Inc.  The licensee
 of this program is prohibited from giving any competitor of
 Gaussian, Inc. access to this program.  By using this program,
 the user acknowledges that Gaussian, Inc. is engaged in the
 business of creating and licensing software in the field of
 computational chemistry and represents and warrants to the
 licensee that it is not a competitor of Gaussian, Inc. and that
 it will not use this program in any manner prohibited above.
 ---------------------------------------------------------------
  

 Cite this work as:
 Gaussian 16, Revision B.01,
 M. J. Frisch, G. W. Trucks, H. B. Schlegel, G. E. Scuseria, 
 M. A. Robb, J. R. Cheeseman, G. Scalmani, V. Barone, 
 G. A. Petersson, H. Nakatsuji, X. Li, M. Caricato, A. V. Marenich, 
 J. Bloino, B. G. Janesko, R. Gomperts, B. Mennucci, H. P. Hratchian, 
 J. V. Ortiz, A. F. Izmaylov, J. L. Sonnenberg, D. Williams-Young, 
 F. Ding, F. Lipparini, F. Egidi, J. Goings, B. Peng, A. Petrone, 
 T. Henderson, D. Ranasinghe, V. G. Zakrzewski, J. Gao, N. Rega, 
 G. Zheng, W. Liang, M. Hada, M. Ehara, K. Toyota, R. Fukuda, 
 J. Hasegawa, M. Ishida, T. Nakajima, Y. Honda, O. Kitao, H. Nakai, 
 T. Vreven, K. Throssell, J. A. Montgomery, Jr., J. E. Peralta, 
 F. Ogliaro, M. J. Bearpark, J. J. Heyd, E. N. Brothers, K. N. Kudin, 
 V. N. Staroverov, T. A. Keith, R. Kobayashi, J. Normand, 
 K. Raghavachari, A. P. Rendell, J. C. Burant, S. S. Iyengar, 
 J. Tomasi, M. Cossi, J. M. Millam, M. Klene, C. Adamo, R. Cammi, 
 J. W. Ochterski, R. L. Martin, K. Morokuma, O. Farkas, 
 J. B. Foresman, and D. J. Fox, Gaussian, Inc., Wallingford CT, 2016.
 
 ******************************************
 Gaussian 16:  ES64L-G16RevB.01 20-Dec-2017
                14-Aug-2020 
 ******************************************
 %NProcShared=16
 Will use up to   16 processors via shared memory.
 ------------------------------------------------------------------
 #n B3LYP/Gen Pseudo=cards EmpiricalDispersion=GD3 Opt=modredundant
 ------------------------------------------------------------------
 1/18=120,19=15,26=3,38=1/1,3;
 2/9=110,12=2,17=6,18=5,40=1/2;
 3/5=7,11=2,16=1,17=8,25=1,30=1,71=1,74=-5,124=31/1,2,3;
 4//1;
 5/5=2,38=5/2;
 6/7=2,8=2,9=2,10=2,28=1/1;
 7//1,2,3,16;
 1/18=20,19=15,26=3/3(2);
 2/9=110/2;
 99//99;
 2/9=110/2;
 3/5=7,6=1,11=2,16=1,17=8,25=1,30=1,71=1,74=-5,82=7,124=31/1,2,3;
 4/5=5,16=3,69=1/1;
 5/5=2,38=5/2;
 7//1,2,3,16;
 1/18=20,19=15,26=3/3(-5);
 2/9=110/2;
 6/7=2,8=2,9=2,10=2,19=2,28=1/1;
 99/9=1/99;
 -----
 Title
 -----
 Symbolic Z-matrix:
 Charge =  0 Multiplicity = 1
 Zr                    0.65799  -0.12369  -0.07751 
 O                    -0.22505  -0.88678   1.47907 
 O                     0.10453   1.74852  -0.15064 
 O                    -0.26682  -0.99401  -1.59433 
 O                     2.59206  -0.4363   -0.08284 
 Si                   -1.82952  -1.35057  -1.94878 
 Si                   -1.11331   2.84394  -0.12427 
 Si                   -1.7269   -1.12526   2.11784 
 Si                    4.21631  -0.26105   0.01252 
 O                     4.95566  -0.09972  -1.45475 
 O                     4.89877  -1.60704   0.69775 
 O                     4.44778   1.12944   0.86985 
 O                    -2.32286  -2.60058   1.71482 
 O                    -2.72586   0.08695   1.53862 
 O                    -1.60237  -0.97364   3.7456 
 O                    -1.99795  -1.59597  -3.57054 
 O                    -2.82344  -0.19696  -1.31079 
 O                    -2.34466  -2.72341  -1.16304 
 O                    -2.0369    2.42723  -1.46822 
 O                    -0.63215   4.39985  -0.35832 
 O                    -1.96506   2.77939   1.27214 
 H                     5.33501   1.50516   0.85865 
 H                     5.3042   -0.91111  -1.84112 
 H                     4.46373  -1.97795   1.47352 
 H                    -2.40836  -2.79676   0.76452 
 H                    -2.38717  -1.1719    4.26788 
 H                    -3.06098  -0.07116   0.63496 
 H                    -0.52443   4.93555   0.43584 
 H                    -2.26956   1.89116   1.5533 
 H                    -2.64416   3.11139  -1.77659 
 H                    -2.30463  -3.5443   -1.66662 
 H                    -1.26678  -1.30612  -4.12736 
 H                    -2.60776   0.74208  -1.50961 
 
 The following ModRedundant input section has been read:
 A       1       5       9 F                                                   
 

 GradGradGradGradGradGradGradGradGradGradGradGradGradGradGradGradGradGrad
 Berny optimization.
 Initialization pass.
                           ----------------------------
                           !    Initial Parameters    !
                           ! (Angstroms and Degrees)  !
 --------------------------                            --------------------------
 ! Name  Definition              Value          Derivative Info.                !
 --------------------------------------------------------------------------------
 ! R1    R(1,2)                  1.9455         estimate D2E/DX2                !
 ! R2    R(1,3)                  1.9537         estimate D2E/DX2                !
 ! R3    R(1,4)                  1.9783         estimate D2E/DX2                !
 ! R4    R(1,5)                  1.9592         estimate D2E/DX2                !
 ! R5    R(2,8)                  1.6494         estimate D2E/DX2                !
 ! R6    R(3,7)                  1.6382         estimate D2E/DX2                !
 ! R7    R(4,6)                  1.6416         estimate D2E/DX2                !
 ! R8    R(5,9)                  1.6365         estimate D2E/DX2                !
 ! R9    R(6,16)                 1.6488         estimate D2E/DX2                !
 ! R10   R(6,17)                 1.651          estimate D2E/DX2                !
 ! R11   R(6,18)                 1.6636         estimate D2E/DX2                !
 ! R12   R(7,19)                 1.6831         estimate D2E/DX2                !
 ! R13   R(7,20)                 1.6453         estimate D2E/DX2                !
 ! R14   R(7,21)                 1.637          estimate D2E/DX2                !
 ! R15   R(8,13)                 1.6414         estimate D2E/DX2                !
 ! R16   R(8,14)                 1.6742         estimate D2E/DX2                !
 ! R17   R(8,15)                 1.6395         estimate D2E/DX2                !
 ! R18   R(9,10)                 1.6509         estimate D2E/DX2                !
 ! R19   R(9,11)                 1.6574         estimate D2E/DX2                !
 ! R20   R(9,12)                 1.6499         estimate D2E/DX2                !
 ! R21   R(10,23)                0.9639         estimate D2E/DX2                !
 ! R22   R(11,24)                0.9637         estimate D2E/DX2                !
 ! R23   R(12,22)                0.9636         estimate D2E/DX2                !
 ! R24   R(13,25)                0.9741         estimate D2E/DX2                !
 ! R25   R(14,27)                0.9767         estimate D2E/DX2                !
 ! R26   R(15,26)                0.9633         estimate D2E/DX2                !
 ! R27   R(16,32)                0.9637         estimate D2E/DX2                !
 ! R28   R(17,33)                0.9838         estimate D2E/DX2                !
 ! R29   R(18,31)                0.9639         estimate D2E/DX2                !
 ! R30   R(19,30)                0.9654         estimate D2E/DX2                !
 ! R31   R(20,28)                0.964          estimate D2E/DX2                !
 ! R32   R(21,29)                0.9802         estimate D2E/DX2                !
 ! A1    A(2,1,3)              106.0957         estimate D2E/DX2                !
 ! A2    A(2,1,4)              103.2217         estimate D2E/DX2                !
 ! A3    A(2,1,5)              112.809          estimate D2E/DX2                !
 ! A4    A(3,1,4)              105.0975         estimate D2E/DX2                !
 ! A5    A(3,1,5)              115.6243         estimate D2E/DX2                !
 ! A6    A(4,1,5)              112.9056         estimate D2E/DX2                !
 ! A7    A(1,2,8)              141.2475         estimate D2E/DX2                !
 ! A8    A(1,3,7)              148.2962         estimate D2E/DX2                !
 ! A9    A(1,4,6)              134.9216         estimate D2E/DX2                !
 ! A10   A(1,5,9)              164.275          Frozen                          !
 ! A11   A(4,6,16)             109.9952         estimate D2E/DX2                !
 ! A12   A(4,6,17)             109.7478         estimate D2E/DX2                !
 ! A13   A(4,6,18)             111.8416         estimate D2E/DX2                !
 ! A14   A(16,6,17)            114.9977         estimate D2E/DX2                !
 ! A15   A(16,6,18)            108.0659         estimate D2E/DX2                !
 ! A16   A(17,6,18)            101.987          estimate D2E/DX2                !
 ! A17   A(3,7,19)             103.2691         estimate D2E/DX2                !
 ! A18   A(3,7,20)             114.3704         estimate D2E/DX2                !
 ! A19   A(3,7,21)             111.9731         estimate D2E/DX2                !
 ! A20   A(19,7,20)            106.3206         estimate D2E/DX2                !
 ! A21   A(19,7,21)            112.6978         estimate D2E/DX2                !
 ! A22   A(20,7,21)            108.1075         estimate D2E/DX2                !
 ! A23   A(2,8,13)             111.4368         estimate D2E/DX2                !
 ! A24   A(2,8,14)             107.7364         estimate D2E/DX2                !
 ! A25   A(2,8,15)             107.5756         estimate D2E/DX2                !
 ! A26   A(13,8,14)            110.439          estimate D2E/DX2                !
 ! A27   A(13,8,15)            110.7609         estimate D2E/DX2                !
 ! A28   A(14,8,15)            108.7747         estimate D2E/DX2                !
 ! A29   A(5,9,10)             113.7768         estimate D2E/DX2                !
 ! A30   A(5,9,11)             110.2316         estimate D2E/DX2                !
 ! A31   A(5,9,12)             105.0573         estimate D2E/DX2                !
 ! A32   A(10,9,11)            105.2125         estimate D2E/DX2                !
 ! A33   A(10,9,12)            108.46           estimate D2E/DX2                !
 ! A34   A(11,9,12)            114.3199         estimate D2E/DX2                !
 ! A35   A(9,10,23)            115.8441         estimate D2E/DX2                !
 ! A36   A(9,11,24)            117.3556         estimate D2E/DX2                !
 ! A37   A(9,12,22)            116.857          estimate D2E/DX2                !
 ! A38   A(8,13,25)            116.8994         estimate D2E/DX2                !
 ! A39   A(8,14,27)            114.0559         estimate D2E/DX2                !
 ! A40   A(8,15,26)            117.2167         estimate D2E/DX2                !
 ! A41   A(6,16,32)            116.4904         estimate D2E/DX2                !
 ! A42   A(6,17,33)            117.186          estimate D2E/DX2                !
 ! A43   A(6,18,31)            116.3078         estimate D2E/DX2                !
 ! A44   A(7,19,30)            115.137          estimate D2E/DX2                !
 ! A45   A(7,20,28)            116.1675         estimate D2E/DX2                !
 ! A46   A(7,21,29)            116.2366         estimate D2E/DX2                !
 ! D1    D(3,1,2,8)             57.7296         estimate D2E/DX2                !
 ! D2    D(4,1,2,8)            -52.5296         estimate D2E/DX2                !
 ! D3    D(5,1,2,8)           -174.7064         estimate D2E/DX2                !
 ! D4    D(2,1,3,7)            -50.0986         estimate D2E/DX2                !
 ! D5    D(4,1,3,7)             58.831          estimate D2E/DX2                !
 ! D6    D(5,1,3,7)           -175.9645         estimate D2E/DX2                !
 ! D7    D(2,1,4,6)             42.7683         estimate D2E/DX2                !
 ! D8    D(3,1,4,6)            -68.231          estimate D2E/DX2                !
 ! D9    D(5,1,4,6)            164.8804         estimate D2E/DX2                !
 ! D10   D(2,1,5,9)           -106.9251         estimate D2E/DX2                !
 ! D11   D(3,1,5,9)             15.4379         estimate D2E/DX2                !
 ! D12   D(4,1,5,9)            136.52           estimate D2E/DX2                !
 ! D13   D(1,2,8,13)            93.5302         estimate D2E/DX2                !
 ! D14   D(1,2,8,14)           -27.7662         estimate D2E/DX2                !
 ! D15   D(1,2,8,15)          -144.8804         estimate D2E/DX2                !
 ! D16   D(1,3,7,19)           -61.1008         estimate D2E/DX2                !
 ! D17   D(1,3,7,20)          -176.1748         estimate D2E/DX2                !
 ! D18   D(1,3,7,21)            60.4099         estimate D2E/DX2                !
 ! D19   D(1,4,6,16)           160.1674         estimate D2E/DX2                !
 ! D20   D(1,4,6,17)            32.6923         estimate D2E/DX2                !
 ! D21   D(1,4,6,18)           -79.7419         estimate D2E/DX2                !
 ! D22   D(1,5,9,10)           -99.4781         estimate D2E/DX2                !
 ! D23   D(1,5,9,11)           142.6197         estimate D2E/DX2                !
 ! D24   D(1,5,9,12)            19.0008         estimate D2E/DX2                !
 ! D25   D(4,6,16,32)          -14.2            estimate D2E/DX2                !
 ! D26   D(17,6,16,32)         110.298          estimate D2E/DX2                !
 ! D27   D(18,6,16,32)        -136.5527         estimate D2E/DX2                !
 ! D28   D(4,6,17,33)           51.0104         estimate D2E/DX2                !
 ! D29   D(16,6,17,33)         -73.6174         estimate D2E/DX2                !
 ! D30   D(18,6,17,33)         169.7168         estimate D2E/DX2                !
 ! D31   D(4,6,18,31)          -96.4429         estimate D2E/DX2                !
 ! D32   D(16,6,18,31)          24.7707         estimate D2E/DX2                !
 ! D33   D(17,6,18,31)         146.3488         estimate D2E/DX2                !
 ! D34   D(3,7,19,30)         -162.1843         estimate D2E/DX2                !
 ! D35   D(20,7,19,30)         -41.467          estimate D2E/DX2                !
 ! D36   D(21,7,19,30)          76.7954         estimate D2E/DX2                !
 ! D37   D(3,7,20,28)          -98.4268         estimate D2E/DX2                !
 ! D38   D(19,7,20,28)         148.2948         estimate D2E/DX2                !
 ! D39   D(21,7,20,28)          27.045          estimate D2E/DX2                !
 ! D40   D(3,7,21,29)          -49.8997         estimate D2E/DX2                !
 ! D41   D(19,7,21,29)          66.0156         estimate D2E/DX2                !
 ! D42   D(20,7,21,29)        -176.7749         estimate D2E/DX2                !
 ! D43   D(2,8,13,25)          -58.468          estimate D2E/DX2                !
 ! D44   D(14,8,13,25)          61.2407         estimate D2E/DX2                !
 ! D45   D(15,8,13,25)        -178.1889         estimate D2E/DX2                !
 ! D46   D(2,8,14,27)           80.2918         estimate D2E/DX2                !
 ! D47   D(13,8,14,27)         -41.625          estimate D2E/DX2                !
 ! D48   D(15,8,14,27)        -163.376          estimate D2E/DX2                !
 ! D49   D(2,8,15,26)         -174.1993         estimate D2E/DX2                !
 ! D50   D(13,8,15,26)         -52.1893         estimate D2E/DX2                !
 ! D51   D(14,8,15,26)          69.3653         estimate D2E/DX2                !
 ! D52   D(5,9,10,23)          -94.8502         estimate D2E/DX2                !
 ! D53   D(11,9,10,23)          25.9079         estimate D2E/DX2                !
 ! D54   D(12,9,10,23)         148.64           estimate D2E/DX2                !
 ! D55   D(5,9,11,24)          -43.8205         estimate D2E/DX2                !
 ! D56   D(10,9,11,24)        -166.8799         estimate D2E/DX2                !
 ! D57   D(12,9,11,24)          74.2393         estimate D2E/DX2                !
 ! D58   D(5,9,12,22)         -166.4771         estimate D2E/DX2                !
 ! D59   D(10,9,12,22)         -44.4742         estimate D2E/DX2                !
 ! D60   D(11,9,12,22)          72.5545         estimate D2E/DX2                !
 --------------------------------------------------------------------------------
 Trust Radius=3.00D-01 FncErr=1.00D-07 GrdErr=1.00D-06 EigMax=2.50D+02 EigMin=1.00D-04
 Number of steps in this run=    148 maximum allowed number of steps=    198.
 GradGradGradGradGradGradGradGradGradGradGradGradGradGradGradGradGradGrad

                          Input orientation:                          
 ---------------------------------------------------------------------
 Center     Atomic      Atomic             Coordinates (Angstroms)
 Number     Number       Type             X           Y           Z
 ---------------------------------------------------------------------
      1         40           0        0.657990   -0.123690   -0.077510
      2          8           0       -0.225050   -0.886780    1.479070
      3          8           0        0.104530    1.748520   -0.150640
      4          8           0       -0.266820   -0.994010   -1.594330
      5          8           0        2.592060   -0.436300   -0.082840
      6         14           0       -1.829520   -1.350570   -1.948780
      7         14           0       -1.113310    2.843940   -0.124270
      8         14           0       -1.726900   -1.125260    2.117840
      9         14           0        4.216310   -0.261050    0.012520
     10          8           0        4.955660   -0.099720   -1.454750
     11          8           0        4.898770   -1.607040    0.697750
     12          8           0        4.447780    1.129440    0.869850
     13          8           0       -2.322860   -2.600580    1.714820
     14          8           0       -2.725860    0.086950    1.538620
     15          8           0       -1.602370   -0.973640    3.745600
     16          8           0       -1.997950   -1.595970   -3.570540
     17          8           0       -2.823440   -0.196960   -1.310790
     18          8           0       -2.344660   -2.723410   -1.163040
     19          8           0       -2.036900    2.427230   -1.468220
     20          8           0       -0.632150    4.399850   -0.358320
     21          8           0       -1.965060    2.779390    1.272140
     22          1           0        5.335010    1.505160    0.858650
     23          1           0        5.304200   -0.911110   -1.841120
     24          1           0        4.463730   -1.977950    1.473520
     25          1           0       -2.408360   -2.796760    0.764520
     26          1           0       -2.387170   -1.171900    4.267880
     27          1           0       -3.060980   -0.071160    0.634960
     28          1           0       -0.524430    4.935550    0.435840
     29          1           0       -2.269560    1.891160    1.553300
     30          1           0       -2.644160    3.111390   -1.776590
     31          1           0       -2.304630   -3.544300   -1.666620
     32          1           0       -1.266780   -1.306120   -4.127360
     33          1           0       -2.607760    0.742080   -1.509610
 ---------------------------------------------------------------------
                    Distance matrix (angstroms):
                    1          2          3          4          5
     1  Zr   0.000000
     2  O    1.945510   0.000000
     3  O    1.953673   3.115988   0.000000
     4  O    1.978250   3.075554   3.121476   0.000000
     5  O    1.959178   3.252477   3.311471   3.281591   0.000000
     6  Si   3.345832   3.813080   4.071636   1.641585   4.885488
     7  Si   3.456374   4.156679   1.638223   4.196127   4.948884
     8  Si   3.392699   1.649380   4.093745   3.991148   4.896026
     9  Si   3.562108   4.718897   4.579490   4.818470   1.636458
    10  O    4.513018   6.005541   5.352584   5.300333   2.753548
    11  O    4.559119   5.232855   5.913061   5.684431   2.702011
    12  O    4.102479   5.125586   4.504274   5.727886   2.608229
    13  O    4.270000   2.719098   5.318537   4.214124   5.663226
    14  O    3.755887   2.684352   3.691276   4.126830   5.584192
    15  O    4.521926   2.653623   5.050183   5.504449   5.704291
    16  O    4.628486   5.398582   5.225108   2.695287   5.880228
    17  O    3.694144   3.874378   3.701871   2.692952   5.558128
    18  O    4.117381   3.853142   5.198235   2.737564   5.546973
    19  O    3.962789   4.790823   2.604302   3.854085   5.616614
    20  O    4.712296   5.611612   2.759598   5.545711   5.818915
    21  O    4.138819   4.063405   2.714811   5.033807   5.739684
    22  H    5.040244   6.084453   5.332524   6.606320   3.489906
    23  H    5.031662   6.449563   6.080125   5.577100   3.266909
    24  H    4.508617   4.814077   5.960461   5.723456   2.881335
    25  H    4.154133   2.987549   5.273680   3.660639   5.594103
    26  H    5.408711   3.540271   5.853268   6.236428   6.653015
    27  H    3.786966   3.069244   3.734817   3.691709   5.710116
    28  H    5.220877   5.922625   3.301016   6.272769   6.232039
    29  H    3.910206   3.449997   2.925758   4.716222   5.632883
    30  H    4.925120   5.695330   3.472236   4.747554   6.547740
    31  H    4.796140   4.613289   6.009675   3.265253   6.012121
    32  H    4.637258   5.717788   5.198617   2.741090   5.657329
    33  H    3.669549   4.154841   3.196285   2.915679   5.519274
                    6          7          8          9         10
     6  Si   0.000000
     7  Si   4.629871   0.000000
     8  Si   4.074149   4.599793   0.000000
     9  Si   6.448706   6.169645   6.364038   0.000000
    10  O    6.917179   6.875151   7.646682   1.650923   0.000000
    11  O    7.234624   7.525427   6.793252   1.657402   2.628404
    12  O    7.314343   5.903686   6.690876   1.649865   2.678160
    13  O    3.902291   5.872654   1.641390   7.150662   8.323300
    14  O    3.877093   3.600905   1.674177   7.116446   8.246263
    15  O    5.711360   5.457929   1.639542   6.949871   8.415173
    16  O    1.648847   5.689654   5.714254   7.296393   7.420783
    17  O    1.650977   3.685030   3.717478   7.163333   7.781040
    18  O    1.663564   5.795744   3.701335   7.105736   7.762958
    19  O    3.813885   1.683112   5.057283   6.965779   7.435157
    20  O    6.085276   1.645342   6.152779   6.735657   7.257542
    21  O    5.239205   1.636950   4.002277   7.002875   7.976313
    22  H    8.207761   6.658776   7.640369   2.255421   2.841015
    23  H    7.148054   7.631016   8.071901   2.245454   0.963906
    24  H    7.191018   7.543668   6.282207   2.267925   3.513475
    25  H    3.128661   5.855305   2.256053   7.133133   8.150336
    26  H    6.244178   6.086105   2.249623   7.908457   9.370977
    27  H    3.135139   3.587152   2.256065   7.306329   8.284577
    28  H    6.848721   2.243955   6.403786   7.046876   7.678519
    29  H    4.792391   2.249210   3.116404   7.005178   8.075628
    30  H    4.538984   2.268302   5.827277   7.851135   8.256638
    31  H    2.262254   6.678899   4.528539   7.491455   8.038771
    32  H    2.250525   5.768126   6.264738   6.949464   6.878736
    33  H    2.275459   2.927518   4.173879   7.063362   7.610319
                   11         12         13         14         15
    11  O    0.000000
    12  O    2.778729   0.000000
    13  O    7.360264   7.776155   0.000000
    14  O    7.855676   7.279777   2.723283   0.000000
    15  O    7.208010   7.021196   2.700020   2.694038   0.000000
    16  O    8.110682   8.288085   5.389790   5.428221   7.353209
    17  O    8.102783   7.706177   3.896445   2.865181   5.259403
    18  O    7.561488   8.069345   2.880563   3.916938   5.263785
    19  O    8.310853   7.014407   5.957549   3.872036   6.240084
    20  O    8.233413   6.165198   7.494160   5.155881   6.830657
    21  O    8.165957   6.633905   5.409997   2.810527   4.509410
    22  H    3.146742   0.963570   8.731157   8.212874   7.912406
    23  H    2.663560   3.499523   8.583185   8.769300   8.883471
    24  H    0.963666   3.165524   6.819362   7.480525   6.555040
    25  H    7.403651   7.901443   0.974098   3.002636   3.586116
    26  H    8.125275   7.972410   2.926325   3.024611   0.963325
    27  H    8.106818   7.607765   2.847610   0.976681   3.552196
    28  H    8.502069   6.276760   7.852604   5.437954   6.858206
    29  H    8.022115   6.794849   4.494959   1.861075   3.668569
    30  H    9.234811   7.824793   6.702222   4.488266   6.947473
    31  H    7.825100   8.594915   3.510709   4.861787   6.032710
    32  H    7.834938   7.972469   6.076347   6.014390   7.887120
    33  H    8.169382   7.456039   4.653116   3.120072   5.618873
                   16         17         18         19         20
    16  O    0.000000
    17  O    2.783008   0.000000
    18  O    2.680930   2.575657   0.000000
    19  O    4.539538   2.744049   5.168844   0.000000
    20  O    6.937840   5.180696   7.370285   2.663913   0.000000
    21  O    6.526592   4.033237   6.029511   2.763829   2.657243
    22  H    9.110820   8.611852   8.996964   7.785216   6.742940
    23  H    7.535338   8.176172   7.889821   8.073123   8.102175
    24  H    8.206202   8.001697   7.339028   8.385561   8.366598
    25  H    4.516977   3.352337   1.930007   5.693258   7.497125
    26  H    7.859526   5.680000   5.648352   6.780802   7.451592
    27  H    4.597968   1.964229   3.283344   3.422581   5.184183
    28  H    7.802762   5.888873   8.033015   3.493520   0.963986
    29  H    6.203836   3.587484   5.355222   3.077513   3.553720
    30  H    5.078886   3.345787   5.874609   0.965366   2.778453
    31  H    2.741342   3.405945   0.963875   5.980820   8.223038
    32  H    0.963676   3.403894   3.457995   4.647797   6.867788
    33  H    3.175811   0.983790   3.492700   1.779698   4.313674
                   21         22         23         24         25
    21  O    0.000000
    22  H    7.421971   0.000000
    23  H    8.726644   3.623268   0.000000
    24  H    8.000136   3.642698   3.582091   0.000000
    25  H    5.616729   8.858620   8.356352   6.956921   0.000000
    26  H    4.976477   8.855595   9.825735   7.442647   3.861884
    27  H    3.119723   8.545611   8.764287   7.807707   2.805636
    28  H    2.724672   6.802895   8.563931   8.588073   7.965290
    29  H    0.980165   7.645981   8.759945   7.766181   4.755842
    30  H    3.141044   8.555210   8.908485   9.326666   6.435766
    31  H    6.981452   9.499375   8.053473   7.623951   2.545588
    32  H    6.806878   8.737690   6.968551   8.041142   5.239819
    33  H    3.507396   8.323373   8.089626   8.142702   4.211273
                   26         27         28         29         30
    26  H    0.000000
    27  H    3.855354   0.000000
    28  H    7.446830   5.616127   0.000000
    29  H    4.094522   2.306598   3.682731   0.000000
    30  H    7.412708   4.014715   3.565903   3.566154   0.000000
    31  H    6.391665   4.234624   8.916126   6.317701   6.665252
    32  H    8.470735   5.236790   7.767388   6.595306   5.190153
    33  H    6.090268   2.337937   5.070526   3.288796   2.384582
                   31         32         33
    31  H    0.000000
    32  H    3.484512   0.000000
    33  H    4.299953   3.584127   0.000000
 Stoichiometry    H12O16Si4Zr
 Framework group  C1[X(H12O16Si4Zr)]
 Deg. of freedom    93
 Full point group                 C1      NOp   1
 Largest Abelian subgroup         C1      NOp   1
 Largest concise Abelian subgroup C1      NOp   1
                         Standard orientation:                         
 ---------------------------------------------------------------------
 Center     Atomic      Atomic             Coordinates (Angstroms)
 Number     Number       Type             X           Y           Z
 ---------------------------------------------------------------------
      1         40           0        0.657791   -0.125097   -0.071548
      2          8           0       -0.222940   -0.905828    1.477575
      3          8           0        0.103075    1.747451   -0.123428
      4          8           0       -0.268260   -0.979267   -1.596768
      5          8           0        2.592048   -0.436396   -0.082580
      6         14           0       -1.831153   -1.332903   -1.953291
      7         14           0       -1.115417    2.841738   -0.083582
      8         14           0       -1.723888   -1.152279    2.115439
      9         14           0        4.216299   -0.261170    0.012802
     10          8           0        4.953821   -0.083237   -1.453468
     11          8           0        4.900406   -1.614182    0.682383
     12          8           0        4.447909    1.119951    0.885107
     13          8           0       -2.319400   -2.623455    1.696910
     14          8           0       -2.724286    0.065593    1.550760
     15          8           0       -1.597537   -1.018496    3.744622
     16          8           0       -2.001338   -1.560554   -3.577454
     17          8           0       -2.825042   -0.187015   -1.301485
     18          8           0       -2.344510   -2.714632   -1.182100
     19          8           0       -2.040328    2.439249   -1.430954
     20          8           0       -0.635505    4.400435   -0.301063
     21          8           0       -1.965482    2.761286    1.313028
     22          1           0        5.334891    1.496338    0.877003
     23          1           0        5.302413   -0.890104   -1.849149
     24          1           0        4.466511   -1.993881    1.454534
     25          1           0       -2.405896   -2.809224    0.744609
     26          1           0       -2.381597   -1.222990    4.265607
     27          1           0       -3.060370   -0.082780    0.645808
     28          1           0       -0.527185    4.927434    0.498816
     29          1           0       -2.269096    1.869823    1.584755
     30          1           0       -2.648377    3.126373   -1.731068
     31          1           0       -2.304560   -3.529906   -1.694728
     32          1           0       -1.271005   -1.264129   -4.131907
     33          1           0       -2.610183    0.754293   -1.490214
 ---------------------------------------------------------------------
 Rotational constants (GHZ):           0.2124027           0.1338432           0.1240693
 General basis read from cards:  (5D, 7F)
 ======================================================================================================
                                       Pseudopotential Parameters
 ======================================================================================================
  Center     Atomic      Valence      Angular      Power
  Number     Number     Electrons     Momentum     of R      Exponent        Coefficient   SO-Coeffient
 ======================================================================================================
    1         40           12
                                      G and up 
                                                     2        1.0000000        0.00000000    0.00000000
                                      S - G
                                                     2        8.6365280      150.24299400    0.00000000
                                                     2        3.7176390       18.78003600    0.00000000
                                      P - G
                                                     2        7.6267280       33.19279100    0.00000000
                                                     2        7.4532070       66.38903900    0.00000000
                                                     2        3.3583890        4.62072600    0.00000000
                                                     2        3.2297380        9.26027000    0.00000000
                                      D - G
                                                     2        5.9380860       13.99338300    0.00000000
                                                     2        5.8255440       20.99588200    0.00000000
                                                     2        2.2050190        2.28516600    0.00000000
                                                     2        2.2062920        3.44126000    0.00000000
                                      F - G
                                                     2        4.8002150       -5.23932000    0.00000000
                                                     2        4.7989920       -6.98742400    0.00000000
    2          8
                                   No pseudopotential on this center.
    3          8
                                   No pseudopotential on this center.
    4          8
                                   No pseudopotential on this center.
    5          8
                                   No pseudopotential on this center.
    6         14
                                   No pseudopotential on this center.
    7         14
                                   No pseudopotential on this center.
    8         14
                                   No pseudopotential on this center.
    9         14
                                   No pseudopotential on this center.
   10          8
                                   No pseudopotential on this center.
   11          8
                                   No pseudopotential on this center.
   12          8
                                   No pseudopotential on this center.
   13          8
                                   No pseudopotential on this center.
   14          8
                                   No pseudopotential on this center.
   15          8
                                   No pseudopotential on this center.
   16          8
                                   No pseudopotential on this center.
   17          8
                                   No pseudopotential on this center.
   18          8
                                   No pseudopotential on this center.
   19          8
                                   No pseudopotential on this center.
   20          8
                                   No pseudopotential on this center.
   21          8
                                   No pseudopotential on this center.
   22          1
                                   No pseudopotential on this center.
   23          1
                                   No pseudopotential on this center.
   24          1
                                   No pseudopotential on this center.
   25          1
                                   No pseudopotential on this center.
   26          1
                                   No pseudopotential on this center.
   27          1
                                   No pseudopotential on this center.
   28          1
                                   No pseudopotential on this center.
   29          1
                                   No pseudopotential on this center.
   30          1
                                   No pseudopotential on this center.
   31          1
                                   No pseudopotential on this center.
   32          1
                                   No pseudopotential on this center.
   33          1
                                   No pseudopotential on this center.
 ======================================================================================================
 There are   570 symmetry adapted cartesian basis functions of A   symmetry.
 There are   524 symmetry adapted basis functions of A   symmetry.
   524 basis functions,  1074 primitive gaussians,   570 cartesian basis functions
   104 alpha electrons      104 beta electrons
       nuclear repulsion energy      2832.8857937698 Hartrees.
 NAtoms=   33 NActive=   33 NUniq=   33 SFac= 1.00D+00 NAtFMM=   60 NAOKFM=F Big=F
 Integral buffers will be    131072 words long.
 Raffenetti 2 integral format.
 Two-electron integral symmetry is turned on.
 Nuclear repulsion after empirical dispersion term =     2832.8449911954 Hartrees.
 One-electron integrals computed using PRISM.
 PrsmSu:  requested number of processors reduced to:   4 ShMem   1 Linda.
   1 Symmetry operations used in ECPInt.
 ECPInt:  NShTT=   13203 NPrTT=   78401 LenC2=   11524 LenP2D=   44636.
 LDataN:  DoStor=T MaxTD1= 8 Len=  415
 Number of processors reduced to  13 by ecpmxn.
 NBasis=   524 RedAO= T EigKep=  3.17D-05  NBF=   524
 NBsUse=   524 1.00D-06 EigRej= -1.00D+00 NBFU=   524
 Defaulting to unpruned grid for atomic number  40.
 ExpMin= 1.01D-02 ExpMax= 1.61D+04 ExpMxC= 2.43D+03 IAcc=3 IRadAn=         5 AccDes= 0.00D+00
 Harris functional with IExCor=  402 and IRadAn=       5 diagonalized for initial guess.
 HarFok:  IExCor=  402 AccDes= 0.00D+00 IRadAn=         5 IDoV= 1 UseB2=F ITyADJ=14
 ICtDFT=  3500011 ScaDFX=  1.000000  1.000000  1.000000  1.000000
 Defaulting to unpruned grid for atomic number  40.
 FoFCou: FMM=F IPFlag=           0 FMFlag=      100000 FMFlg1=           0
         NFxFlg=           0 DoJE=T BraDBF=F KetDBF=T FulRan=T
         wScrn=  0.000000 ICntrl=       500 IOpCl=  0 I1Cent=   200000004 NGrid=           0
         NMat0=    1 NMatS0=      1 NMatT0=    0 NMatD0=    1 NMtDS0=    0 NMtDT0=    0
 Petite list used in FoFCou.
 Requested convergence on RMS density matrix=1.00D-08 within 128 cycles.
 Requested convergence on MAX density matrix=1.00D-06.
 Requested convergence on             energy=1.00D-06.
 No special actions if energy rises.
 Defaulting to unpruned grid for atomic number  40.
 Defaulting to unpruned grid for atomic number  40.
 Defaulting to unpruned grid for atomic number  40.
 Defaulting to unpruned grid for atomic number  40.
 Defaulting to unpruned grid for atomic number  40.
 Defaulting to unpruned grid for atomic number  40.
 Defaulting to unpruned grid for atomic number  40.
 Defaulting to unpruned grid for atomic number  40.
 Defaulting to unpruned grid for atomic number  40.
 Defaulting to unpruned grid for atomic number  40.
 Defaulting to unpruned grid for atomic number  40.
 Defaulting to unpruned grid for atomic number  40.
 Defaulting to unpruned grid for atomic number  40.
 Defaulting to unpruned grid for atomic number  40.
 Defaulting to unpruned grid for atomic number  40.
 Defaulting to unpruned grid for atomic number  40.
 SCF Done:  E(RB3LYP) =  -2416.94685678     A.U. after   14 cycles
            NFock= 14  Conv=0.25D-08     -V/T= 2.0185

 **********************************************************************

            Population analysis using the SCF Density.

 **********************************************************************

 Orbital symmetries:
       Occupied  (A) (A) (A) (A) (A) (A) (A) (A) (A) (A) (A) (A)
                 (A) (A) (A) (A) (A) (A) (A) (A) (A) (A) (A) (A)
                 (A) (A) (A) (A) (A) (A) (A) (A) (A) (A) (A) (A)
                 (A) (A) (A) (A) (A) (A) (A) (A) (A) (A) (A) (A)
                 (A) (A) (A) (A) (A) (A) (A) (A) (A) (A) (A) (A)
                 (A) (A) (A) (A) (A) (A) (A) (A) (A) (A) (A) (A)
                 (A) (A) (A) (A) (A) (A) (A) (A) (A) (A) (A) (A)
                 (A) (A) (A) (A) (A) (A) (A) (A) (A) (A) (A) (A)
                 (A) (A) (A) (A) (A) (A) (A) (A)
       Virtual   (A) (A) (A) (A) (A) (A) (A) (A) (A) (A) (A) (A)
                 (A) (A) (A) (A) (A) (A) (A) (A) (A) (A) (A) (A)
                 (A) (A) (A) (A) (A) (A) (A) (A) (A) (A) (A) (A)
                 (A) (A) (A) (A) (A) (A) (A) (A) (A) (A) (A) (A)
                 (A) (A) (A) (A) (A) (A) (A) (A) (A) (A) (A) (A)
                 (A) (A) (A) (A) (A) (A) (A) (A) (A) (A) (A) (A)
                 (A) (A) (A) (A) (A) (A) (A) (A) (A) (A) (A) (A)
                 (A) (A) (A) (A) (A) (A) (A) (A) (A) (A) (A) (A)
                 (A) (A) (A) (A) (A) (A) (A) (A) (A) (A) (A) (A)
                 (A) (A) (A) (A) (A) (A) (A) (A) (A) (A) (A) (A)
                 (A) (A) (A) (A) (A) (A) (A) (A) (A) (A) (A) (A)
                 (A) (A) (A) (A) (A) (A) (A) (A) (A) (A) (A) (A)
                 (A) (A) (A) (A) (A) (A) (A) (A) (A) (A) (A) (A)
                 (A) (A) (A) (A) (A) (A) (A) (A) (A) (A) (A) (A)
                 (A) (A) (A) (A) (A) (A) (A) (A) (A) (A) (A) (A)
                 (A) (A) (A) (A) (A) (A) (A) (A) (A) (A) (A) (A)
                 (A) (A) (A) (A) (A) (A) (A) (A) (A) (A) (A) (A)
                 (A) (A) (A) (A) (A) (A) (A) (A) (A) (A) (A) (A)
                 (A) (A) (A) (A) (A) (A) (A) (A) (A) (A) (A) (A)
                 (A) (A) (A) (A) (A) (A) (A) (A) (A) (A) (A) (A)
                 (A) (A) (A) (A) (A) (A) (A) (A) (A) (A) (A) (A)
                 (A) (A) (A) (A) (A) (A) (A) (A) (A) (A) (A) (A)
                 (A) (A) (A) (A) (A) (A) (A) (A) (A) (A) (A) (A)
                 (A) (A) (A) (A) (A) (A) (A) (A) (A) (A) (A) (A)
                 (A) (A) (A) (A) (A) (A) (A) (A) (A) (A) (A) (A)
                 (A) (A) (A) (A) (A) (A) (A) (A) (A) (A) (A) (A)
                 (A) (A) (A) (A) (A) (A) (A) (A) (A) (A) (A) (A)
                 (A) (A) (A) (A) (A) (A) (A) (A) (A) (A) (A) (A)
                 (A) (A) (A) (A) (A) (A) (A) (A) (A) (A) (A) (A)
                 (A) (A) (A) (A) (A) (A) (A) (A) (A) (A) (A) (A)
                 (A) (A) (A) (A) (A) (A) (A) (A) (A) (A) (A) (A)
                 (A) (A) (A) (A) (A) (A) (A) (A) (A) (A) (A) (A)
                 (A) (A) (A) (A) (A) (A) (A) (A) (A) (A) (A) (A)
                 (A) (A) (A) (A) (A) (A) (A) (A) (A) (A) (A) (A)
                 (A) (A) (A) (A) (A) (A) (A) (A) (A) (A) (A) (A)
 The electronic state is 1-A.
 Alpha  occ. eigenvalues --  -66.22806 -66.21755 -66.21491 -66.21036 -19.18591
 Alpha  occ. eigenvalues --  -19.18352 -19.17789 -19.17027 -19.16733 -19.16538
 Alpha  occ. eigenvalues --  -19.16442 -19.16220 -19.16183 -19.16013 -19.15995
 Alpha  occ. eigenvalues --  -19.15502 -19.15334 -19.15252 -19.14895 -19.14706
 Alpha  occ. eigenvalues --   -5.36866  -5.35836  -5.35567  -5.35096  -3.72850
 Alpha  occ. eigenvalues --   -3.72823  -3.72777  -3.71828  -3.71780  -3.71745
 Alpha  occ. eigenvalues --   -3.71536  -3.71527  -3.71488  -3.71061  -3.71052
 Alpha  occ. eigenvalues --   -3.71026  -2.13364  -1.29607  -1.29523  -1.29366
 Alpha  occ. eigenvalues --   -1.05682  -1.04776  -1.04153  -1.03496  -1.02566
 Alpha  occ. eigenvalues --   -1.02171  -1.01472  -1.00920  -1.00764  -1.00663
 Alpha  occ. eigenvalues --   -0.99831  -0.99305  -0.97372  -0.96283  -0.95725
 Alpha  occ. eigenvalues --   -0.95402  -0.60992  -0.59160  -0.58975  -0.58488
 Alpha  occ. eigenvalues --   -0.55542  -0.54532  -0.53866  -0.53041  -0.52990
 Alpha  occ. eigenvalues --   -0.52492  -0.52147  -0.51709  -0.48780  -0.47603
 Alpha  occ. eigenvalues --   -0.47203  -0.46718  -0.43376  -0.42651  -0.41862
 Alpha  occ. eigenvalues --   -0.41395  -0.41111  -0.40528  -0.39832  -0.39330
 Alpha  occ. eigenvalues --   -0.38807  -0.38679  -0.38652  -0.38144  -0.38017
 Alpha  occ. eigenvalues --   -0.37625  -0.37487  -0.37184  -0.36534  -0.36412
 Alpha  occ. eigenvalues --   -0.36087  -0.35632  -0.35467  -0.35090  -0.34901
 Alpha  occ. eigenvalues --   -0.34606  -0.33998  -0.33697  -0.33477  -0.33264
 Alpha  occ. eigenvalues --   -0.32812  -0.32178  -0.32053  -0.31301
 Alpha virt. eigenvalues --   -0.04328  -0.03159  -0.03037  -0.02754  -0.02093
 Alpha virt. eigenvalues --   -0.01172  -0.00556  -0.00133   0.00130   0.00286
 Alpha virt. eigenvalues --    0.00761   0.00932   0.01025   0.01950   0.02345
 Alpha virt. eigenvalues --    0.03235   0.03335   0.03852   0.03939   0.04068
 Alpha virt. eigenvalues --    0.04151   0.04726   0.05571   0.05844   0.06177
 Alpha virt. eigenvalues --    0.06477   0.07094   0.07455   0.07715   0.08663
 Alpha virt. eigenvalues --    0.08796   0.09044   0.09186   0.09680   0.09961
 Alpha virt. eigenvalues --    0.10375   0.10654   0.10857   0.11238   0.11691
 Alpha virt. eigenvalues --    0.11823   0.12554   0.13275   0.13333   0.13654
 Alpha virt. eigenvalues --    0.14037   0.14411   0.14883   0.15082   0.15289
 Alpha virt. eigenvalues --    0.15369   0.15746   0.16183   0.16709   0.16936
 Alpha virt. eigenvalues --    0.17383   0.17510   0.17690   0.18133   0.18399
 Alpha virt. eigenvalues --    0.18515   0.18749   0.19215   0.19690   0.19744
 Alpha virt. eigenvalues --    0.20120   0.20327   0.20646   0.20973   0.21197
 Alpha virt. eigenvalues --    0.21751   0.21944   0.22301   0.22449   0.22774
 Alpha virt. eigenvalues --    0.23352   0.23759   0.24040   0.24172   0.24475
 Alpha virt. eigenvalues --    0.24870   0.25097   0.25586   0.25813   0.26152
 Alpha virt. eigenvalues --    0.26580   0.26690   0.26905   0.27238   0.27435
 Alpha virt. eigenvalues --    0.27946   0.28258   0.28529   0.28833   0.29032
 Alpha virt. eigenvalues --    0.29455   0.29714   0.30056   0.30416   0.30631
 Alpha virt. eigenvalues --    0.30818   0.31350   0.31485   0.31566   0.32153
 Alpha virt. eigenvalues --    0.32344   0.32789   0.33082   0.33575   0.34029
 Alpha virt. eigenvalues --    0.34474   0.34618   0.35333   0.35720   0.36272
 Alpha virt. eigenvalues --    0.36981   0.37552   0.38017   0.38440   0.38810
 Alpha virt. eigenvalues --    0.39323   0.39961   0.40004   0.41129   0.41605
 Alpha virt. eigenvalues --    0.42672   0.43136   0.43900   0.44341   0.44943
 Alpha virt. eigenvalues --    0.45305   0.45663   0.45934   0.46653   0.47471
 Alpha virt. eigenvalues --    0.47881   0.48549   0.48869   0.49396   0.49565
 Alpha virt. eigenvalues --    0.50026   0.50838   0.51065   0.51342   0.53145
 Alpha virt. eigenvalues --    0.54127   0.54439   0.55160   0.56791   0.57296
 Alpha virt. eigenvalues --    0.58247   0.58715   0.59106   0.59375   0.60350
 Alpha virt. eigenvalues --    0.61220   0.61690   0.62130   0.64069   0.65885
 Alpha virt. eigenvalues --    0.66899   0.67941   0.68441   0.68826   0.69474
 Alpha virt. eigenvalues --    0.70086   0.70502   0.72968   0.74426   0.75138
 Alpha virt. eigenvalues --    0.75487   0.77387   0.78569   0.79002   0.80388
 Alpha virt. eigenvalues --    0.81144   0.81502   0.82587   0.84136   0.85421
 Alpha virt. eigenvalues --    0.86716   0.87664   0.89825   0.90592   0.91196
 Alpha virt. eigenvalues --    0.94359   0.95713   0.96283   0.96887   0.97485
 Alpha virt. eigenvalues --    0.98124   0.98803   0.99244   0.99790   1.00358
 Alpha virt. eigenvalues --    1.00727   1.01469   1.02070   1.03221   1.04062
 Alpha virt. eigenvalues --    1.04281   1.05574   1.06367   1.06703   1.07941
 Alpha virt. eigenvalues --    1.09760   1.12336   1.15235   1.16192   1.16453
 Alpha virt. eigenvalues --    1.18706   1.19070   1.19870   1.20603   1.21019
 Alpha virt. eigenvalues --    1.21379   1.21772   1.22348   1.22834   1.22960
 Alpha virt. eigenvalues --    1.23475   1.23966   1.24274   1.25216   1.25714
 Alpha virt. eigenvalues --    1.26035   1.27153   1.27531   1.28124   1.28436
 Alpha virt. eigenvalues --    1.28979   1.29817   1.30119   1.30893   1.31415
 Alpha virt. eigenvalues --    1.32449   1.32656   1.33023   1.33416   1.34472
 Alpha virt. eigenvalues --    1.35254   1.36055   1.36497   1.36878   1.37775
 Alpha virt. eigenvalues --    1.39175   1.39740   1.40213   1.41221   1.41504
 Alpha virt. eigenvalues --    1.42762   1.43693   1.44219   1.45255   1.46369
 Alpha virt. eigenvalues --    1.46981   1.48842   1.51126   1.51429   1.52783
 Alpha virt. eigenvalues --    1.56740   1.57273   1.57747   1.59295   1.59766
 Alpha virt. eigenvalues --    1.60067   1.61190   1.61934   1.62493   1.63059
 Alpha virt. eigenvalues --    1.63227   1.63819   1.65211   1.65396   1.66604
 Alpha virt. eigenvalues --    1.67333   1.68010   1.69270   1.69550   1.70101
 Alpha virt. eigenvalues --    1.71369   1.71470   1.71621   1.72656   1.73255
 Alpha virt. eigenvalues --    1.74081   1.74984   1.75642   1.76069   1.76632
 Alpha virt. eigenvalues --    1.77182   1.77354   1.78499   1.78773   1.79654
 Alpha virt. eigenvalues --    1.80548   1.81441   1.82209   1.82515   1.83052
 Alpha virt. eigenvalues --    1.83351   1.84809   1.85084   1.85915   1.86613
 Alpha virt. eigenvalues --    1.87189   1.88076   1.88672   1.89788   1.90475
 Alpha virt. eigenvalues --    1.91215   1.91415   1.92534   1.92800   1.93932
 Alpha virt. eigenvalues --    1.94763   1.94962   1.95899   1.97267   1.98369
 Alpha virt. eigenvalues --    1.98886   2.00506   2.01169   2.02761   2.03665
 Alpha virt. eigenvalues --    2.05888   2.06542   2.07675   2.09797   2.10411
 Alpha virt. eigenvalues --    2.11229   2.13026   2.14330   2.16156   2.16313
 Alpha virt. eigenvalues --    2.17783   2.18831   2.19089   2.20830   2.26476
 Alpha virt. eigenvalues --    2.32546   2.33469   2.35454   2.39477   2.40436
 Alpha virt. eigenvalues --    2.41167   2.41358   2.41706   2.42746   2.43747
 Alpha virt. eigenvalues --    2.44015   2.45696   2.46691   2.47610   2.49022
 Alpha virt. eigenvalues --    2.50215   2.50311   2.51671   2.52738   2.53333
 Alpha virt. eigenvalues --    2.55449   2.58349   2.59220   2.60066   2.60701
 Alpha virt. eigenvalues --    2.61122   2.61775   2.62076   2.62443   2.62792
 Alpha virt. eigenvalues --    2.63160   2.64033   2.64624   2.64987   2.65965
 Alpha virt. eigenvalues --    2.66293   2.66627   2.67333   2.67561   2.69378
 Alpha virt. eigenvalues --    2.69708   2.70310   2.71219   2.71674   2.72392
 Alpha virt. eigenvalues --    2.72874   2.74348   2.75562   2.76759   2.77477
 Alpha virt. eigenvalues --    2.78943   2.80557   2.81473   2.82460   2.83479
 Alpha virt. eigenvalues --    2.83726   2.84704   2.86672   2.87790   2.88141
 Alpha virt. eigenvalues --    3.14775   3.20416   3.35833   3.41117   3.46758
 Alpha virt. eigenvalues --    3.47849   3.48600   3.48628   3.51089   3.51106
 Alpha virt. eigenvalues --    3.52879   3.54103   3.60309   3.61075   3.62063
 Alpha virt. eigenvalues --    3.66198   4.32879   4.59771   7.90198  31.29234
          Condensed to atoms (all electrons):
               1          2          3          4          5          6
     1  Zr  15.085626  -0.123746  -0.001956  -0.133907  -0.192635  -0.600961
     2  O   -0.123746   9.063156   0.019530  -0.042532  -0.057588   0.088300
     3  O   -0.001956   0.019530   8.828592   0.015929  -0.044077  -0.003972
     4  O   -0.133907  -0.042532   0.015929   8.811134  -0.060093  -0.675956
     5  O   -0.192635  -0.057588  -0.044077  -0.060093   9.429715  -0.007267
     6  Si  -0.600961   0.088300  -0.003972  -0.675956  -0.007267  13.992212
     7  Si  -0.614919  -0.028212  -0.875805  -0.007194  -0.033916   0.084259
     8  Si  -0.591941  -0.999037  -0.020120   0.071155  -0.014324  -0.015963
     9  Si  -0.319609  -0.040692  -0.026425  -0.033122  -1.232498   0.038744
    10  O   -0.014243   0.001026  -0.002023   0.000938   0.129623  -0.002410
    11  O   -0.065230   0.003415   0.002993   0.001244   0.314637  -0.000781
    12  O    0.042967  -0.000002   0.004699   0.002077   0.153008  -0.002996
    13  O   -0.035773   0.186153   0.001654  -0.015597  -0.000672   0.035367
    14  O   -0.017122   0.262993  -0.017654  -0.008793   0.001891   0.028901
    15  O   -0.083511   0.292897  -0.000689   0.001239   0.000582  -0.000053
    16  O   -0.124929   0.004689  -0.000492   0.345154   0.003219  -0.424118
    17  O   -0.080778  -0.039875   0.008042   0.218191   0.001314  -0.452820
    18  O   -0.026362  -0.014483   0.003734   0.198274  -0.000619  -0.451127
    19  O    0.001631   0.008970   0.265092   0.010205   0.002127  -0.007611
    20  O   -0.145715  -0.000577   0.163778  -0.000860   0.001477   0.009035
    21  O    0.036172   0.010291   0.146299   0.003412   0.000207  -0.011892
    22  H   -0.008968  -0.000017  -0.000012  -0.000009   0.005785   0.000086
    23  H   -0.007720  -0.000013  -0.000005  -0.000055  -0.025236   0.000088
    24  H   -0.005309  -0.000186  -0.000011   0.000003  -0.005304   0.000074
    25  H    0.016966  -0.020000  -0.000111  -0.000308   0.000019   0.002623
    26  H    0.007265   0.000615   0.000014  -0.000011  -0.000004  -0.000147
    27  H    0.004176  -0.019157   0.000841  -0.001717   0.000011   0.008841
    28  H    0.005070  -0.000011  -0.018404  -0.000014  -0.000015  -0.000281
    29  H    0.004106  -0.007064  -0.020278  -0.000140  -0.000073   0.000145
    30  H    0.000714  -0.000012   0.000061  -0.000454  -0.000008  -0.000652
    31  H   -0.000120   0.000176  -0.000020  -0.018437  -0.000010   0.063722
    32  H    0.002112  -0.000024   0.000040   0.010441   0.000001   0.022774
    33  H   -0.016003   0.001019  -0.010112  -0.009590  -0.000101   0.053243
               7          8          9         10         11         12
     1  Zr  -0.614919  -0.591941  -0.319609  -0.014243  -0.065230   0.042967
     2  O   -0.028212  -0.999037  -0.040692   0.001026   0.003415  -0.000002
     3  O   -0.875805  -0.020120  -0.026425  -0.002023   0.002993   0.004699
     4  O   -0.007194   0.071155  -0.033122   0.000938   0.001244   0.002077
     5  O   -0.033916  -0.014324  -1.232498   0.129623   0.314637   0.153008
     6  Si   0.084259  -0.015963   0.038744  -0.002410  -0.000781  -0.002996
     7  Si  13.795750   0.182357   0.019876  -0.000246  -0.000881   0.003994
     8  Si   0.182357  13.806852   0.026281  -0.001004   0.001196  -0.000864
     9  Si   0.019876   0.026281  14.257176  -0.068407  -0.182559  -0.211308
    10  O   -0.000246  -0.001004  -0.068407   8.524789   0.014815   0.031598
    11  O   -0.000881   0.001196  -0.182559   0.014815   8.518033  -0.050800
    12  O    0.003994  -0.000864  -0.211308   0.031598  -0.050800   8.600932
    13  O    0.007307  -0.095444   0.000227   0.000000   0.000018   0.000008
    14  O    0.009403  -0.367975  -0.001490  -0.000002   0.000002   0.000017
    15  O   -0.002590  -0.304877  -0.000629   0.000000  -0.000024  -0.000016
    16  O    0.003800  -0.010295  -0.001022   0.000005  -0.000003  -0.000001
    17  O   -0.000770   0.096628   0.002538  -0.000001   0.000002  -0.000006
    18  O   -0.000731   0.074725   0.004163  -0.000002  -0.000000  -0.000001
    19  O   -0.409376  -0.016105   0.001039   0.000007  -0.000002  -0.000023
    20  O   -0.108844   0.009657   0.003149   0.000003  -0.000003  -0.000030
    21  O    0.024534  -0.040244  -0.001796   0.000001   0.000001   0.000023
    22  H   -0.000181   0.000090   0.047314  -0.006534  -0.005060   0.219666
    23  H    0.000061   0.000062   0.081067   0.228572  -0.006117   0.005864
    24  H    0.000053  -0.000084   0.037098   0.007350   0.242523  -0.007418
    25  H   -0.000461   0.057399  -0.000210   0.000000  -0.000000  -0.000000
    26  H   -0.000381   0.046143  -0.000043  -0.000000   0.000000  -0.000000
    27  H    0.001342   0.068434  -0.000007   0.000000  -0.000000  -0.000000
    28  H    0.056612  -0.000067  -0.000136  -0.000000  -0.000000  -0.000003
    29  H    0.048163   0.021954  -0.000057   0.000000   0.000000  -0.000001
    30  H    0.040289   0.000112   0.000023  -0.000000   0.000000   0.000000
    31  H    0.000154  -0.001977  -0.000052   0.000000  -0.000000   0.000000
    32  H   -0.000661   0.000052   0.000008  -0.000000   0.000000  -0.000000
    33  H    0.020633   0.000102   0.000077  -0.000000   0.000000   0.000000
              13         14         15         16         17         18
     1  Zr  -0.035773  -0.017122  -0.083511  -0.124929  -0.080778  -0.026362
     2  O    0.186153   0.262993   0.292897   0.004689  -0.039875  -0.014483
     3  O    0.001654  -0.017654  -0.000689  -0.000492   0.008042   0.003734
     4  O   -0.015597  -0.008793   0.001239   0.345154   0.218191   0.198274
     5  O   -0.000672   0.001891   0.000582   0.003219   0.001314  -0.000619
     6  Si   0.035367   0.028901  -0.000053  -0.424118  -0.452820  -0.451127
     7  Si   0.007307   0.009403  -0.002590   0.003800  -0.000770  -0.000731
     8  Si  -0.095444  -0.367975  -0.304877  -0.010295   0.096628   0.074725
     9  Si   0.000227  -0.001490  -0.000629  -0.001022   0.002538   0.004163
    10  O    0.000000  -0.000002   0.000000   0.000005  -0.000001  -0.000002
    11  O    0.000018   0.000002  -0.000024  -0.000003   0.000002  -0.000000
    12  O    0.000008   0.000017  -0.000016  -0.000001  -0.000006  -0.000001
    13  O    8.628255   0.087027  -0.090578   0.003734  -0.030895  -0.045579
    14  O    0.087027   8.674406   0.055522   0.003668  -0.035873  -0.026865
    15  O   -0.090578   0.055522   8.777236  -0.000174   0.003599   0.001674
    16  O    0.003734   0.003668  -0.000174   8.902411  -0.091658  -0.114938
    17  O   -0.030895  -0.035873   0.003599  -0.091658   8.935578   0.227424
    18  O   -0.045579  -0.026865   0.001674  -0.114938   0.227424   9.012944
    19  O    0.000180  -0.000439   0.000140  -0.001542  -0.030049   0.000162
    20  O    0.000008  -0.000248   0.000038   0.000065  -0.000983   0.000015
    21  O   -0.000254   0.016004  -0.000611  -0.000213  -0.005563   0.000477
    22  H   -0.000000  -0.000000  -0.000000   0.000000   0.000000  -0.000000
    23  H    0.000000   0.000000  -0.000000  -0.000000   0.000000  -0.000000
    24  H   -0.000000   0.000000   0.000002   0.000000  -0.000000  -0.000000
    25  H    0.218372  -0.011950   0.008914  -0.000054   0.000635   0.014930
    26  H   -0.005124  -0.010089   0.216986   0.000000  -0.000003   0.000006
    27  H   -0.009725   0.219314   0.004630   0.000184   0.017925  -0.000258
    28  H    0.000000  -0.000006  -0.000001  -0.000000   0.000004  -0.000000
    29  H    0.000797   0.017577  -0.002571  -0.000004  -0.000394   0.000006
    30  H    0.000001   0.000001   0.000000   0.000115  -0.000399  -0.000007
    31  H    0.002361   0.000167  -0.000018   0.003782  -0.000750   0.218152
    32  H   -0.000008  -0.000006   0.000000   0.233443  -0.003636   0.003882
    33  H    0.000230   0.002089  -0.000035  -0.000110   0.231010   0.002105
              19         20         21         22         23         24
     1  Zr   0.001631  -0.145715   0.036172  -0.008968  -0.007720  -0.005309
     2  O    0.008970  -0.000577   0.010291  -0.000017  -0.000013  -0.000186
     3  O    0.265092   0.163778   0.146299  -0.000012  -0.000005  -0.000011
     4  O    0.010205  -0.000860   0.003412  -0.000009  -0.000055   0.000003
     5  O    0.002127   0.001477   0.000207   0.005785  -0.025236  -0.005304
     6  Si  -0.007611   0.009035  -0.011892   0.000086   0.000088   0.000074
     7  Si  -0.409376  -0.108844   0.024534  -0.000181   0.000061   0.000053
     8  Si  -0.016105   0.009657  -0.040244   0.000090   0.000062  -0.000084
     9  Si   0.001039   0.003149  -0.001796   0.047314   0.081067   0.037098
    10  O    0.000007   0.000003   0.000001  -0.006534   0.228572   0.007350
    11  O   -0.000002  -0.000003   0.000001  -0.005060  -0.006117   0.242523
    12  O   -0.000023  -0.000030   0.000023   0.219666   0.005864  -0.007418
    13  O    0.000180   0.000008  -0.000254  -0.000000   0.000000  -0.000000
    14  O   -0.000439  -0.000248   0.016004  -0.000000   0.000000   0.000000
    15  O    0.000140   0.000038  -0.000611  -0.000000  -0.000000   0.000002
    16  O   -0.001542   0.000065  -0.000213   0.000000  -0.000000   0.000000
    17  O   -0.030049  -0.000983  -0.005563   0.000000   0.000000  -0.000000
    18  O    0.000162   0.000015   0.000477  -0.000000  -0.000000  -0.000000
    19  O    8.872863   0.032183   0.023428  -0.000000   0.000000  -0.000000
    20  O    0.032183   8.657058  -0.050464   0.000000   0.000000  -0.000000
    21  O    0.023428  -0.050464   8.485435  -0.000000   0.000000   0.000000
    22  H   -0.000000   0.000000  -0.000000   0.361784   0.000057   0.000122
    23  H    0.000000   0.000000   0.000000   0.000057   0.351041   0.000014
    24  H   -0.000000  -0.000000   0.000000   0.000122   0.000014   0.365166
    25  H   -0.000024   0.000000  -0.000019   0.000000   0.000000   0.000000
    26  H    0.000001  -0.000000   0.000039  -0.000000  -0.000000  -0.000000
    27  H    0.000033   0.000192  -0.004018  -0.000000  -0.000000   0.000000
    28  H    0.004619   0.229589  -0.002065  -0.000000   0.000000  -0.000000
    29  H   -0.008570   0.007668   0.206468   0.000000   0.000000  -0.000000
    30  H    0.224180  -0.001480  -0.007146   0.000000   0.000000  -0.000000
    31  H    0.000004  -0.000000  -0.000000  -0.000000  -0.000000   0.000000
    32  H    0.000097  -0.000000   0.000001  -0.000000  -0.000000  -0.000000
    33  H    0.014835  -0.000081   0.001473  -0.000000  -0.000000  -0.000000
              25         26         27         28         29         30
     1  Zr   0.016966   0.007265   0.004176   0.005070   0.004106   0.000714
     2  O   -0.020000   0.000615  -0.019157  -0.000011  -0.007064  -0.000012
     3  O   -0.000111   0.000014   0.000841  -0.018404  -0.020278   0.000061
     4  O   -0.000308  -0.000011  -0.001717  -0.000014  -0.000140  -0.000454
     5  O    0.000019  -0.000004   0.000011  -0.000015  -0.000073  -0.000008
     6  Si   0.002623  -0.000147   0.008841  -0.000281   0.000145  -0.000652
     7  Si  -0.000461  -0.000381   0.001342   0.056612   0.048163   0.040289
     8  Si   0.057399   0.046143   0.068434  -0.000067   0.021954   0.000112
     9  Si  -0.000210  -0.000043  -0.000007  -0.000136  -0.000057   0.000023
    10  O    0.000000  -0.000000   0.000000  -0.000000   0.000000  -0.000000
    11  O   -0.000000   0.000000  -0.000000  -0.000000   0.000000   0.000000
    12  O   -0.000000  -0.000000  -0.000000  -0.000003  -0.000001   0.000000
    13  O    0.218372  -0.005124  -0.009725   0.000000   0.000797   0.000001
    14  O   -0.011950  -0.010089   0.219314  -0.000006   0.017577   0.000001
    15  O    0.008914   0.216986   0.004630  -0.000001  -0.002571   0.000000
    16  O   -0.000054   0.000000   0.000184  -0.000000  -0.000004   0.000115
    17  O    0.000635  -0.000003   0.017925   0.000004  -0.000394  -0.000399
    18  O    0.014930   0.000006  -0.000258  -0.000000   0.000006  -0.000007
    19  O   -0.000024   0.000001   0.000033   0.004619  -0.008570   0.224180
    20  O    0.000000  -0.000000   0.000192   0.229589   0.007668  -0.001480
    21  O   -0.000019   0.000039  -0.004018  -0.002065   0.206468  -0.007146
    22  H    0.000000  -0.000000  -0.000000  -0.000000   0.000000   0.000000
    23  H    0.000000  -0.000000  -0.000000   0.000000   0.000000   0.000000
    24  H    0.000000  -0.000000   0.000000  -0.000000  -0.000000  -0.000000
    25  H    0.298897  -0.000012   0.000113   0.000000   0.000001   0.000000
    26  H   -0.000012   0.366020   0.000036   0.000000   0.000021  -0.000000
    27  H    0.000113   0.000036   0.283370  -0.000000  -0.001496   0.000009
    28  H    0.000000   0.000000  -0.000000   0.349175  -0.000017  -0.000016
    29  H    0.000001   0.000021  -0.001496  -0.000017   0.285937   0.000155
    30  H    0.000000  -0.000000   0.000009  -0.000016   0.000155   0.334255
    31  H   -0.000494   0.000000   0.000013  -0.000000   0.000000  -0.000000
    32  H   -0.000001   0.000000  -0.000000   0.000000  -0.000000  -0.000000
    33  H    0.000006  -0.000000  -0.002410  -0.000002   0.000099  -0.001158
              31         32         33
     1  Zr  -0.000120   0.002112  -0.016003
     2  O    0.000176  -0.000024   0.001019
     3  O   -0.000020   0.000040  -0.010112
     4  O   -0.018437   0.010441  -0.009590
     5  O   -0.000010   0.000001  -0.000101
     6  Si   0.063722   0.022774   0.053243
     7  Si   0.000154  -0.000661   0.020633
     8  Si  -0.001977   0.000052   0.000102
     9  Si  -0.000052   0.000008   0.000077
    10  O    0.000000  -0.000000  -0.000000
    11  O   -0.000000   0.000000   0.000000
    12  O    0.000000  -0.000000   0.000000
    13  O    0.002361  -0.000008   0.000230
    14  O    0.000167  -0.000006   0.002089
    15  O   -0.000018   0.000000  -0.000035
    16  O    0.003782   0.233443  -0.000110
    17  O   -0.000750  -0.003636   0.231010
    18  O    0.218152   0.003882   0.002105
    19  O    0.000004   0.000097   0.014835
    20  O   -0.000000  -0.000000  -0.000081
    21  O   -0.000000   0.000001   0.001473
    22  H   -0.000000  -0.000000  -0.000000
    23  H   -0.000000  -0.000000  -0.000000
    24  H    0.000000  -0.000000  -0.000000
    25  H   -0.000494  -0.000001   0.000006
    26  H    0.000000   0.000000  -0.000000
    27  H    0.000013  -0.000000  -0.002410
    28  H   -0.000000   0.000000  -0.000002
    29  H    0.000000  -0.000000   0.000099
    30  H   -0.000000  -0.000000  -0.001158
    31  H    0.331395   0.000001  -0.000038
    32  H    0.000001   0.349972   0.000157
    33  H   -0.000038   0.000157   0.269258
 Mulliken charges:
               1
     1  Zr   0.004653
     2  O   -0.550000
     3  O   -0.419134
     4  O   -0.680605
     5  O   -0.369176
     6  Si   2.230592
     7  Si   1.786584
     8  Si   2.017119
     9  Si   1.601281
    10  O   -0.843854
    11  O   -0.787418
    12  O   -0.791385
    13  O   -0.842048
    14  O   -0.880469
    15  O   -0.877083
    16  O   -0.734715
    17  O   -0.968437
    18  O   -1.081700
    19  O   -0.988058
    20  O   -0.804630
    21  O   -0.829980
    22  H    0.385877
    23  H    0.372321
    24  H    0.365908
    25  H    0.414769
    26  H    0.378667
    27  H    0.429325
    28  H    0.375969
    29  H    0.447565
    30  H    0.411417
    31  H    0.401990
    32  H    0.381354
    33  H    0.443303
 Sum of Mulliken charges =  -0.00000
 Mulliken charges with hydrogens summed into heavy atoms:
               1
     1  Zr   0.004653
     2  O   -0.550000
     3  O   -0.419134
     4  O   -0.680605
     5  O   -0.369176
     6  Si   2.230592
     7  Si   1.786584
     8  Si   2.017119
     9  Si   1.601281
    10  O   -0.471533
    11  O   -0.421510
    12  O   -0.405508
    13  O   -0.427279
    14  O   -0.451144
    15  O   -0.498417
    16  O   -0.353361
    17  O   -0.525135
    18  O   -0.679711
    19  O   -0.576641
    20  O   -0.428661
    21  O   -0.382415
 Electronic spatial extent (au):  <R**2>=           9869.0565
 Charge=              0.0000 electrons
 Dipole moment (field-independent basis, Debye):
    X=              1.0796    Y=             -0.7846    Z=             -2.4242  Tot=              2.7673
 Quadrupole moment (field-independent basis, Debye-Ang):
   XX=           -160.2004   YY=           -154.6497   ZZ=           -157.7946
   XY=             -4.9434   XZ=              2.2001   YZ=              5.7141
 Traceless Quadrupole moment (field-independent basis, Debye-Ang):
   XX=             -2.6521   YY=              2.8985   ZZ=             -0.2464
   XY=             -4.9434   XZ=              2.2001   YZ=              5.7141
 Octapole moment (field-independent basis, Debye-Ang**2):
  XXX=             74.3155  YYY=              6.6050  ZZZ=            -19.0384  XYY=             -2.2609
  XXY=             20.1614  XXZ=             19.1582  XZZ=              5.5229  YZZ=            -17.1990
  YYZ=            -15.4081  XYZ=             28.0406
 Hexadecapole moment (field-independent basis, Debye-Ang**3):
 XXXX=          -6031.7222 YYYY=          -2834.4406 ZZZZ=          -2261.4735 XXXY=             57.0391
 XXXZ=            -23.1473 YYYX=              4.2564 YYYZ=            216.9834 ZZZX=           -185.7896
 ZZZY=            -54.6432 XXYY=          -1484.3216 XXZZ=          -1360.7234 YYZZ=           -924.8354
 XXYZ=             -7.6687 YYXZ=            131.6782 ZZXY=            -60.1567
 N-N= 2.832844991195D+03 E-N=-1.137829148636D+04  KE= 2.373154966654D+03
 PrsmSu:  requested number of processors reduced to:   2 ShMem   1 Linda.
 PrsmSu:  requested number of processors reduced to:  10 ShMem   1 Linda.
   1 Symmetry operations used in ECPInt.
 ECPInt:  NShTT=   13203 NPrTT=   78401 LenC2=   11524 LenP2D=   44636.
 LDataN:  DoStor=T MaxTD1= 9 Len=  602
 Number of processors reduced to  14 by ecpmxn.
 Calling FoFJK, ICntrl=      2127 FMM=F ISym2X=0 I1Cent= 0 IOpClX= 0 NMat=1 NMatS=1 NMatT=0.
 CoulSu:  requested number of processors reduced to:  10 ShMem   1 Linda.
 Defaulting to unpruned grid for atomic number  40.
 Defaulting to unpruned grid for atomic number  40.
 Defaulting to unpruned grid for atomic number  40.
 Defaulting to unpruned grid for atomic number  40.
 Defaulting to unpruned grid for atomic number  40.
 Defaulting to unpruned grid for atomic number  40.
 Defaulting to unpruned grid for atomic number  40.
 Defaulting to unpruned grid for atomic number  40.
 Defaulting to unpruned grid for atomic number  40.
 Defaulting to unpruned grid for atomic number  40.
 Defaulting to unpruned grid for atomic number  40.
 Defaulting to unpruned grid for atomic number  40.
 Defaulting to unpruned grid for atomic number  40.
 Defaulting to unpruned grid for atomic number  40.
 Defaulting to unpruned grid for atomic number  40.
 Defaulting to unpruned grid for atomic number  40.
 ***** Axes restored to original set *****
 -------------------------------------------------------------------
 Center     Atomic                   Forces (Hartrees/Bohr)
 Number     Number              X              Y              Z
 -------------------------------------------------------------------
      1       40          -0.000012063   -0.000009087    0.000050862
      2        8          -0.000007933    0.000000876   -0.000023188
      3        8           0.000011810    0.000008174   -0.000007804
      4        8           0.000005017   -0.000009810   -0.000004142
      5        8           0.000015324   -0.000000177   -0.000041970
      6       14          -0.000017926    0.000012081    0.000011800
      7       14           0.000008948   -0.000007186    0.000005773
      8       14           0.000007176    0.000003761    0.000015820
      9       14          -0.000019796    0.000026851    0.000040936
     10        8           0.000010093    0.000000976   -0.000013422
     11        8           0.000007544   -0.000027714   -0.000010001
     12        8          -0.000005250   -0.000008634   -0.000007186
     13        8          -0.000004893   -0.000003117   -0.000000553
     14        8          -0.000003650    0.000000384   -0.000008826
     15        8          -0.000008472   -0.000004849   -0.000007785
     16        8           0.000001253   -0.000003250   -0.000001573
     17        8           0.000011149   -0.000010805   -0.000008904
     18        8          -0.000005173    0.000002597   -0.000001542
     19        8           0.000001411    0.000000766   -0.000000585
     20        8           0.000002042   -0.000001089   -0.000002056
     21        8          -0.000005973    0.000001623   -0.000005295
     22        1           0.000003153   -0.000002157   -0.000000068
     23        1          -0.000005329   -0.000007095   -0.000000389
     24        1           0.000000666    0.000012957    0.000008053
     25        1           0.000000596    0.000000805   -0.000003158
     26        1           0.000003431    0.000004830    0.000001224
     27        1           0.000000231    0.000002962    0.000005328
     28        1           0.000002246    0.000002485    0.000003756
     29        1           0.000004184    0.000000904    0.000003682
     30        1          -0.000000650    0.000003303   -0.000000579
     31        1           0.000003656   -0.000000051   -0.000000518
     32        1          -0.000002515    0.000002845   -0.000001304
     33        1          -0.000000307    0.000005844    0.000003613
 -------------------------------------------------------------------
 Cartesian Forces:  Max     0.000050862 RMS     0.000011167

 GradGradGradGradGradGradGradGradGradGradGradGradGradGradGradGradGradGrad
 Berny optimization.
 FormGI is forming the generalized inverse of G from B-inverse, IUseBI=4.
 Internal  Forces:  Max     0.000034614 RMS     0.000007446
 Search for a local minimum.
 Step number   1 out of a maximum of  148
 All quantities printed in internal units (Hartrees-Bohrs-Radians)
 Mixed Optimization -- En-DIIS/RFO-DIIS
 Second derivative matrix not updated -- first step.
 ITU=  0
     Eigenvalues ---    0.00230   0.00230   0.00230   0.00230   0.03240
     Eigenvalues ---    0.03358   0.03498   0.03580   0.03665   0.03666
     Eigenvalues ---    0.03680   0.03686   0.03693   0.03739   0.03789
     Eigenvalues ---    0.03792   0.03816   0.03834   0.03850   0.03857
     Eigenvalues ---    0.08405   0.09407   0.11077   0.11224   0.11819
     Eigenvalues ---    0.11833   0.11884   0.12136   0.12177   0.12239
     Eigenvalues ---    0.12563   0.12783   0.12895   0.13099   0.13313
     Eigenvalues ---    0.16000   0.16000   0.16000   0.16000   0.16000
     Eigenvalues ---    0.16000   0.16000   0.16000   0.16000   0.16000
     Eigenvalues ---    0.16000   0.16000   0.19173   0.19893   0.20028
     Eigenvalues ---    0.20179   0.20203   0.20204   0.20208   0.20515
     Eigenvalues ---    0.20653   0.20795   0.20988   0.21175   0.21186
     Eigenvalues ---    0.21263   0.25000   0.25000   0.25000   0.38002
     Eigenvalues ---    0.39187   0.40659   0.41547   0.42502   0.42510
     Eigenvalues ---    0.42670   0.42743   0.42824   0.43363   0.43950
     Eigenvalues ---    0.43981   0.44274   0.44484   0.44689   0.44768
     Eigenvalues ---    0.50656   0.51353   0.52035   0.52548   0.54335
     Eigenvalues ---    0.54625   0.54642   0.54648   0.54690   0.54692
     Eigenvalues ---    0.54712   0.547641000.000001000.000001000.00000
     Eigenvalues --- 1000.000001000.000001000.000001000.000001000.00000
     Eigenvalues --- 1000.000001000.000001000.000001000.000001000.00000
     Eigenvalues --- 1000.000001000.000001000.000001000.000001000.00000
     Eigenvalues --- 1000.000001000.000001000.000001000.000001000.00000
     Eigenvalues --- 1000.000001000.000001000.000001000.000001000.00000
     Eigenvalues --- 1000.000001000.000001000.000001000.000001000.00000
     Eigenvalues --- 1000.000001000.000001000.000001000.000001000.00000
     Eigenvalues --- 1000.000001000.000001000.000001000.000001000.00000
     Eigenvalues --- 1000.000001000.000001000.00000
 RFO step:  Lambda=-1.27452597D-07 EMin= 2.30000000D-03
 Linear search not attempted -- first point.
 Iteration  1 RMS(Cart)=  0.00259004 RMS(Int)=  0.00000240
 Iteration  2 RMS(Cart)=  0.00000379 RMS(Int)=  0.00000000
 Iteration  3 RMS(Cart)=  0.00000000 RMS(Int)=  0.00000000
 Iteration  1 RMS(Cart)=  0.00000000 RMS(Int)=  0.00000000
 Variable       Old X    -DE/DX   Delta X   Delta X   Delta X     New X
                                 (Linear)    (Quad)   (Total)
    R1        3.67648  -0.00001   0.00000  -0.00006  -0.00006   3.67642
    R2        3.69191   0.00000   0.00000   0.00000   0.00000   3.69191
    R3        3.73835   0.00000   0.00000   0.00002   0.00002   3.73838
    R4        3.70231   0.00001   0.00000   0.00003   0.00003   3.70234
    R5        3.11688   0.00000   0.00000   0.00001   0.00001   3.11688
    R6        3.09579  -0.00000   0.00000  -0.00001  -0.00001   3.09578
    R7        3.10215   0.00000   0.00000   0.00001   0.00001   3.10216
    R8        3.09246  -0.00001   0.00000  -0.00001  -0.00001   3.09244
    R9        3.11587   0.00000   0.00000   0.00001   0.00001   3.11588
   R10        3.11989  -0.00001   0.00000  -0.00003  -0.00003   3.11986
   R11        3.14368  -0.00000   0.00000  -0.00000  -0.00000   3.14368
   R12        3.18062   0.00000   0.00000   0.00000   0.00000   3.18063
   R13        3.10925   0.00000   0.00000   0.00000   0.00000   3.10925
   R14        3.09339   0.00000   0.00000   0.00000   0.00000   3.09339
   R15        3.10178   0.00001   0.00000   0.00001   0.00001   3.10179
   R16        3.16374   0.00000   0.00000   0.00001   0.00001   3.16375
   R17        3.09829  -0.00001   0.00000  -0.00002  -0.00002   3.09827
   R18        3.11979   0.00001   0.00000   0.00003   0.00003   3.11983
   R19        3.13204   0.00001   0.00000   0.00003   0.00003   3.13206
   R20        3.11779  -0.00001   0.00000  -0.00002  -0.00002   3.11777
   R21        1.82152   0.00000   0.00000   0.00000   0.00000   1.82152
   R22        1.82107   0.00000   0.00000   0.00000   0.00000   1.82107
   R23        1.82088   0.00000   0.00000   0.00000   0.00000   1.82089
   R24        1.84078   0.00000   0.00000   0.00001   0.00001   1.84078
   R25        1.84566  -0.00001   0.00000  -0.00001  -0.00001   1.84565
   R26        1.82042  -0.00000   0.00000  -0.00001  -0.00001   1.82041
   R27        1.82108  -0.00000   0.00000  -0.00000  -0.00000   1.82108
   R28        1.85909   0.00000   0.00000   0.00001   0.00001   1.85910
   R29        1.82146   0.00000   0.00000   0.00000   0.00000   1.82146
   R30        1.82428   0.00000   0.00000   0.00001   0.00001   1.82428
   R31        1.82167   0.00000   0.00000   0.00001   0.00001   1.82168
   R32        1.85224  -0.00000   0.00000  -0.00000  -0.00000   1.85224
    A1        1.85172   0.00001   0.00000   0.00007   0.00007   1.85179
    A2        1.80156  -0.00002   0.00000  -0.00010  -0.00010   1.80146
    A3        1.96889   0.00003   0.00000   0.00023   0.00023   1.96912
    A4        1.83430   0.00001   0.00000   0.00001   0.00001   1.83431
    A5        2.01802  -0.00003   0.00000  -0.00017  -0.00017   2.01786
    A6        1.97057  -0.00000   0.00000  -0.00004  -0.00004   1.97053
    A7        2.46523  -0.00000   0.00000  -0.00002  -0.00002   2.46522
    A8        2.58826  -0.00000   0.00000  -0.00000  -0.00000   2.58826
    A9        2.35483  -0.00001   0.00000  -0.00004  -0.00004   2.35478
   A10        2.86714  -0.00003   0.00000   0.00000  -0.00000   2.86714
   A11        1.91978   0.00000   0.00000   0.00000   0.00000   1.91978
   A12        1.91546  -0.00000   0.00000   0.00000   0.00000   1.91546
   A13        1.95200  -0.00000   0.00000  -0.00001  -0.00001   1.95199
   A14        2.00709   0.00000   0.00000   0.00001   0.00001   2.00710
   A15        1.88611  -0.00000   0.00000  -0.00001  -0.00001   1.88609
   A16        1.78001   0.00000   0.00000   0.00001   0.00001   1.78002
   A17        1.80239   0.00000   0.00000   0.00001   0.00001   1.80239
   A18        1.99614  -0.00000   0.00000  -0.00000  -0.00000   1.99614
[...]
 Alpha virt. eigenvalues --    3.14750   3.20390   3.35833   3.41112   3.46754
 Alpha virt. eigenvalues --    3.47852   3.48598   3.48626   3.51085   3.51104
 Alpha virt. eigenvalues --    3.52876   3.54123   3.60308   3.61074   3.62059
 Alpha virt. eigenvalues --    3.66206   4.32599   4.59741   7.89982  31.29226
          Condensed to atoms (all electrons):
               1          2          3          4          5          6
     1  Zr  15.087423  -0.126908  -0.001696  -0.134677  -0.193577  -0.597731
     2  O   -0.126908   9.064415   0.019581  -0.042524  -0.057615   0.088945
     3  O   -0.001696   0.019581   8.828613   0.015787  -0.043918  -0.004169
     4  O   -0.134677  -0.042524   0.015787   8.811217  -0.059931  -0.675692
     5  O   -0.193577  -0.057615  -0.043918  -0.059931   9.430695  -0.007136
     6  Si  -0.597731   0.088945  -0.004169  -0.675692  -0.007136  13.988485
     7  Si  -0.615337  -0.028031  -0.875997  -0.007043  -0.033858   0.084346
     8  Si  -0.587621  -0.998916  -0.020259   0.071400  -0.014238  -0.017477
     9  Si  -0.320003  -0.040661  -0.026481  -0.033307  -1.234920   0.038645
    10  O   -0.013889   0.001022  -0.002037   0.000960   0.129749  -0.002430
    11  O   -0.064718   0.003442   0.002988   0.001232   0.314500  -0.000794
    12  O    0.042310  -0.000011   0.004707   0.002089   0.154130  -0.002970
    13  O   -0.037102   0.186529   0.001658  -0.015615  -0.000673   0.035695
    14  O   -0.018295   0.263299  -0.017615  -0.008825   0.001906   0.029211
    15  O   -0.083169   0.292801  -0.000691   0.001242   0.000579  -0.000140
    16  O   -0.125169   0.004690  -0.000492   0.345041   0.003218  -0.423666
    17  O   -0.080687  -0.039941   0.007950   0.218447   0.001299  -0.453124
    18  O   -0.026758  -0.014432   0.003731   0.198425  -0.000615  -0.450965
    19  O    0.001034   0.009000   0.264914   0.010184   0.002123  -0.007459
    20  O   -0.145770  -0.000574   0.163743  -0.000863   0.001475   0.009024
    21  O    0.036075   0.010346   0.146367   0.003404   0.000212  -0.011853
    22  H   -0.008951  -0.000018  -0.000013  -0.000009   0.005777   0.000086
    23  H   -0.007701  -0.000013  -0.000005  -0.000056  -0.025241   0.000086
    24  H   -0.005304  -0.000188  -0.000011   0.000003  -0.005357   0.000071
    25  H    0.017113  -0.020029  -0.000111  -0.000301   0.000019   0.002570
    26  H    0.007271   0.000603   0.000014  -0.000011  -0.000004  -0.000146
    27  H    0.004420  -0.019192   0.000841  -0.001717   0.000011   0.008773
    28  H    0.005082  -0.000011  -0.018409  -0.000014  -0.000015  -0.000282
    29  H    0.004169  -0.007077  -0.020279  -0.000140  -0.000073   0.000141
    30  H    0.000739  -0.000012   0.000066  -0.000453  -0.000008  -0.000663
    31  H   -0.000114   0.000175  -0.000020  -0.018440  -0.000009   0.063718
    32  H    0.002097  -0.000024   0.000040   0.010428   0.000001   0.022818
    33  H   -0.016036   0.001020  -0.010104  -0.009579  -0.000101   0.053254
               7          8          9         10         11         12
     1  Zr  -0.615337  -0.587621  -0.320003  -0.013889  -0.064718   0.042310
     2  O   -0.028031  -0.998916  -0.040661   0.001022   0.003442  -0.000011
     3  O   -0.875997  -0.020259  -0.026481  -0.002037   0.002988   0.004707
     4  O   -0.007043   0.071400  -0.033307   0.000960   0.001232   0.002089
     5  O   -0.033858  -0.014238  -1.234920   0.129749   0.314500   0.154130
     6  Si   0.084346  -0.017477   0.038645  -0.002430  -0.000794  -0.002970
     7  Si  13.795783   0.182165   0.019960  -0.000254  -0.000869   0.004029
     8  Si   0.182165  13.803567   0.026177  -0.000990   0.001181  -0.000818
     9  Si   0.019960   0.026177  14.263234  -0.069009  -0.182894  -0.212635
    10  O   -0.000254  -0.000990  -0.069009   8.524827   0.014899   0.031723
    11  O   -0.000869   0.001181  -0.182894   0.014899   8.517931  -0.050877
    12  O    0.004029  -0.000818  -0.212635   0.031723  -0.050877   8.601139
    13  O    0.007344  -0.095220   0.000246   0.000000   0.000018   0.000009
    14  O    0.009498  -0.367884  -0.001479  -0.000002   0.000002   0.000017
    15  O   -0.002616  -0.304903  -0.000641   0.000000  -0.000024  -0.000016
    16  O    0.003800  -0.010247  -0.001016   0.000005  -0.000003  -0.000001
    17  O   -0.000709   0.096695   0.002533  -0.000002   0.000002  -0.000006
    18  O   -0.000710   0.074659   0.004175  -0.000002  -0.000000  -0.000001
    19  O   -0.408718  -0.016029   0.001046   0.000007  -0.000002  -0.000022
    20  O   -0.108738   0.009669   0.003163   0.000002  -0.000003  -0.000029
    21  O    0.024400  -0.040264  -0.001810   0.000001   0.000001   0.000024
    22  H   -0.000185   0.000089   0.047296  -0.006553  -0.005069   0.219722
    23  H    0.000061   0.000062   0.081060   0.228571  -0.006138   0.005873
    24  H    0.000054  -0.000087   0.037207   0.007354   0.242485  -0.007436
    25  H   -0.000463   0.057391  -0.000211   0.000000  -0.000000  -0.000000
    26  H   -0.000380   0.046134  -0.000043  -0.000000   0.000000  -0.000000
    27  H    0.001315   0.068381  -0.000009   0.000000  -0.000000  -0.000000
    28  H    0.056613  -0.000069  -0.000135  -0.000000  -0.000000  -0.000004
    29  H    0.048147   0.021938  -0.000057   0.000000   0.000000  -0.000001
    30  H    0.040254   0.000110   0.000023  -0.000000   0.000000   0.000000
    31  H    0.000154  -0.001974  -0.000052   0.000000  -0.000000   0.000000
    32  H   -0.000661   0.000052   0.000007  -0.000000   0.000000  -0.000000
    33  H    0.020619   0.000110   0.000077  -0.000000   0.000000   0.000000
              13         14         15         16         17         18
     1  Zr  -0.037102  -0.018295  -0.083169  -0.125169  -0.080687  -0.026758
     2  O    0.186529   0.263299   0.292801   0.004690  -0.039941  -0.014432
     3  O    0.001658  -0.017615  -0.000691  -0.000492   0.007950   0.003731
     4  O   -0.015615  -0.008825   0.001242   0.345041   0.218447   0.198425
     5  O   -0.000673   0.001906   0.000579   0.003218   0.001299  -0.000615
     6  Si   0.035695   0.029211  -0.000140  -0.423666  -0.453124  -0.450965
     7  Si   0.007344   0.009498  -0.002616   0.003800  -0.000709  -0.000710
     8  Si  -0.095220  -0.367884  -0.304903  -0.010247   0.096695   0.074659
     9  Si   0.000246  -0.001479  -0.000641  -0.001016   0.002533   0.004175
    10  O    0.000000  -0.000002   0.000000   0.000005  -0.000002  -0.000002
    11  O    0.000018   0.000002  -0.000024  -0.000003   0.000002  -0.000000
    12  O    0.000009   0.000017  -0.000016  -0.000001  -0.000006  -0.000001
    13  O    8.628523   0.087065  -0.090684   0.003730  -0.030891  -0.045539
    14  O    0.087065   8.674707   0.055498   0.003672  -0.035920  -0.026873
    15  O   -0.090684   0.055498   8.777246  -0.000174   0.003598   0.001672
    16  O    0.003730   0.003672  -0.000174   8.902396  -0.091667  -0.115003
    17  O   -0.030891  -0.035920   0.003598  -0.091667   8.935642   0.227461
    18  O   -0.045539  -0.026873   0.001672  -0.115003   0.227461   9.012997
    19  O    0.000182  -0.000428   0.000140  -0.001550  -0.030068   0.000165
    20  O    0.000008  -0.000244   0.000038   0.000065  -0.000985   0.000015
    21  O   -0.000253   0.016031  -0.000609  -0.000214  -0.005563   0.000478
    22  H   -0.000000  -0.000000  -0.000000   0.000000   0.000000  -0.000000
    23  H    0.000000   0.000000  -0.000000  -0.000000   0.000000  -0.000000
    24  H   -0.000000   0.000000   0.000002   0.000000  -0.000000  -0.000000
    25  H    0.218325  -0.011958   0.008915  -0.000052   0.000633   0.014916
    26  H   -0.005126  -0.010085   0.217013   0.000000  -0.000003   0.000006
    27  H   -0.009736   0.219285   0.004630   0.000184   0.017915  -0.000259
    28  H   -0.000000  -0.000005  -0.000001  -0.000000   0.000004  -0.000000
    29  H    0.000797   0.017570  -0.002572  -0.000004  -0.000394   0.000006
    30  H    0.000001   0.000001   0.000000   0.000115  -0.000397  -0.000007
    31  H    0.002359   0.000167  -0.000018   0.003783  -0.000749   0.218151
    32  H   -0.000008  -0.000006   0.000000   0.233425  -0.003638   0.003885
    33  H    0.000230   0.002087  -0.000035  -0.000111   0.231019   0.002104
              19         20         21         22         23         24
     1  Zr   0.001034  -0.145770   0.036075  -0.008951  -0.007701  -0.005304
     2  O    0.009000  -0.000574   0.010346  -0.000018  -0.000013  -0.000188
     3  O    0.264914   0.163743   0.146367  -0.000013  -0.000005  -0.000011
     4  O    0.010184  -0.000863   0.003404  -0.000009  -0.000056   0.000003
     5  O    0.002123   0.001475   0.000212   0.005777  -0.025241  -0.005357
     6  Si  -0.007459   0.009024  -0.011853   0.000086   0.000086   0.000071
     7  Si  -0.408718  -0.108738   0.024400  -0.000185   0.000061   0.000054
     8  Si  -0.016029   0.009669  -0.040264   0.000089   0.000062  -0.000087
     9  Si   0.001046   0.003163  -0.001810   0.047296   0.081060   0.037207
    10  O    0.000007   0.000002   0.000001  -0.006553   0.228571   0.007354
    11  O   -0.000002  -0.000003   0.000001  -0.005069  -0.006138   0.242485
    12  O   -0.000022  -0.000029   0.000024   0.219722   0.005873  -0.007436
    13  O    0.000182   0.000008  -0.000253  -0.000000   0.000000  -0.000000
    14  O   -0.000428  -0.000244   0.016031  -0.000000   0.000000   0.000000
    15  O    0.000140   0.000038  -0.000609  -0.000000  -0.000000   0.000002
    16  O   -0.001550   0.000065  -0.000214   0.000000  -0.000000   0.000000
    17  O   -0.030068  -0.000985  -0.005563   0.000000   0.000000  -0.000000
    18  O    0.000165   0.000015   0.000478  -0.000000  -0.000000  -0.000000
    19  O    8.872703   0.032128   0.023460  -0.000000   0.000000  -0.000000
    20  O    0.032128   8.657015  -0.050445   0.000000   0.000000  -0.000000
    21  O    0.023460  -0.050445   8.485536  -0.000000   0.000000   0.000000
    22  H   -0.000000   0.000000  -0.000000   0.361741   0.000057   0.000122
    23  H    0.000000   0.000000   0.000000   0.000057   0.351048   0.000014
    24  H   -0.000000  -0.000000   0.000000   0.000122   0.000014   0.365184
    25  H   -0.000024   0.000000  -0.000019   0.000000   0.000000   0.000000
    26  H    0.000001  -0.000000   0.000039  -0.000000  -0.000000  -0.000000
    27  H    0.000030   0.000192  -0.004022  -0.000000  -0.000000   0.000000
    28  H    0.004618   0.229588  -0.002067  -0.000000   0.000000  -0.000000
    29  H   -0.008567   0.007666   0.206462   0.000000   0.000000  -0.000000
    30  H    0.224207  -0.001479  -0.007146   0.000000   0.000000  -0.000000
    31  H    0.000004  -0.000000  -0.000000  -0.000000  -0.000000   0.000000
    32  H    0.000097  -0.000000   0.000001  -0.000000  -0.000000  -0.000000
    33  H    0.014851  -0.000081   0.001473  -0.000000  -0.000000  -0.000000
              25         26         27         28         29         30
     1  Zr   0.017113   0.007271   0.004420   0.005082   0.004169   0.000739
     2  O   -0.020029   0.000603  -0.019192  -0.000011  -0.007077  -0.000012
     3  O   -0.000111   0.000014   0.000841  -0.018409  -0.020279   0.000066
     4  O   -0.000301  -0.000011  -0.001717  -0.000014  -0.000140  -0.000453
     5  O    0.000019  -0.000004   0.000011  -0.000015  -0.000073  -0.000008
     6  Si   0.002570  -0.000146   0.008773  -0.000282   0.000141  -0.000663
     7  Si  -0.000463  -0.000380   0.001315   0.056613   0.048147   0.040254
     8  Si   0.057391   0.046134   0.068381  -0.000069   0.021938   0.000110
     9  Si  -0.000211  -0.000043  -0.000009  -0.000135  -0.000057   0.000023
    10  O    0.000000  -0.000000   0.000000  -0.000000   0.000000  -0.000000
    11  O   -0.000000   0.000000  -0.000000  -0.000000   0.000000   0.000000
    12  O   -0.000000  -0.000000  -0.000000  -0.000004  -0.000001   0.000000
    13  O    0.218325  -0.005126  -0.009736  -0.000000   0.000797   0.000001
    14  O   -0.011958  -0.010085   0.219285  -0.000005   0.017570   0.000001
    15  O    0.008915   0.217013   0.004630  -0.000001  -0.002572   0.000000
    16  O   -0.000052   0.000000   0.000184  -0.000000  -0.000004   0.000115
    17  O    0.000633  -0.000003   0.017915   0.000004  -0.000394  -0.000397
    18  O    0.014916   0.000006  -0.000259  -0.000000   0.000006  -0.000007
    19  O   -0.000024   0.000001   0.000030   0.004618  -0.008567   0.224207
    20  O    0.000000  -0.000000   0.000192   0.229588   0.007666  -0.001479
    21  O   -0.000019   0.000039  -0.004022  -0.002067   0.206462  -0.007146
    22  H    0.000000  -0.000000  -0.000000  -0.000000   0.000000   0.000000
    23  H    0.000000  -0.000000  -0.000000   0.000000   0.000000   0.000000
    24  H    0.000000  -0.000000   0.000000  -0.000000  -0.000000  -0.000000
    25  H    0.298916  -0.000012   0.000113   0.000000   0.000001   0.000000
    26  H   -0.000012   0.365996   0.000036   0.000000   0.000021  -0.000000
    27  H    0.000113   0.000036   0.283365  -0.000000  -0.001495   0.000009
    28  H    0.000000   0.000000  -0.000000   0.349181  -0.000017  -0.000016
    29  H    0.000001   0.000021  -0.001495  -0.000017   0.285924   0.000155
    30  H    0.000000  -0.000000   0.000009  -0.000016   0.000155   0.334252
    31  H   -0.000495   0.000000   0.000013  -0.000000   0.000000  -0.000000
    32  H   -0.000001   0.000000  -0.000000   0.000000  -0.000000  -0.000000
    33  H    0.000006  -0.000000  -0.002409  -0.000002   0.000100  -0.001159
              31         32         33
     1  Zr  -0.000114   0.002097  -0.016036
     2  O    0.000175  -0.000024   0.001020
     3  O   -0.000020   0.000040  -0.010104
     4  O   -0.018440   0.010428  -0.009579
     5  O   -0.000009   0.000001  -0.000101
     6  Si   0.063718   0.022818   0.053254
     7  Si   0.000154  -0.000661   0.020619
     8  Si  -0.001974   0.000052   0.000110
     9  Si  -0.000052   0.000007   0.000077
    10  O    0.000000  -0.000000  -0.000000
    11  O   -0.000000   0.000000   0.000000
    12  O    0.000000  -0.000000   0.000000
    13  O    0.002359  -0.000008   0.000230
    14  O    0.000167  -0.000006   0.002087
    15  O   -0.000018   0.000000  -0.000035
    16  O    0.003783   0.233425  -0.000111
    17  O   -0.000749  -0.003638   0.231019
    18  O    0.218151   0.003885   0.002104
    19  O    0.000004   0.000097   0.014851
    20  O   -0.000000  -0.000000  -0.000081
    21  O   -0.000000   0.000001   0.001473
    22  H   -0.000000  -0.000000  -0.000000
    23  H   -0.000000  -0.000000  -0.000000
    24  H    0.000000  -0.000000  -0.000000
    25  H   -0.000495  -0.000001   0.000006
    26  H    0.000000   0.000000  -0.000000
    27  H    0.000013  -0.000000  -0.002409
    28  H   -0.000000   0.000000  -0.000002
    29  H    0.000000  -0.000000   0.000100
    30  H   -0.000000  -0.000000  -0.001159
    31  H    0.331410   0.000001  -0.000038
    32  H    0.000001   0.349973   0.000157
    33  H   -0.000038   0.000157   0.269235
 Mulliken charges:
               1
     1  Zr   0.003483
     2  O   -0.549690
     3  O   -0.418695
     4  O   -0.680658
     5  O   -0.368405
     6  Si   2.230825
     7  Si   1.786025
     8  Si   2.017214
     9  Si   1.600514
    10  O   -0.843951
    11  O   -0.787290
    12  O   -0.790947
    13  O   -0.841871
    14  O   -0.880397
    15  O   -0.877080
    16  O   -0.734755
    17  O   -0.968452
    18  O   -1.081679
    19  O   -0.988029
    20  O   -0.804580
    21  O   -0.830046
    22  H    0.385906
    23  H    0.372321
    24  H    0.365886
    25  H    0.414758
    26  H    0.378676
    27  H    0.429325
    28  H    0.375961
    29  H    0.447578
    30  H    0.411407
    31  H    0.401975
    32  H    0.381357
    33  H    0.443312
 Sum of Mulliken charges =  -0.00000
 Mulliken charges with hydrogens summed into heavy atoms:
               1
     1  Zr   0.003483
     2  O   -0.549690
     3  O   -0.418695
     4  O   -0.680658
     5  O   -0.368405
     6  Si   2.230825
     7  Si   1.786025
     8  Si   2.017214
     9  Si   1.600514
    10  O   -0.471630
    11  O   -0.421404
    12  O   -0.405041
    13  O   -0.427113
    14  O   -0.451071
    15  O   -0.498404
    16  O   -0.353398
    17  O   -0.525140
    18  O   -0.679704
    19  O   -0.576621
    20  O   -0.428619
    21  O   -0.382468
 Electronic spatial extent (au):  <R**2>=           9869.1310
 Charge=              0.0000 electrons
 Dipole moment (field-independent basis, Debye):
    X=              1.0829    Y=             -0.7796    Z=             -2.4092  Tot=              2.7540
 Quadrupole moment (field-independent basis, Debye-Ang):
   XX=           -160.2115   YY=           -154.6450   ZZ=           -157.8027
   XY=             -4.9213   XZ=              2.2285   YZ=              5.7165
 Traceless Quadrupole moment (field-independent basis, Debye-Ang):
   XX=             -2.6584   YY=              2.9081   ZZ=             -0.2496
   XY=             -4.9213   XZ=              2.2285   YZ=              5.7165
 Octapole moment (field-independent basis, Debye-Ang**2):
  XXX=             74.2793  YYY=              6.6856  ZZZ=            -18.5905  XYY=             -2.0854
  XXY=             20.1683  XXZ=             19.2198  XZZ=              5.3979  YZZ=            -17.1764
  YYZ=            -15.7311  XYZ=             28.0504
 Hexadecapole moment (field-independent basis, Debye-Ang**3):
 XXXX=          -6032.3181 YYYY=          -2834.4534 ZZZZ=          -2262.2788 XXXY=             57.8119
 XXXZ=            -24.5309 YYYX=              4.5310 YYYZ=            217.2219 ZZZX=           -184.0704
 ZZZY=            -54.8640 XXYY=          -1483.1886 XXZZ=          -1361.9141 YYZZ=           -924.4144
 XXYZ=             -7.5652 YYXZ=            130.5027 ZZXY=            -60.7338
 N-N= 2.832852873580D+03 E-N=-1.137830686539D+04  KE= 2.373154934417D+03
 1\1\GINC-GRA1299\FOpt\RB3LYP\Gen\H12O16Si4Zr1\SARASHS\14-Aug-2020\0\\#
 n B3LYP/Gen Pseudo=cards EmpiricalDispersion=GD3 Opt=modredundant\\Tit
 le\\0,1\Zr,0.6578838217,-0.1246364347,-0.0758114274\O,-0.2263643329,-0
 .8887500072,1.4795886095\O,0.1050519741,1.7477808888,-0.1478670888\O,-
 0.2662018781,-0.9936180431,-1.593817823\O,2.5920304184,-0.4369483284,-
 0.0808621962\Si,-1.8288072935,-1.3493164859,-1.9495937402\Si,-1.112531
 5679,2.8434657028,-0.12140981\Si,-1.7286919956,-1.1272765233,2.1172435
 577\Si,4.2163498519,-0.2606081147,0.0109838329\O,4.953803334,-0.112917
 7931,-1.4587234365\O,4.899888343,-1.6001305834,0.7078093747\O,4.448789
 6396,1.1377849098,0.8550476851\O,-2.3248242046,-2.6021335429,1.7127782
 793\O,-2.7269164795,0.0856396374,1.5381986742\O,-1.6051733328,-0.97678
 90075,3.7451668678\O,-1.9962105584,-1.5934860126,-3.5716506451\O,-2.82
 27309572,-0.1958571531,-1.3114322345\O,-2.3449388268,-2.7225988429,-1.
 1652787392\O,-2.0352408028,2.4281947351,-1.4664137955\O,-0.6308363593,
 4.3994768982,-0.3536879231\O,-1.9653886117,2.7778839922,1.2742812581\H
 ,5.3359910813,1.5134155982,0.8392323516\H,5.3016578849,-0.9279612278,-
 1.8379693716\H,4.4660946904,-1.96335535,1.4879119077\H,-2.4096934675,-
 2.7976045043,0.7622657567\H,-2.3903441975,-1.1750272259,4.2668855028\H
 ,-3.0615548236,-0.0717445207,0.6342418657\H,-0.5235926335,4.9344327837
 ,0.4410429204\H,-2.2701853483,1.8894715204,1.5545419181\H,-2.642108449
 1,3.112786315,-1.7746087252\H,-2.304583306,-3.5431204609,-1.6694377646
 \H,-1.2646336542,-1.3033652642,-4.1277949228\H,-2.6066279585,0.7432924
 451,-1.5093107183\\Version=ES64L-G16RevB.01\State=1-A\HF=-2416.946857\
 RMSD=9.699e-09\RMSF=3.263e-06\Dipole=0.4264956,-0.3162819,-0.9445052\Q
 uadrupole=-1.9798663,2.2484747,-0.2686084,-3.6433881,1.6934119,4.22346
 6\PG=C01 [X(H12O16Si4Zr1)]\\@


 THE DIFFERENCE BETWEEN A NOOSE AND A HALO IS ONLY 12 INCHES.
 Job cpu time:       0 days  8 hours 22 minutes 52.7 seconds.
 Elapsed time:       0 days  0 hours 44 minutes 12.1 seconds.
 File lengths (MBytes):  RWF=    167 Int=      0 D2E=      0 Chk=     21 Scr=      1
 Normal termination of Gaussian 16 at Fri Aug 14 04:05:00 2020.
