 Entering Gaussian System, Link 0=g16
 Initial command:
 /opt/software/gaussian/g16.b01/l1.exe "/localscratch/sarashs.37242637.0/Gau-267408.inp" -scrdir="/localscratch/sarashs.37242637.0/"
 Entering Link 1 = /opt/software/gaussian/g16.b01/l1.exe PID=    267409.
  
 Copyright (c) 1988-2017, Gaussian, Inc.  All Rights Reserved.
  
 This is part of the Gaussian(R) 16 program.  It is based on
 the Gaussian(R) 09 system (copyright 2009, Gaussian, Inc.),
 the Gaussian(R) 03 system (copyright 2003, Gaussian, Inc.),
 the Gaussian(R) 98 system (copyright 1998, Gaussian, Inc.),
 the Gaussian(R) 94 system (copyright 1995, Gaussian, Inc.),
 the Gaussian 92(TM) system (copyright 1992, Gaussian, Inc.),
 the Gaussian 90(TM) system (copyright 1990, Gaussian, Inc.),
 the Gaussian 88(TM) system (copyright 1988, Gaussian, Inc.),
 the Gaussian 86(TM) system (copyright 1986, Carnegie Mellon
 University), and the Gaussian 82(TM) system (copyright 1983,
 Carnegie Mellon University). Gaussian is a federally registered
 trademark of Gaussian, Inc.
  
 This software contains proprietary and confidential information,
 including trade secrets, belonging to Gaussian, Inc.
  
 This software is provided under written license and may be
 used, copied, transmitted, or stored only in accord with that
 written license.
  
 The following legend is applicable only to US Government
 contracts under FAR:
  
                    RESTRICTED RIGHTS LEGEND
  
 Use, reproduction and disclosure by the US Government is
 subject to restrictions as set forth in subparagraphs (a)
 and (c) of the Commercial Computer Software - Restricted
 Rights clause in FAR 52.227-19.
  
 Gaussian, Inc.
 340 Quinnipiac St., Bldg. 40, Wallingford CT 06492
  
  
 ---------------------------------------------------------------
 Warning -- This program may not be used in any manner that
 competes with the business of Gaussian, Inc. or will provide
 assistance to any competitor of Gaussian, Inc.  The licensee
 of this program is prohibited from giving any competitor of
 Gaussian, Inc. access to this program.  By using this program,
 the user acknowledges that Gaussian, Inc. is engaged in the
 business of creating and licensing software in the field of
 computational chemistry and represents and warrants to the
 licensee that it is not a competitor of Gaussian, Inc. and that
 it will not use this program in any manner prohibited above.
 ---------------------------------------------------------------
  

 Cite this work as:
 Gaussian 16, Revision B.01,
 M. J. Frisch, G. W. Trucks, H. B. Schlegel, G. E. Scuseria, 
 M. A. Robb, J. R. Cheeseman, G. Scalmani, V. Barone, 
 G. A. Petersson, H. Nakatsuji, X. Li, M. Caricato, A. V. Marenich, 
 J. Bloino, B. G. Janesko, R. Gomperts, B. Mennucci, H. P. Hratchian, 
 J. V. Ortiz, A. F. Izmaylov, J. L. Sonnenberg, D. Williams-Young, 
 F. Ding, F. Lipparini, F. Egidi, J. Goings, B. Peng, A. Petrone, 
 T. Henderson, D. Ranasinghe, V. G. Zakrzewski, J. Gao, N. Rega, 
 G. Zheng, W. Liang, M. Hada, M. Ehara, K. Toyota, R. Fukuda, 
 J. Hasegawa, M. Ishida, T. Nakajima, Y. Honda, O. Kitao, H. Nakai, 
 T. Vreven, K. Throssell, J. A. Montgomery, Jr., J. E. Peralta, 
 F. Ogliaro, M. J. Bearpark, J. J. Heyd, E. N. Brothers, K. N. Kudin, 
 V. N. Staroverov, T. A. Keith, R. Kobayashi, J. Normand, 
 K. Raghavachari, A. P. Rendell, J. C. Burant, S. S. Iyengar, 
 J. Tomasi, M. Cossi, J. M. Millam, M. Klene, C. Adamo, R. Cammi, 
 J. W. Ochterski, R. L. Martin, K. Morokuma, O. Farkas, 
 J. B. Foresman, and D. J. Fox, Gaussian, Inc., Wallingford CT, 2016.
 
 ******************************************
 Gaussian 16:  ES64L-G16RevB.01 20-Dec-2017
                14-Aug-2020 
 ******************************************
 %NProcShared=16
 Will use up to   16 processors via shared memory.
 ------------------------------------------------------------------
 #n B3LYP/Gen Pseudo=cards EmpiricalDispersion=GD3 Opt=modredundant
 ------------------------------------------------------------------
 1/18=120,19=15,26=3,38=1/1,3;
 2/9=110,12=2,17=6,18=5,40=1/2;
 3/5=7,11=2,16=1,17=8,25=1,30=1,71=1,74=-5,124=31/1,2,3;
 4//1;
 5/5=2,38=5/2;
 6/7=2,8=2,9=2,10=2,28=1/1;
 7//1,2,3,16;
 1/18=20,19=15,26=3/3(2);
 2/9=110/2;
 99//99;
 2/9=110/2;
 3/5=7,6=1,11=2,16=1,17=8,25=1,30=1,71=1,74=-5,82=7,124=31/1,2,3;
 4/5=5,16=3,69=1/1;
 5/5=2,38=5/2;
 7//1,2,3,16;
 1/18=20,19=15,26=3/3(-5);
 2/9=110/2;
 6/7=2,8=2,9=2,10=2,19=2,28=1/1;
 99/9=1/99;
 -----
 Title
 -----
 Symbolic Z-matrix:
 Charge =  0 Multiplicity = 1
 Zr                    0.6563   -0.1419   -0.01531 
 O                    -0.20084  -1.09455   1.44851 
 O                     0.09011   1.72098   0.14563 
 O                    -0.28336  -0.82971  -1.61451 
 O                     2.59206  -0.4363   -0.08284 
 Si                   -1.84842  -1.15313  -1.98975 
 Si                   -1.13415   2.79553   0.31973 
 Si                   -1.6924   -1.42037   2.07263 
 Si                    4.21631  -0.26105   0.01252 
 O                     4.95566  -0.09972  -1.45475 
 O                     4.89877  -1.60704   0.69775 
 O                     4.44778   1.12944   0.86985 
 O                    -2.28442  -2.8408    1.50161 
 O                    -2.70671  -0.15494   1.657 
 O                    -1.5469   -1.46571   3.70508 
 O                    -2.03715  -1.20195  -3.62703 
 O                    -2.84091  -0.093    -1.20436 
 O                    -2.34425  -2.61492  -1.36947 
 O                    -2.07313   2.5371   -1.053 
 O                    -0.66602   4.37207   0.26962 
 O                    -1.96657   2.55588   1.70871 
 H                     5.33501   1.50516   0.85865 
 H                     5.3042   -0.91111  -1.84112 
 H                     4.46373  -1.97795   1.47352 
 H                    -2.38149  -2.9213    0.5357 
 H                    -2.32332  -1.73185   4.20939 
 H                    -3.05298  -0.20527   0.74515 
 H                    -0.55098   4.80865   1.12135 
 H                    -2.26165   1.6378    1.88414 
 H                    -2.6888    3.24871  -1.26863 
 H                    -2.30583  -3.36856  -1.96915 
 H                    -1.3154   -0.84113  -4.15387 
 H                    -2.63385   0.86487  -1.2908 
 
 The following ModRedundant input section has been read:
 A       1       5       9 F                                                   
 

 GradGradGradGradGradGradGradGradGradGradGradGradGradGradGradGradGradGrad
 Berny optimization.
 Initialization pass.
                           ----------------------------
                           !    Initial Parameters    !
                           ! (Angstroms and Degrees)  !
 --------------------------                            --------------------------
 ! Name  Definition              Value          Derivative Info.                !
 --------------------------------------------------------------------------------
 ! R1    R(1,2)                  1.9455         estimate D2E/DX2                !
 ! R2    R(1,3)                  1.9537         estimate D2E/DX2                !
 ! R3    R(1,4)                  1.9783         estimate D2E/DX2                !
 ! R4    R(1,5)                  1.9592         estimate D2E/DX2                !
 ! R5    R(2,8)                  1.6494         estimate D2E/DX2                !
 ! R6    R(3,7)                  1.6382         estimate D2E/DX2                !
 ! R7    R(4,6)                  1.6416         estimate D2E/DX2                !
 ! R8    R(5,9)                  1.6365         estimate D2E/DX2                !
 ! R9    R(6,16)                 1.6488         estimate D2E/DX2                !
 ! R10   R(6,17)                 1.651          estimate D2E/DX2                !
 ! R11   R(6,18)                 1.6636         estimate D2E/DX2                !
 ! R12   R(7,19)                 1.6831         estimate D2E/DX2                !
 ! R13   R(7,20)                 1.6453         estimate D2E/DX2                !
 ! R14   R(7,21)                 1.637          estimate D2E/DX2                !
 ! R15   R(8,13)                 1.6414         estimate D2E/DX2                !
 ! R16   R(8,14)                 1.6742         estimate D2E/DX2                !
 ! R17   R(8,15)                 1.6395         estimate D2E/DX2                !
 ! R18   R(9,10)                 1.6509         estimate D2E/DX2                !
 ! R19   R(9,11)                 1.6574         estimate D2E/DX2                !
 ! R20   R(9,12)                 1.6499         estimate D2E/DX2                !
 ! R21   R(10,23)                0.9639         estimate D2E/DX2                !
 ! R22   R(11,24)                0.9637         estimate D2E/DX2                !
 ! R23   R(12,22)                0.9636         estimate D2E/DX2                !
 ! R24   R(13,25)                0.9741         estimate D2E/DX2                !
 ! R25   R(14,27)                0.9767         estimate D2E/DX2                !
 ! R26   R(15,26)                0.9633         estimate D2E/DX2                !
 ! R27   R(16,32)                0.9637         estimate D2E/DX2                !
 ! R28   R(17,33)                0.9838         estimate D2E/DX2                !
 ! R29   R(18,31)                0.9639         estimate D2E/DX2                !
 ! R30   R(19,30)                0.9654         estimate D2E/DX2                !
 ! R31   R(20,28)                0.964          estimate D2E/DX2                !
 ! R32   R(21,29)                0.9802         estimate D2E/DX2                !
 ! A1    A(2,1,3)              106.096          estimate D2E/DX2                !
 ! A2    A(2,1,4)              103.2218         estimate D2E/DX2                !
 ! A3    A(2,1,5)              112.809          estimate D2E/DX2                !
 ! A4    A(3,1,4)              105.0977         estimate D2E/DX2                !
 ! A5    A(3,1,5)              115.6243         estimate D2E/DX2                !
 ! A6    A(4,1,5)              112.9051         estimate D2E/DX2                !
 ! A7    A(1,2,8)              141.2477         estimate D2E/DX2                !
 ! A8    A(1,3,7)              148.2962         estimate D2E/DX2                !
 ! A9    A(1,4,6)              134.9213         estimate D2E/DX2                !
 ! A10   A(1,5,9)              164.2749         Frozen                          !
 ! A11   A(4,6,16)             109.9951         estimate D2E/DX2                !
 ! A12   A(4,6,17)             109.7476         estimate D2E/DX2                !
 ! A13   A(4,6,18)             111.8421         estimate D2E/DX2                !
 ! A14   A(16,6,17)            114.9974         estimate D2E/DX2                !
 ! A15   A(16,6,18)            108.0662         estimate D2E/DX2                !
 ! A16   A(17,6,18)            101.987          estimate D2E/DX2                !
 ! A17   A(3,7,19)             103.269          estimate D2E/DX2                !
 ! A18   A(3,7,20)             114.3706         estimate D2E/DX2                !
 ! A19   A(3,7,21)             111.9728         estimate D2E/DX2                !
 ! A20   A(19,7,20)            106.3206         estimate D2E/DX2                !
 ! A21   A(19,7,21)            112.6977         estimate D2E/DX2                !
 ! A22   A(20,7,21)            108.1077         estimate D2E/DX2                !
 ! A23   A(2,8,13)             111.4371         estimate D2E/DX2                !
 ! A24   A(2,8,14)             107.7361         estimate D2E/DX2                !
 ! A25   A(2,8,15)             107.5759         estimate D2E/DX2                !
 ! A26   A(13,8,14)            110.4391         estimate D2E/DX2                !
 ! A27   A(13,8,15)            110.7602         estimate D2E/DX2                !
 ! A28   A(14,8,15)            108.775          estimate D2E/DX2                !
 ! A29   A(5,9,10)             113.7768         estimate D2E/DX2                !
 ! A30   A(5,9,11)             110.2316         estimate D2E/DX2                !
 ! A31   A(5,9,12)             105.0573         estimate D2E/DX2                !
 ! A32   A(10,9,11)            105.2125         estimate D2E/DX2                !
 ! A33   A(10,9,12)            108.46           estimate D2E/DX2                !
 ! A34   A(11,9,12)            114.3199         estimate D2E/DX2                !
 ! A35   A(9,10,23)            115.8441         estimate D2E/DX2                !
 ! A36   A(9,11,24)            117.3556         estimate D2E/DX2                !
 ! A37   A(9,12,22)            116.857          estimate D2E/DX2                !
 ! A38   A(8,13,25)            116.8988         estimate D2E/DX2                !
 ! A39   A(8,14,27)            114.0559         estimate D2E/DX2                !
 ! A40   A(8,15,26)            117.2168         estimate D2E/DX2                !
 ! A41   A(6,16,32)            116.4906         estimate D2E/DX2                !
 ! A42   A(6,17,33)            117.1856         estimate D2E/DX2                !
 ! A43   A(6,18,31)            116.3077         estimate D2E/DX2                !
 ! A44   A(7,19,30)            115.1372         estimate D2E/DX2                !
 ! A45   A(7,20,28)            116.1674         estimate D2E/DX2                !
 ! A46   A(7,21,29)            116.237          estimate D2E/DX2                !
 ! D1    D(3,1,2,8)             57.7298         estimate D2E/DX2                !
 ! D2    D(4,1,2,8)            -52.5297         estimate D2E/DX2                !
 ! D3    D(5,1,2,8)           -174.706          estimate D2E/DX2                !
 ! D4    D(2,1,3,7)            -50.098          estimate D2E/DX2                !
 ! D5    D(4,1,3,7)             58.8318         estimate D2E/DX2                !
 ! D6    D(5,1,3,7)           -175.9642         estimate D2E/DX2                !
 ! D7    D(2,1,4,6)             42.7681         estimate D2E/DX2                !
 ! D8    D(3,1,4,6)            -68.2316         estimate D2E/DX2                !
 ! D9    D(5,1,4,6)            164.88           estimate D2E/DX2                !
 ! D10   D(2,1,5,9)           -106.925          estimate D2E/DX2                !
 ! D11   D(3,1,5,9)             15.4383         estimate D2E/DX2                !
 ! D12   D(4,1,5,9)            136.5203         estimate D2E/DX2                !
 ! D13   D(1,2,8,13)            93.5303         estimate D2E/DX2                !
 ! D14   D(1,2,8,14)           -27.7662         estimate D2E/DX2                !
 ! D15   D(1,2,8,15)          -144.8807         estimate D2E/DX2                !
 ! D16   D(1,3,7,19)           -61.1012         estimate D2E/DX2                !
 ! D17   D(1,3,7,20)          -176.1753         estimate D2E/DX2                !
 ! D18   D(1,3,7,21)            60.4092         estimate D2E/DX2                !
 ! D19   D(1,4,6,16)           160.1671         estimate D2E/DX2                !
 ! D20   D(1,4,6,17)            32.6926         estimate D2E/DX2                !
 ! D21   D(1,4,6,18)           -79.7417         estimate D2E/DX2                !
 ! D22   D(1,5,9,10)          -106.4783         estimate D2E/DX2                !
 ! D23   D(1,5,9,11)           135.6195         estimate D2E/DX2                !
 ! D24   D(1,5,9,12)            12.0006         estimate D2E/DX2                !
 ! D25   D(4,6,16,32)          -14.1999         estimate D2E/DX2                !
 ! D26   D(17,6,16,32)         110.2975         estimate D2E/DX2                !
 ! D27   D(18,6,16,32)        -136.5532         estimate D2E/DX2                !
 ! D28   D(4,6,17,33)           51.01           estimate D2E/DX2                !
 ! D29   D(16,6,17,33)         -73.6172         estimate D2E/DX2                !
 ! D30   D(18,6,17,33)         169.7168         estimate D2E/DX2                !
 ! D31   D(4,6,18,31)          -96.4427         estimate D2E/DX2                !
 ! D32   D(16,6,18,31)          24.7713         estimate D2E/DX2                !
 ! D33   D(17,6,18,31)         146.3491         estimate D2E/DX2                !
 ! D34   D(3,7,19,30)         -162.1844         estimate D2E/DX2                !
 ! D35   D(20,7,19,30)         -41.4669         estimate D2E/DX2                !
 ! D36   D(21,7,19,30)          76.7956         estimate D2E/DX2                !
 ! D37   D(3,7,20,28)          -98.4266         estimate D2E/DX2                !
 ! D38   D(19,7,20,28)         148.295          estimate D2E/DX2                !
 ! D39   D(21,7,20,28)          27.0452         estimate D2E/DX2                !
 ! D40   D(3,7,21,29)          -49.9002         estimate D2E/DX2                !
 ! D41   D(19,7,21,29)          66.0148         estimate D2E/DX2                !
 ! D42   D(20,7,21,29)        -176.7757         estimate D2E/DX2                !
 ! D43   D(2,8,13,25)          -58.4684         estimate D2E/DX2                !
 ! D44   D(14,8,13,25)          61.2403         estimate D2E/DX2                !
 ! D45   D(15,8,13,25)        -178.1895         estimate D2E/DX2                !
 ! D46   D(2,8,14,27)           80.292          estimate D2E/DX2                !
 ! D47   D(13,8,14,27)         -41.6251         estimate D2E/DX2                !
 ! D48   D(15,8,14,27)        -163.3754         estimate D2E/DX2                !
 ! D49   D(2,8,15,26)         -174.1999         estimate D2E/DX2                !
 ! D50   D(13,8,15,26)         -52.1897         estimate D2E/DX2                !
 ! D51   D(14,8,15,26)          69.3648         estimate D2E/DX2                !
 ! D52   D(5,9,10,23)          -94.8502         estimate D2E/DX2                !
 ! D53   D(11,9,10,23)          25.9079         estimate D2E/DX2                !
 ! D54   D(12,9,10,23)         148.64           estimate D2E/DX2                !
 ! D55   D(5,9,11,24)          -43.8205         estimate D2E/DX2                !
 ! D56   D(10,9,11,24)        -166.8799         estimate D2E/DX2                !
 ! D57   D(12,9,11,24)          74.2393         estimate D2E/DX2                !
 ! D58   D(5,9,12,22)         -166.4771         estimate D2E/DX2                !
 ! D59   D(10,9,12,22)         -44.4742         estimate D2E/DX2                !
 ! D60   D(11,9,12,22)          72.5545         estimate D2E/DX2                !
 --------------------------------------------------------------------------------
 Trust Radius=3.00D-01 FncErr=1.00D-07 GrdErr=1.00D-06 EigMax=2.50D+02 EigMin=1.00D-04
 Number of steps in this run=    148 maximum allowed number of steps=    198.
 GradGradGradGradGradGradGradGradGradGradGradGradGradGradGradGradGradGrad

                          Input orientation:                          
 ---------------------------------------------------------------------
 Center     Atomic      Atomic             Coordinates (Angstroms)
 Number     Number       Type             X           Y           Z
 ---------------------------------------------------------------------
      1         40           0        0.656300   -0.141900   -0.015310
      2          8           0       -0.200840   -1.094550    1.448510
      3          8           0        0.090110    1.720980    0.145630
      4          8           0       -0.283360   -0.829710   -1.614510
      5          8           0        2.592060   -0.436300   -0.082840
      6         14           0       -1.848420   -1.153130   -1.989750
      7         14           0       -1.134150    2.795530    0.319730
      8         14           0       -1.692400   -1.420370    2.072630
      9         14           0        4.216310   -0.261050    0.012520
     10          8           0        4.955660   -0.099720   -1.454750
     11          8           0        4.898770   -1.607040    0.697750
     12          8           0        4.447780    1.129440    0.869850
     13          8           0       -2.284420   -2.840800    1.501610
     14          8           0       -2.706710   -0.154940    1.657000
     15          8           0       -1.546900   -1.465710    3.705080
     16          8           0       -2.037150   -1.201950   -3.627030
     17          8           0       -2.840910   -0.093000   -1.204360
     18          8           0       -2.344250   -2.614920   -1.369470
     19          8           0       -2.073130    2.537100   -1.053000
     20          8           0       -0.666020    4.372070    0.269620
     21          8           0       -1.966570    2.555880    1.708710
     22          1           0        5.335010    1.505160    0.858650
     23          1           0        5.304200   -0.911110   -1.841120
     24          1           0        4.463730   -1.977950    1.473520
     25          1           0       -2.381490   -2.921300    0.535700
     26          1           0       -2.323320   -1.731850    4.209390
     27          1           0       -3.052980   -0.205270    0.745150
     28          1           0       -0.550980    4.808650    1.121350
     29          1           0       -2.261650    1.637800    1.884140
     30          1           0       -2.688800    3.248710   -1.268630
     31          1           0       -2.305830   -3.368560   -1.969150
     32          1           0       -1.315400   -0.841130   -4.153870
     33          1           0       -2.633850    0.864870   -1.290800
 ---------------------------------------------------------------------
                    Distance matrix (angstroms):
                    1          2          3          4          5
     1  Zr   0.000000
     2  O    1.945508   0.000000
     3  O    1.953662   3.115984   0.000000
     4  O    1.978253   3.075555   3.121473   0.000000
     5  O    1.959183   3.252478   3.311466   3.281589   0.000000
     6  Si   3.345836   3.813081   4.071640   1.641590   4.885490
     7  Si   3.456365   4.156673   1.638225   4.196128   4.948882
     8  Si   3.392694   1.649374   4.093745   3.991150   4.896023
     9  Si   3.562112   4.718899   4.579486   4.818468   1.636458
    10  O    4.534122   6.000675   5.435967   5.292045   2.753548
    11  O    4.544628   5.179991   5.873991   5.727588   2.702011
    12  O    4.095746   5.185619   4.456871   5.691573   2.608229
    13  O    4.270005   2.719102   5.318544   4.214134   5.663229
    14  O    3.755879   2.684347   3.691276   4.126829   5.584189
    15  O    4.521932   2.653629   5.050196   5.504459   5.704298
    16  O    4.628488   5.398581   5.225105   2.695288   5.880229
    17  O    3.694145   3.874376   3.701874   2.692959   5.558131
    18  O    4.117387   3.853147   5.198237   2.737570   5.546977
    19  O    3.962781   4.790815   2.604299   3.854086   5.616611
    20  O    4.712286   5.611605   2.759599   5.545709   5.818912
    21  O    4.138805   4.063391   2.714813   5.033806   5.739678
    22  H    5.036560   6.144271   5.297542   6.567665   3.489906
    23  H    5.052548   6.415667   6.169425   5.592746   3.266909
    24  H    4.481542   4.747550   5.879960   5.778343   2.881335
    25  H    4.154136   2.987553   5.273682   3.660642   5.594105
    26  H    5.408712   3.540273   5.853275   6.236434   6.653018
    27  H    3.786961   3.069240   3.734820   3.691709   5.710115
    28  H    5.220868   5.922618   3.301020   6.272771   6.232036
    29  H    3.910201   3.449992   2.925767   4.716226   5.632886
    30  H    4.925113   5.695323   3.472237   4.747556   6.547738
    31  H    4.796148   4.613296   6.009679   3.265259   6.012124
    32  H    4.637262   5.717790   5.198612   2.741092   5.657333
    33  H    3.669543   4.154839   3.196281   2.915681   5.519270
                    6          7          8          9         10
     6  Si   0.000000
     7  Si   4.629881   0.000000
     8  Si   4.074149   4.599795   0.000000
     9  Si   6.448709   6.169642   6.364034   0.000000
    10  O    6.905896   6.972592   7.640892   1.650923   0.000000
    11  O    7.276899   7.478078   6.735626   1.657402   2.628404
    12  O    7.282141   5.851191   6.756480   1.649865   2.678160
    13  O    3.902297   5.872664   1.641394   7.150664   8.286878
    14  O    3.877090   3.600904   1.674182   7.116444   8.270305
    15  O    5.711367   5.457941   1.639548   6.949877   8.412673
    16  O    1.648845   5.689655   5.714253   7.296395   7.404938
    17  O    1.650984   3.685035   3.717479   7.163337   7.800593
    18  O    1.663558   5.795749   3.701339   7.105740   7.721541
    19  O    3.813895   1.683109   5.057281   6.965776   7.517853
    20  O    6.085282   1.645337   6.152777   6.735655   7.387398
    21  O    5.239210   1.636955   4.002271   7.002868   8.060829
    22  H    8.171998   6.618574   7.708240   2.255421   2.841015
    23  H    7.158257   7.736976   8.033007   2.245454   0.963906
    24  H    7.246917   7.446718   6.210295   2.267925   3.513475
    25  H    3.128656   5.855309   2.256056   7.133135   8.109067
    26  H    6.244180   6.086111   2.249627   7.908459   9.366423
    27  H    3.135137   3.587156   2.256069   7.306328   8.305963
    28  H    6.848731   2.243955   6.403785   7.046873   7.813544
    29  H    4.792397   2.249216   3.116405   7.005181   8.139823
    30  H    4.538992   2.268302   5.827275   7.851134   8.347718
    31  H    2.262251   6.678908   4.528546   7.491458   7.979922
    32  H    2.250527   5.768123   6.264739   6.949469   6.867396
    33  H    2.275468   2.927517   4.173884   7.063358   7.652318
                   11         12         13         14         15
    11  O    0.000000
    12  O    2.778729   0.000000
    13  O    7.332569   7.841202   0.000000
    14  O    7.802056   7.311359   2.723292   0.000000
    15  O    7.114118   7.121062   2.700016   2.694051   0.000000
    16  O    8.183814   8.228707   5.389798   5.428215   7.353214
    17  O    8.112520   7.676048   3.896455   2.865175   5.259410
    18  O    7.599379   8.072574   2.880573   3.916938   5.263792
    19  O    8.297374   6.942703   5.957557   3.872028   6.240091
    20  O    8.179238   6.084889   7.494165   5.155876   6.830667
    21  O    8.092270   6.624372   5.409998   2.810521   4.509413
    22  H    3.146742   0.963570   8.795253   8.250003   8.018037
    23  H    2.663560   3.499523   8.513795   8.774014   8.832071
    24  H    0.963666   3.165524   6.803148   7.400827   6.431945
    25  H    7.399711   7.947269   0.974107   3.002637   3.586119
    26  H    8.031549   8.073865   2.926321   3.024620   0.963321
    27  H    8.074499   7.619606   2.847619   0.976681   3.552207
    28  H    8.428540   6.211879   7.852611   5.437952   6.858215
    29  H    7.950354   6.804680   4.494964   1.861072   3.668578
    30  H    9.220422   7.745655   6.702230   4.488259   6.947480
    31  H    7.881724   8.596695   3.510721   4.861792   6.032719
    32  H    7.920905   7.895261   6.076359   6.014384   7.887128
    33  H    8.173435   7.408636   4.653133   3.120071   5.618886
                   16         17         18         19         20
    16  O    0.000000
    17  O    2.783007   0.000000
    18  O    2.680927   2.575658   0.000000
    19  O    4.539540   2.744052   5.168846   0.000000
    20  O    6.937837   5.180696   7.370285   2.663906   0.000000
    21  O    6.526591   4.033238   6.029511   2.763829   2.657246
    22  H    9.044253   8.582295   8.995033   7.720094   6.676713
    23  H    7.561050   8.210821   7.850109   8.181460   8.246863
    24  H    8.299351   8.005114   7.405195   8.336637   8.251452
    25  H    4.516974   3.352336   1.930007   5.693258   7.497125
    26  H    7.859527   5.680002   5.648356   6.780802   7.451595
    27  H    4.597960   1.964222   3.283341   3.422578   5.184183
    28  H    7.802764   5.888878   8.033019   3.493519   0.963992
    29  H    6.203836   3.587484   5.355224   3.077511   3.553722
    30  H    5.078885   3.345787   5.874610   0.965368   2.778451
    31  H    2.741342   3.405952   0.963880   5.980828   8.223042
    32  H    0.963678   3.403893   3.457997   4.647794   6.867781
    33  H    3.175810   0.983799   3.492706   1.779693   4.313666
                   21         22         23         24         25
    21  O    0.000000
    22  H    7.425610   0.000000
    23  H    8.802580   3.623268   0.000000
    24  H    7.871448   3.642698   3.582091   0.000000
    25  H    5.616726   8.901810   8.292163   6.973267   0.000000
    26  H    4.976475   8.964135   9.770432   7.321858   3.861887
    27  H    3.119725   8.561357   8.776643   7.757180   2.805635
    28  H    2.724676   6.754771   8.704885   8.445666   7.965292
    29  H    0.980163   7.666712   8.810028   7.646764   4.755843
    30  H    3.141048   8.482147   9.028837   9.273405   6.435765
    31  H    6.981457   9.493789   7.998000   7.720927   2.545592
    32  H    6.806875   8.652074   7.012333   8.146056   5.239821
    33  H    3.507398   8.278456   8.152889   8.130113   4.211279
                   26         27         28         29         30
    26  H    0.000000
    27  H    3.855361   0.000000
    28  H    7.446833   5.616131   0.000000
    29  H    4.094525   2.306601   3.682734   0.000000
    30  H    7.412709   4.014712   3.565907   3.566153   0.000000
    31  H    6.391673   4.234626   8.916134   6.317708   6.665257
    32  H    8.470738   5.236783   7.767387   6.595305   5.190147
    33  H    6.090277   2.337940   5.070524   3.288799   2.384576
                   31         32         33
    31  H    0.000000
    32  H    3.484517   0.000000
    33  H    4.299963   3.584120   0.000000
 Stoichiometry    H12O16Si4Zr
 Framework group  C1[X(H12O16Si4Zr)]
 Deg. of freedom    93
 Full point group                 C1      NOp   1
 Largest Abelian subgroup         C1      NOp   1
 Largest concise Abelian subgroup C1      NOp   1
                         Standard orientation:                         
 ---------------------------------------------------------------------
 Center     Atomic      Atomic             Coordinates (Angstroms)
 Number     Number       Type             X           Y           Z
 ---------------------------------------------------------------------
      1         40           0        0.657819   -0.124757   -0.072562
      2          8           0       -0.221940   -0.910438    1.474606
      3          8           0        0.102517    1.747760   -0.118526
      4          8           0       -0.268685   -0.974603   -1.599924
      5          8           0        2.592170   -0.435436   -0.085451
      6         14           0       -1.831643   -1.327647   -1.956775
      7         14           0       -1.116289    2.841552   -0.074795
      8         14           0       -1.722504   -1.159280    2.112431
      9         14           0        4.216413   -0.260002    0.009694
     10          8           0        4.973067   -0.260797   -1.457623
     11          8           0        4.882093   -1.528660    0.842976
     12          8           0        4.447777    1.212978    0.715992
     13          8           0       -2.317767   -2.629373    1.689746
     14          8           0       -2.723543    0.059988    1.551902
     15          8           0       -1.595429   -1.030391    3.741958
     16          8           0       -2.002528   -1.550430   -3.581537
     17          8           0       -2.825576   -0.184031   -1.301038
     18          8           0       -2.344217   -2.711850   -1.189525
     19          8           0       -2.041716    2.442854   -1.422936
     20          8           0       -0.636959    4.401043   -0.287791
     21          8           0       -1.965668    2.756613    1.321973
     22          1           0        5.337603    1.580409    0.675085
     23          1           0        5.320364   -1.110811   -1.750839
     24          1           0        4.435972   -1.811961    1.648810
     25          1           0       -2.404661   -2.812284    0.736920
     26          1           0       -2.379181   -1.236694    4.262688
     27          1           0       -3.060011   -0.085755    0.646665
     28          1           0       -0.528417    4.925657    0.513632
     29          1           0       -2.268891    1.864244    1.591143
     30          1           0       -2.650120    3.130695   -1.720686
     31          1           0       -2.304256   -3.525564   -1.704635
     32          1           0       -1.272551   -1.252101   -4.135439
     33          1           0       -2.611083    0.757915   -1.487028
 ---------------------------------------------------------------------
 Rotational constants (GHZ):           0.2124103           0.1338513           0.1240611
 General basis read from cards:  (5D, 7F)
 ======================================================================================================
                                       Pseudopotential Parameters
 ======================================================================================================
  Center     Atomic      Valence      Angular      Power
  Number     Number     Electrons     Momentum     of R      Exponent        Coefficient   SO-Coeffient
 ======================================================================================================
    1         40           12
                                      G and up 
                                                     2        1.0000000        0.00000000    0.00000000
                                      S - G
                                                     2        8.6365280      150.24299400    0.00000000
                                                     2        3.7176390       18.78003600    0.00000000
                                      P - G
                                                     2        7.6267280       33.19279100    0.00000000
                                                     2        7.4532070       66.38903900    0.00000000
                                                     2        3.3583890        4.62072600    0.00000000
                                                     2        3.2297380        9.26027000    0.00000000
                                      D - G
                                                     2        5.9380860       13.99338300    0.00000000
                                                     2        5.8255440       20.99588200    0.00000000
                                                     2        2.2050190        2.28516600    0.00000000
                                                     2        2.2062920        3.44126000    0.00000000
                                      F - G
                                                     2        4.8002150       -5.23932000    0.00000000
                                                     2        4.7989920       -6.98742400    0.00000000
    2          8
                                   No pseudopotential on this center.
    3          8
                                   No pseudopotential on this center.
    4          8
                                   No pseudopotential on this center.
    5          8
                                   No pseudopotential on this center.
    6         14
                                   No pseudopotential on this center.
    7         14
                                   No pseudopotential on this center.
    8         14
                                   No pseudopotential on this center.
    9         14
                                   No pseudopotential on this center.
   10          8
                                   No pseudopotential on this center.
   11          8
                                   No pseudopotential on this center.
   12          8
                                   No pseudopotential on this center.
   13          8
                                   No pseudopotential on this center.
   14          8
                                   No pseudopotential on this center.
   15          8
                                   No pseudopotential on this center.
   16          8
                                   No pseudopotential on this center.
   17          8
                                   No pseudopotential on this center.
   18          8
                                   No pseudopotential on this center.
   19          8
                                   No pseudopotential on this center.
   20          8
                                   No pseudopotential on this center.
   21          8
                                   No pseudopotential on this center.
   22          1
                                   No pseudopotential on this center.
   23          1
                                   No pseudopotential on this center.
   24          1
                                   No pseudopotential on this center.
   25          1
                                   No pseudopotential on this center.
   26          1
                                   No pseudopotential on this center.
   27          1
                                   No pseudopotential on this center.
   28          1
                                   No pseudopotential on this center.
   29          1
                                   No pseudopotential on this center.
   30          1
                                   No pseudopotential on this center.
   31          1
                                   No pseudopotential on this center.
   32          1
                                   No pseudopotential on this center.
   33          1
                                   No pseudopotential on this center.
 ======================================================================================================
 There are   570 symmetry adapted cartesian basis functions of A   symmetry.
 There are   524 symmetry adapted basis functions of A   symmetry.
   524 basis functions,  1074 primitive gaussians,   570 cartesian basis functions
   104 alpha electrons      104 beta electrons
       nuclear repulsion energy      2832.9839241606 Hartrees.
 NAtoms=   33 NActive=   33 NUniq=   33 SFac= 1.00D+00 NAtFMM=   60 NAOKFM=F Big=F
 Integral buffers will be    131072 words long.
 Raffenetti 2 integral format.
 Two-electron integral symmetry is turned on.
 Nuclear repulsion after empirical dispersion term =     2832.9431109944 Hartrees.
 One-electron integrals computed using PRISM.
 PrsmSu:  requested number of processors reduced to:   4 ShMem   1 Linda.
   1 Symmetry operations used in ECPInt.
 ECPInt:  NShTT=   13203 NPrTT=   78401 LenC2=   11527 LenP2D=   44636.
 LDataN:  DoStor=T MaxTD1= 8 Len=  415
 Number of processors reduced to  13 by ecpmxn.
 NBasis=   524 RedAO= T EigKep=  3.14D-05  NBF=   524
 NBsUse=   524 1.00D-06 EigRej= -1.00D+00 NBFU=   524
 Defaulting to unpruned grid for atomic number  40.
 ExpMin= 1.01D-02 ExpMax= 1.61D+04 ExpMxC= 2.43D+03 IAcc=3 IRadAn=         5 AccDes= 0.00D+00
 Harris functional with IExCor=  402 and IRadAn=       5 diagonalized for initial guess.
 HarFok:  IExCor=  402 AccDes= 0.00D+00 IRadAn=         5 IDoV= 1 UseB2=F ITyADJ=14
 ICtDFT=  3500011 ScaDFX=  1.000000  1.000000  1.000000  1.000000
 Defaulting to unpruned grid for atomic number  40.
 FoFCou: FMM=F IPFlag=           0 FMFlag=      100000 FMFlg1=           0
         NFxFlg=           0 DoJE=T BraDBF=F KetDBF=T FulRan=T
         wScrn=  0.000000 ICntrl=       500 IOpCl=  0 I1Cent=   200000004 NGrid=           0
         NMat0=    1 NMatS0=      1 NMatT0=    0 NMatD0=    1 NMtDS0=    0 NMtDT0=    0
 Petite list used in FoFCou.
 Requested convergence on RMS density matrix=1.00D-08 within 128 cycles.
 Requested convergence on MAX density matrix=1.00D-06.
 Requested convergence on             energy=1.00D-06.
 No special actions if energy rises.
 Defaulting to unpruned grid for atomic number  40.
 Defaulting to unpruned grid for atomic number  40.
 Defaulting to unpruned grid for atomic number  40.
 Defaulting to unpruned grid for atomic number  40.
 Defaulting to unpruned grid for atomic number  40.
 Defaulting to unpruned grid for atomic number  40.
 Defaulting to unpruned grid for atomic number  40.
 Defaulting to unpruned grid for atomic number  40.
 Defaulting to unpruned grid for atomic number  40.
 Defaulting to unpruned grid for atomic number  40.
 Defaulting to unpruned grid for atomic number  40.
 Defaulting to unpruned grid for atomic number  40.
 Defaulting to unpruned grid for atomic number  40.
 Defaulting to unpruned grid for atomic number  40.
 Defaulting to unpruned grid for atomic number  40.
 Defaulting to unpruned grid for atomic number  40.
 SCF Done:  E(RB3LYP) =  -2416.94684177     A.U. after   14 cycles
            NFock= 14  Conv=0.25D-08     -V/T= 2.0185

 **********************************************************************

            Population analysis using the SCF Density.

 **********************************************************************

 Orbital symmetries:
       Occupied  (A) (A) (A) (A) (A) (A) (A) (A) (A) (A) (A) (A)
                 (A) (A) (A) (A) (A) (A) (A) (A) (A) (A) (A) (A)
                 (A) (A) (A) (A) (A) (A) (A) (A) (A) (A) (A) (A)
                 (A) (A) (A) (A) (A) (A) (A) (A) (A) (A) (A) (A)
                 (A) (A) (A) (A) (A) (A) (A) (A) (A) (A) (A) (A)
                 (A) (A) (A) (A) (A) (A) (A) (A) (A) (A) (A) (A)
                 (A) (A) (A) (A) (A) (A) (A) (A) (A) (A) (A) (A)
                 (A) (A) (A) (A) (A) (A) (A) (A) (A) (A) (A) (A)
                 (A) (A) (A) (A) (A) (A) (A) (A)
       Virtual   (A) (A) (A) (A) (A) (A) (A) (A) (A) (A) (A) (A)
                 (A) (A) (A) (A) (A) (A) (A) (A) (A) (A) (A) (A)
                 (A) (A) (A) (A) (A) (A) (A) (A) (A) (A) (A) (A)
                 (A) (A) (A) (A) (A) (A) (A) (A) (A) (A) (A) (A)
                 (A) (A) (A) (A) (A) (A) (A) (A) (A) (A) (A) (A)
                 (A) (A) (A) (A) (A) (A) (A) (A) (A) (A) (A) (A)
                 (A) (A) (A) (A) (A) (A) (A) (A) (A) (A) (A) (A)
                 (A) (A) (A) (A) (A) (A) (A) (A) (A) (A) (A) (A)
                 (A) (A) (A) (A) (A) (A) (A) (A) (A) (A) (A) (A)
                 (A) (A) (A) (A) (A) (A) (A) (A) (A) (A) (A) (A)
                 (A) (A) (A) (A) (A) (A) (A) (A) (A) (A) (A) (A)
                 (A) (A) (A) (A) (A) (A) (A) (A) (A) (A) (A) (A)
                 (A) (A) (A) (A) (A) (A) (A) (A) (A) (A) (A) (A)
                 (A) (A) (A) (A) (A) (A) (A) (A) (A) (A) (A) (A)
                 (A) (A) (A) (A) (A) (A) (A) (A) (A) (A) (A) (A)
                 (A) (A) (A) (A) (A) (A) (A) (A) (A) (A) (A) (A)
                 (A) (A) (A) (A) (A) (A) (A) (A) (A) (A) (A) (A)
                 (A) (A) (A) (A) (A) (A) (A) (A) (A) (A) (A) (A)
                 (A) (A) (A) (A) (A) (A) (A) (A) (A) (A) (A) (A)
                 (A) (A) (A) (A) (A) (A) (A) (A) (A) (A) (A) (A)
                 (A) (A) (A) (A) (A) (A) (A) (A) (A) (A) (A) (A)
                 (A) (A) (A) (A) (A) (A) (A) (A) (A) (A) (A) (A)
                 (A) (A) (A) (A) (A) (A) (A) (A) (A) (A) (A) (A)
                 (A) (A) (A) (A) (A) (A) (A) (A) (A) (A) (A) (A)
                 (A) (A) (A) (A) (A) (A) (A) (A) (A) (A) (A) (A)
                 (A) (A) (A) (A) (A) (A) (A) (A) (A) (A) (A) (A)
                 (A) (A) (A) (A) (A) (A) (A) (A) (A) (A) (A) (A)
                 (A) (A) (A) (A) (A) (A) (A) (A) (A) (A) (A) (A)
                 (A) (A) (A) (A) (A) (A) (A) (A) (A) (A) (A) (A)
                 (A) (A) (A) (A) (A) (A) (A) (A) (A) (A) (A) (A)
                 (A) (A) (A) (A) (A) (A) (A) (A) (A) (A) (A) (A)
                 (A) (A) (A) (A) (A) (A) (A) (A) (A) (A) (A) (A)
                 (A) (A) (A) (A) (A) (A) (A) (A) (A) (A) (A) (A)
                 (A) (A) (A) (A) (A) (A) (A) (A) (A) (A) (A) (A)
                 (A) (A) (A) (A) (A) (A) (A) (A) (A) (A) (A) (A)
 The electronic state is 1-A.
 Alpha  occ. eigenvalues --  -66.22800 -66.21758 -66.21488 -66.21053 -19.18586
 Alpha  occ. eigenvalues --  -19.18352 -19.17778 -19.17024 -19.16734 -19.16529
 Alpha  occ. eigenvalues --  -19.16432 -19.16227 -19.16195 -19.16020 -19.16008
 Alpha  occ. eigenvalues --  -19.15503 -19.15336 -19.15272 -19.14904 -19.14715
 Alpha  occ. eigenvalues --   -5.36860  -5.35838  -5.35564  -5.35113  -3.72844
 Alpha  occ. eigenvalues --   -3.72817  -3.72770  -3.71830  -3.71783  -3.71748
 Alpha  occ. eigenvalues --   -3.71533  -3.71525  -3.71485  -3.71078  -3.71069
 Alpha  occ. eigenvalues --   -3.71043  -2.13368  -1.29611  -1.29527  -1.29371
 Alpha  occ. eigenvalues --   -1.05676  -1.04777  -1.04148  -1.03511  -1.02558
 Alpha  occ. eigenvalues --   -1.02169  -1.01473  -1.00920  -1.00755  -1.00678
 Alpha  occ. eigenvalues --   -0.99842  -0.99313  -0.97371  -0.96281  -0.95730
 Alpha  occ. eigenvalues --   -0.95415  -0.60986  -0.59162  -0.58972  -0.58505
 Alpha  occ. eigenvalues --   -0.55534  -0.54532  -0.53862  -0.53048  -0.52985
 Alpha  occ. eigenvalues --   -0.52500  -0.52163  -0.51708  -0.48774  -0.47602
 Alpha  occ. eigenvalues --   -0.47205  -0.46736  -0.43376  -0.42659  -0.41860
 Alpha  occ. eigenvalues --   -0.41396  -0.41111  -0.40526  -0.39825  -0.39348
 Alpha  occ. eigenvalues --   -0.38800  -0.38681  -0.38646  -0.38148  -0.38028
 Alpha  occ. eigenvalues --   -0.37632  -0.37478  -0.37207  -0.36554  -0.36404
 Alpha  occ. eigenvalues --   -0.36061  -0.35614  -0.35492  -0.35100  -0.34887
 Alpha  occ. eigenvalues --   -0.34608  -0.34015  -0.33694  -0.33499  -0.33246
 Alpha  occ. eigenvalues --   -0.32833  -0.32176  -0.32059  -0.31309
 Alpha virt. eigenvalues --   -0.04324  -0.03169  -0.03047  -0.02750  -0.02090
 Alpha virt. eigenvalues --   -0.01175  -0.00555  -0.00116   0.00102   0.00290
 Alpha virt. eigenvalues --    0.00769   0.00913   0.01034   0.01947   0.02343
 Alpha virt. eigenvalues --    0.03274   0.03321   0.03849   0.03964   0.04050
 Alpha virt. eigenvalues --    0.04181   0.04653   0.05538   0.05865   0.06205
 Alpha virt. eigenvalues --    0.06468   0.07072   0.07492   0.07706   0.08663
 Alpha virt. eigenvalues --    0.08798   0.09071   0.09192   0.09671   0.09930
 Alpha virt. eigenvalues --    0.10325   0.10684   0.10878   0.11312   0.11688
 Alpha virt. eigenvalues --    0.11811   0.12575   0.13238   0.13337   0.13510
 Alpha virt. eigenvalues --    0.14017   0.14495   0.14867   0.15010   0.15248
 Alpha virt. eigenvalues --    0.15321   0.15726   0.16211   0.16716   0.16931
 Alpha virt. eigenvalues --    0.17365   0.17529   0.17718   0.18140   0.18448
 Alpha virt. eigenvalues --    0.18532   0.18877   0.19214   0.19697   0.19793
 Alpha virt. eigenvalues --    0.20158   0.20227   0.20600   0.20871   0.21229
 Alpha virt. eigenvalues --    0.21756   0.22052   0.22352   0.22369   0.22722
 Alpha virt. eigenvalues --    0.23259   0.23724   0.24048   0.24125   0.24520
 Alpha virt. eigenvalues --    0.24745   0.25055   0.25655   0.25870   0.26141
 Alpha virt. eigenvalues --    0.26649   0.26673   0.26956   0.27204   0.27511
 Alpha virt. eigenvalues --    0.27921   0.28319   0.28587   0.28764   0.29044
 Alpha virt. eigenvalues --    0.29467   0.29751   0.30100   0.30296   0.30700
 Alpha virt. eigenvalues --    0.30813   0.31361   0.31474   0.31706   0.32008
 Alpha virt. eigenvalues --    0.32377   0.32739   0.33080   0.33525   0.34045
 Alpha virt. eigenvalues --    0.34455   0.34750   0.35352   0.35622   0.36292
 Alpha virt. eigenvalues --    0.36871   0.37492   0.38029   0.38490   0.38796
 Alpha virt. eigenvalues --    0.39465   0.39850   0.40153   0.41043   0.41553
 Alpha virt. eigenvalues --    0.42902   0.43145   0.43856   0.44205   0.44793
 Alpha virt. eigenvalues --    0.45428   0.45569   0.45984   0.46590   0.47397
 Alpha virt. eigenvalues --    0.47967   0.48699   0.48827   0.49372   0.49522
 Alpha virt. eigenvalues --    0.50068   0.50906   0.51123   0.51322   0.53093
 Alpha virt. eigenvalues --    0.54129   0.54378   0.55147   0.56613   0.57277
 Alpha virt. eigenvalues --    0.58149   0.58596   0.58943   0.59240   0.60362
 Alpha virt. eigenvalues --    0.61170   0.61722   0.62165   0.64292   0.65866
 Alpha virt. eigenvalues --    0.67064   0.68123   0.68473   0.68556   0.69464
 Alpha virt. eigenvalues --    0.69961   0.70694   0.73080   0.74491   0.75075
 Alpha virt. eigenvalues --    0.75455   0.77290   0.78600   0.78950   0.80315
 Alpha virt. eigenvalues --    0.81079   0.81483   0.82598   0.84127   0.85317
 Alpha virt. eigenvalues --    0.86564   0.87706   0.89690   0.90539   0.91264
 Alpha virt. eigenvalues --    0.94479   0.95705   0.96224   0.96876   0.97490
 Alpha virt. eigenvalues --    0.98059   0.98693   0.99210   0.99741   1.00467
 Alpha virt. eigenvalues --    1.00843   1.01469   1.02266   1.03268   1.04064
 Alpha virt. eigenvalues --    1.04356   1.05480   1.06476   1.06701   1.08022
 Alpha virt. eigenvalues --    1.09777   1.12357   1.15245   1.16200   1.16489
 Alpha virt. eigenvalues --    1.18695   1.19070   1.19780   1.20599   1.20950
 Alpha virt. eigenvalues --    1.21412   1.21720   1.22385   1.22926   1.22957
 Alpha virt. eigenvalues --    1.23450   1.23901   1.24377   1.25169   1.25702
 Alpha virt. eigenvalues --    1.26099   1.27165   1.27378   1.28121   1.28490
 Alpha virt. eigenvalues --    1.28997   1.29802   1.30111   1.30785   1.31481
 Alpha virt. eigenvalues --    1.32468   1.32701   1.32978   1.33631   1.34496
 Alpha virt. eigenvalues --    1.35341   1.35976   1.36618   1.36919   1.37782
 Alpha virt. eigenvalues --    1.39131   1.39748   1.40235   1.41141   1.41464
 Alpha virt. eigenvalues --    1.42802   1.43739   1.44341   1.45279   1.46331
 Alpha virt. eigenvalues --    1.46976   1.48751   1.50848   1.51230   1.52744
 Alpha virt. eigenvalues --    1.56728   1.57131   1.57653   1.59272   1.59826
 Alpha virt. eigenvalues --    1.60092   1.61228   1.61870   1.62416   1.63107
 Alpha virt. eigenvalues --    1.63218   1.63858   1.65198   1.65398   1.66629
 Alpha virt. eigenvalues --    1.67006   1.67975   1.69353   1.69766   1.70140
 Alpha virt. eigenvalues --    1.71378   1.71444   1.71571   1.72509   1.73391
 Alpha virt. eigenvalues --    1.74178   1.74980   1.75540   1.76071   1.76784
 Alpha virt. eigenvalues --    1.77218   1.77497   1.78492   1.78631   1.79537
 Alpha virt. eigenvalues --    1.80645   1.81490   1.82247   1.82411   1.83030
 Alpha virt. eigenvalues --    1.83366   1.84841   1.85109   1.85927   1.86617
 Alpha virt. eigenvalues --    1.87156   1.88097   1.88484   1.89867   1.90486
 Alpha virt. eigenvalues --    1.91288   1.91301   1.92481   1.92822   1.93929
 Alpha virt. eigenvalues --    1.94708   1.95042   1.95889   1.97321   1.98373
 Alpha virt. eigenvalues --    1.99018   2.00524   2.01159   2.03023   2.03630
 Alpha virt. eigenvalues --    2.05944   2.06588   2.07774   2.09703   2.10416
 Alpha virt. eigenvalues --    2.11128   2.13027   2.14137   2.16124   2.16308
 Alpha virt. eigenvalues --    2.17815   2.18833   2.19010   2.20775   2.26322
 Alpha virt. eigenvalues --    2.32532   2.33484   2.35495   2.39478   2.40407
 Alpha virt. eigenvalues --    2.41200   2.41367   2.41780   2.42728   2.43708
 Alpha virt. eigenvalues --    2.44029   2.45769   2.46704   2.47659   2.48947
 Alpha virt. eigenvalues --    2.50219   2.50306   2.51679   2.52785   2.53352
 Alpha virt. eigenvalues --    2.55402   2.58213   2.59274   2.60078   2.60674
 Alpha virt. eigenvalues --    2.61112   2.61822   2.62054   2.62418   2.62795
 Alpha virt. eigenvalues --    2.63148   2.64030   2.64572   2.64984   2.65971
 Alpha virt. eigenvalues --    2.66327   2.66574   2.67327   2.67559   2.69379
 Alpha virt. eigenvalues --    2.69693   2.70303   2.71212   2.71672   2.72381
 Alpha virt. eigenvalues --    2.72819   2.74342   2.75556   2.76740   2.77468
 Alpha virt. eigenvalues --    2.78940   2.80508   2.81501   2.82463   2.83408
 Alpha virt. eigenvalues --    2.83751   2.84693   2.86664   2.87785   2.88131
 Alpha virt. eigenvalues --    3.14539   3.20014   3.35875   3.41059   3.46839
 Alpha virt. eigenvalues --    3.47893   3.48578   3.48692   3.51102   3.51120
 Alpha virt. eigenvalues --    3.52917   3.54336   3.60303   3.61080   3.62054
 Alpha virt. eigenvalues --    3.66199   4.30712   4.58130   7.87225  31.29202
          Condensed to atoms (all electrons):
               1          2          3          4          5          6
     1  Zr  15.091997  -0.142473  -0.002048  -0.144913  -0.191059  -0.563769
     2  O   -0.142473   9.075754   0.019165  -0.042419  -0.056403   0.091977
     3  O   -0.002048   0.019165   8.830090   0.014783  -0.042148  -0.005825
     4  O   -0.144913  -0.042419   0.014783   8.811645  -0.059792  -0.671262
     5  O   -0.191059  -0.056403  -0.042148  -0.059792   9.430140  -0.005634
     6  Si  -0.563769   0.091977  -0.005825  -0.671262  -0.005634  13.951166
     7  Si  -0.614880  -0.028021  -0.876713  -0.005743  -0.033358   0.084247
     8  Si  -0.558427  -1.005708  -0.020827   0.075125  -0.013430  -0.029386
     9  Si  -0.335798  -0.041516  -0.027711  -0.034149  -1.258044   0.037623
    10  O   -0.014161   0.001031  -0.001981   0.001195   0.134149  -0.002256
    11  O   -0.055674   0.003596   0.002855   0.001077   0.309540  -0.001081
    12  O    0.035957   0.000002   0.004638   0.002156   0.166053  -0.002636
    13  O   -0.044804   0.189302   0.001673  -0.015555  -0.000632   0.037384
    14  O   -0.023916   0.266821  -0.017670  -0.008960   0.002011   0.030463
    15  O   -0.080006   0.292649  -0.000739   0.001241   0.000534  -0.000785
    16  O   -0.127573   0.004669  -0.000476   0.344223   0.003173  -0.419112
    17  O   -0.085193  -0.039778   0.007845   0.220402   0.001338  -0.453514
    18  O   -0.029081  -0.014229   0.003732   0.199238  -0.000555  -0.451357
    19  O   -0.002844   0.009119   0.263390   0.010378   0.002153  -0.006408
    20  O   -0.146964  -0.000565   0.164314  -0.000887   0.001461   0.009096
    21  O    0.034188   0.010509   0.146524   0.003409   0.000242  -0.011641
    22  H   -0.008837  -0.000021  -0.000031  -0.000010   0.005649   0.000083
    23  H   -0.007221  -0.000014  -0.000008  -0.000055  -0.025487   0.000066
    24  H   -0.004327  -0.000240  -0.000011  -0.000001  -0.005993   0.000037
    25  H    0.017593  -0.020163  -0.000111  -0.000254   0.000019   0.002307
    26  H    0.007412   0.000506   0.000015  -0.000012  -0.000004  -0.000144
    27  H    0.006013  -0.019537   0.000871  -0.001689   0.000008   0.008315
    28  H    0.005163  -0.000011  -0.018500  -0.000014  -0.000016  -0.000288
    29  H    0.004839  -0.007114  -0.020335  -0.000143  -0.000074   0.000062
    30  H    0.000983  -0.000013   0.000104  -0.000454  -0.000008  -0.000768
    31  H    0.000029   0.000166  -0.000019  -0.018421  -0.000009   0.063637
    32  H    0.001950  -0.000023   0.000039   0.010412   0.000001   0.022962
    33  H   -0.016309   0.001002  -0.010090  -0.009571  -0.000105   0.053553
               7          8          9         10         11         12
     1  Zr  -0.614880  -0.558427  -0.335798  -0.014161  -0.055674   0.035957
     2  O   -0.028021  -1.005708  -0.041516   0.001031   0.003596   0.000002
     3  O   -0.876713  -0.020827  -0.027711  -0.001981   0.002855   0.004638
     4  O   -0.005743   0.075125  -0.034149   0.001195   0.001077   0.002156
     5  O   -0.033358  -0.013430  -1.258044   0.134149   0.309540   0.166053
     6  Si   0.084247  -0.029386   0.037623  -0.002256  -0.001081  -0.002636
     7  Si  13.793812   0.180855   0.021574  -0.000177  -0.000769   0.004046
     8  Si   0.180855  13.793190   0.025226  -0.000796   0.001125  -0.000429
     9  Si   0.021574   0.025226  14.331689  -0.077179  -0.182463  -0.227464
    10  O   -0.000177  -0.000796  -0.077179   8.529368   0.014943   0.031182
    11  O   -0.000769   0.001125  -0.182463   0.014943   8.512494  -0.047918
    12  O    0.004046  -0.000429  -0.227464   0.031182  -0.047918   8.601338
    13  O    0.007518  -0.094356   0.000324   0.000000   0.000019   0.000011
    14  O    0.009997  -0.371127  -0.001422  -0.000002  -0.000000   0.000020
    15  O   -0.002905  -0.306229  -0.000688   0.000000  -0.000027  -0.000021
    16  O    0.003896  -0.009986  -0.001029   0.000004  -0.000001  -0.000001
    17  O   -0.000346   0.097614   0.002697  -0.000002   0.000000  -0.000005
    18  O   -0.000620   0.074262   0.004316  -0.000004  -0.000003  -0.000001
    19  O   -0.405471  -0.015266   0.001090   0.000006  -0.000002  -0.000011
    20  O   -0.108084   0.009666   0.003231  -0.000000  -0.000003  -0.000004
    21  O    0.023574  -0.039279  -0.001944   0.000002   0.000001   0.000032
    22  H   -0.000227   0.000085   0.046865  -0.006447  -0.005223   0.220058
    23  H    0.000054   0.000063   0.081058   0.228536  -0.006342   0.005989
    24  H    0.000066  -0.000158   0.037210   0.007478   0.242333  -0.007584
    25  H   -0.000476   0.057472  -0.000214   0.000000  -0.000000  -0.000000
    26  H   -0.000378   0.045980  -0.000044  -0.000000   0.000000  -0.000000
    27  H    0.001118   0.068151  -0.000018   0.000000  -0.000000  -0.000000
    28  H    0.056724  -0.000085  -0.000129  -0.000000  -0.000000  -0.000004
    29  H    0.048095   0.021546  -0.000056   0.000000   0.000000  -0.000001
    30  H    0.040139   0.000076   0.000024   0.000000  -0.000000   0.000000
    31  H    0.000153  -0.001974  -0.000057   0.000000  -0.000000  -0.000000
    32  H   -0.000656   0.000060   0.000004  -0.000000   0.000000   0.000000
    33  H    0.020619   0.000179   0.000082  -0.000000   0.000000   0.000000
              13         14         15         16         17         18
     1  Zr  -0.044804  -0.023916  -0.080006  -0.127573  -0.085193  -0.029081
     2  O    0.189302   0.266821   0.292649   0.004669  -0.039778  -0.014229
     3  O    0.001673  -0.017670  -0.000739  -0.000476   0.007845   0.003732
     4  O   -0.015555  -0.008960   0.001241   0.344223   0.220402   0.199238
     5  O   -0.000632   0.002011   0.000534   0.003173   0.001338  -0.000555
     6  Si   0.037384   0.030463  -0.000785  -0.419112  -0.453514  -0.451357
     7  Si   0.007518   0.009997  -0.002905   0.003896  -0.000346  -0.000620
     8  Si  -0.094356  -0.371127  -0.306229  -0.009986   0.097614   0.074262
     9  Si   0.000324  -0.001422  -0.000688  -0.001029   0.002697   0.004316
    10  O    0.000000  -0.000002   0.000000   0.000004  -0.000002  -0.000004
    11  O    0.000019  -0.000000  -0.000027  -0.000001   0.000000  -0.000003
    12  O    0.000011   0.000020  -0.000021  -0.000001  -0.000005  -0.000001
    13  O    8.629937   0.087644  -0.091283   0.003715  -0.030814  -0.045315
    14  O    0.087644   8.677676   0.055429   0.003662  -0.035754  -0.026767
    15  O   -0.091283   0.055429   8.777325  -0.000175   0.003600   0.001664
    16  O    0.003715   0.003662  -0.000175   8.900517  -0.091361  -0.115049
    17  O   -0.030814  -0.035754   0.003600  -0.091361   8.935965   0.228018
    18  O   -0.045315  -0.026767   0.001664  -0.115049   0.228018   9.014589
    19  O    0.000191  -0.000311   0.000138  -0.001544  -0.029872   0.000181
    20  O    0.000008  -0.000217   0.000039   0.000064  -0.000988   0.000015
    21  O   -0.000235   0.016031  -0.000626  -0.000215  -0.005574   0.000475
    22  H   -0.000000   0.000000  -0.000000   0.000000   0.000000  -0.000000
    23  H    0.000000   0.000000  -0.000000  -0.000000   0.000000  -0.000000
    24  H   -0.000000   0.000000   0.000002   0.000000  -0.000000  -0.000000
    25  H    0.218233  -0.012019   0.008922  -0.000048   0.000623   0.014867
    26  H   -0.005135  -0.010038   0.217160   0.000000  -0.000003   0.000006
    27  H   -0.009838   0.219027   0.004626   0.000185   0.017891  -0.000274
    28  H   -0.000000  -0.000005  -0.000001  -0.000000   0.000004  -0.000000
    29  H    0.000789   0.017643  -0.002566  -0.000004  -0.000398   0.000005
    30  H    0.000001  -0.000003   0.000000   0.000117  -0.000395  -0.000007
    31  H    0.002350   0.000163  -0.000018   0.003823  -0.000785   0.218050
    32  H   -0.000008  -0.000006   0.000000   0.233456  -0.003638   0.003898
    33  H    0.000231   0.002060  -0.000035  -0.000118   0.230981   0.002103
              19         20         21         22         23         24
     1  Zr  -0.002844  -0.146964   0.034188  -0.008837  -0.007221  -0.004327
     2  O    0.009119  -0.000565   0.010509  -0.000021  -0.000014  -0.000240
     3  O    0.263390   0.164314   0.146524  -0.000031  -0.000008  -0.000011
     4  O    0.010378  -0.000887   0.003409  -0.000010  -0.000055  -0.000001
     5  O    0.002153   0.001461   0.000242   0.005649  -0.025487  -0.005993
     6  Si  -0.006408   0.009096  -0.011641   0.000083   0.000066   0.000037
     7  Si  -0.405471  -0.108084   0.023574  -0.000227   0.000054   0.000066
     8  Si  -0.015266   0.009666  -0.039279   0.000085   0.000063  -0.000158
     9  Si   0.001090   0.003231  -0.001944   0.046865   0.081058   0.037210
    10  O    0.000006  -0.000000   0.000002  -0.006447   0.228536   0.007478
    11  O   -0.000002  -0.000003   0.000001  -0.005223  -0.006342   0.242333
    12  O   -0.000011  -0.000004   0.000032   0.220058   0.005989  -0.007584
    13  O    0.000191   0.000008  -0.000235  -0.000000   0.000000  -0.000000
    14  O   -0.000311  -0.000217   0.016031   0.000000   0.000000   0.000000
    15  O    0.000138   0.000039  -0.000626  -0.000000  -0.000000   0.000002
    16  O   -0.001544   0.000064  -0.000215   0.000000  -0.000000   0.000000
    17  O   -0.029872  -0.000988  -0.005574   0.000000   0.000000  -0.000000
    18  O    0.000181   0.000015   0.000475  -0.000000  -0.000000  -0.000000
    19  O    8.871829   0.032001   0.023625  -0.000000   0.000000  -0.000000
    20  O    0.032001   8.656747  -0.050427   0.000001   0.000000  -0.000000
    21  O    0.023625  -0.050427   8.486744  -0.000000   0.000000   0.000000
    22  H   -0.000000   0.000001  -0.000000   0.361123   0.000052   0.000121
    23  H    0.000000   0.000000   0.000000   0.000052   0.350750   0.000011
    24  H   -0.000000  -0.000000   0.000000   0.000121   0.000011   0.365054
    25  H   -0.000024   0.000000  -0.000019   0.000000   0.000000   0.000000
    26  H    0.000001  -0.000000   0.000039  -0.000000  -0.000000  -0.000000
    27  H    0.000021   0.000191  -0.004021  -0.000000  -0.000000   0.000000
    28  H    0.004603   0.229576  -0.002092  -0.000000   0.000000  -0.000000
    29  H   -0.008570   0.007671   0.206448   0.000000   0.000000  -0.000000
    30  H    0.224263  -0.001489  -0.007144   0.000000  -0.000000   0.000000
    31  H    0.000004  -0.000000  -0.000000  -0.000000  -0.000000   0.000000
    32  H    0.000098  -0.000000   0.000001  -0.000000  -0.000000  -0.000000
    33  H    0.014812  -0.000082   0.001472  -0.000000  -0.000000  -0.000000
              25         26         27         28         29         30
     1  Zr   0.017593   0.007412   0.006013   0.005163   0.004839   0.000983
     2  O   -0.020163   0.000506  -0.019537  -0.000011  -0.007114  -0.000013
     3  O   -0.000111   0.000015   0.000871  -0.018500  -0.020335   0.000104
     4  O   -0.000254  -0.000012  -0.001689  -0.000014  -0.000143  -0.000454
     5  O    0.000019  -0.000004   0.000008  -0.000016  -0.000074  -0.000008
     6  Si   0.002307  -0.000144   0.008315  -0.000288   0.000062  -0.000768
     7  Si  -0.000476  -0.000378   0.001118   0.056724   0.048095   0.040139
     8  Si   0.057472   0.045980   0.068151  -0.000085   0.021546   0.000076
     9  Si  -0.000214  -0.000044  -0.000018  -0.000129  -0.000056   0.000024
    10  O    0.000000  -0.000000   0.000000  -0.000000   0.000000   0.000000
    11  O   -0.000000   0.000000  -0.000000  -0.000000   0.000000  -0.000000
    12  O   -0.000000  -0.000000  -0.000000  -0.000004  -0.000001   0.000000
    13  O    0.218233  -0.005135  -0.009838  -0.000000   0.000789   0.000001
    14  O   -0.012019  -0.010038   0.219027  -0.000005   0.017643  -0.000003
    15  O    0.008922   0.217160   0.004626  -0.000001  -0.002566   0.000000
    16  O   -0.000048   0.000000   0.000185  -0.000000  -0.000004   0.000117
    17  O    0.000623  -0.000003   0.017891   0.000004  -0.000398  -0.000395
    18  O    0.014867   0.000006  -0.000274  -0.000000   0.000005  -0.000007
    19  O   -0.000024   0.000001   0.000021   0.004603  -0.008570   0.224263
    20  O    0.000000  -0.000000   0.000191   0.229576   0.007671  -0.001489
    21  O   -0.000019   0.000039  -0.004021  -0.002092   0.206448  -0.007144
    22  H    0.000000  -0.000000  -0.000000  -0.000000   0.000000   0.000000
    23  H    0.000000  -0.000000  -0.000000   0.000000   0.000000  -0.000000
    24  H    0.000000  -0.000000   0.000000  -0.000000  -0.000000   0.000000
    25  H    0.298831  -0.000013   0.000117   0.000000   0.000001   0.000000
    26  H   -0.000013   0.365865   0.000037   0.000000   0.000021  -0.000000
    27  H    0.000117   0.000037   0.283321  -0.000000  -0.001500   0.000010
    28  H    0.000000   0.000000  -0.000000   0.349222  -0.000017  -0.000016
    29  H    0.000001   0.000021  -0.001500  -0.000017   0.285958   0.000155
    30  H    0.000000  -0.000000   0.000010  -0.000016   0.000155   0.334217
    31  H   -0.000491   0.000000   0.000013   0.000000   0.000000  -0.000000
    32  H   -0.000001   0.000000  -0.000000   0.000000  -0.000000  -0.000000
    33  H    0.000006  -0.000000  -0.002407  -0.000002   0.000100  -0.001155
              31         32         33
     1  Zr   0.000029   0.001950  -0.016309
     2  O    0.000166  -0.000023   0.001002
     3  O   -0.000019   0.000039  -0.010090
     4  O   -0.018421   0.010412  -0.009571
     5  O   -0.000009   0.000001  -0.000105
     6  Si   0.063637   0.022962   0.053553
     7  Si   0.000153  -0.000656   0.020619
     8  Si  -0.001974   0.000060   0.000179
     9  Si  -0.000057   0.000004   0.000082
    10  O    0.000000  -0.000000  -0.000000
    11  O   -0.000000   0.000000   0.000000
    12  O   -0.000000   0.000000   0.000000
    13  O    0.002350  -0.000008   0.000231
    14  O    0.000163  -0.000006   0.002060
    15  O   -0.000018   0.000000  -0.000035
    16  O    0.003823   0.233456  -0.000118
    17  O   -0.000785  -0.003638   0.230981
    18  O    0.218050   0.003898   0.002103
    19  O    0.000004   0.000098   0.014812
    20  O   -0.000000  -0.000000  -0.000082
    21  O   -0.000000   0.000001   0.001472
    22  H   -0.000000  -0.000000  -0.000000
    23  H   -0.000000  -0.000000  -0.000000
    24  H    0.000000  -0.000000  -0.000000
    25  H   -0.000491  -0.000001   0.000006
    26  H    0.000000   0.000000  -0.000000
    27  H    0.000013  -0.000000  -0.002407
    28  H    0.000000   0.000000  -0.000002
    29  H    0.000000  -0.000000   0.000100
    30  H   -0.000000  -0.000000  -0.001155
    31  H    0.331365  -0.000000  -0.000038
    32  H   -0.000000   0.349837   0.000157
    33  H   -0.000038   0.000157   0.269240
 Mulliken charges:
               1
     1  Zr  -0.005847
     2  O   -0.548019
     3  O   -0.414795
     4  O   -0.680977
     5  O   -0.363721
     6  Si   2.232887
     7  Si   1.782339
     8  Si   2.016791
     9  Si   1.596911
    10  O   -0.844889
    11  O   -0.788476
    12  O   -0.785402
    13  O   -0.841353
    14  O   -0.880429
    15  O   -0.877226
    16  O   -0.734814
    17  O   -0.968558
    18  O   -1.082157
    19  O   -0.987578
    20  O   -0.804369
    21  O   -0.830099
    22  H    0.386758
    23  H    0.372547
    24  H    0.366002
    25  H    0.414842
    26  H    0.378728
    27  H    0.429372
    28  H    0.375889
    29  H    0.447443
    30  H    0.411364
    31  H    0.402060
    32  H    0.381459
    33  H    0.443317
 Sum of Mulliken charges =  -0.00000
 Mulliken charges with hydrogens summed into heavy atoms:
               1
     1  Zr  -0.005847
     2  O   -0.548019
     3  O   -0.414795
     4  O   -0.680977
     5  O   -0.363721
     6  Si   2.232887
     7  Si   1.782339
     8  Si   2.016791
     9  Si   1.596911
    10  O   -0.472342
    11  O   -0.422473
    12  O   -0.398644
    13  O   -0.426511
    14  O   -0.451057
    15  O   -0.498498
    16  O   -0.353355
    17  O   -0.525241
    18  O   -0.680097
    19  O   -0.576214
    20  O   -0.428481
    21  O   -0.382656
 Electronic spatial extent (au):  <R**2>=           9868.9437
 Charge=             -0.0000 electrons
 Dipole moment (field-independent basis, Debye):
    X=              1.0595    Y=             -0.7038    Z=             -2.2703  Tot=              2.6023
 Quadrupole moment (field-independent basis, Debye-Ang):
   XX=           -160.2894   YY=           -154.6653   ZZ=           -157.8638
   XY=             -4.6809   XZ=              2.5318   YZ=              5.8416
 Traceless Quadrupole moment (field-independent basis, Debye-Ang):
   XX=             -2.6833   YY=              2.9409   ZZ=             -0.2576
   XY=             -4.6809   XZ=              2.5318   YZ=              5.8416
 Octapole moment (field-independent basis, Debye-Ang**2):
  XXX=             74.1815  YYY=              7.2226  ZZZ=            -14.3873  XYY=             -0.6448
  XXY=             20.6748  XXZ=             18.4861  XZZ=              3.2613  YZZ=            -16.9856
  YYZ=            -18.6747  XYZ=             28.5733
 Hexadecapole moment (field-independent basis, Debye-Ang**3):
 XXXX=          -6028.6793 YYYY=          -2841.1357 ZZZZ=          -2260.5056 XXXY=             55.3980
 XXXZ=            -37.7547 YYYX=              4.6560 YYYZ=            224.6613 ZZZX=           -163.6363
 ZZZY=            -59.9178 XXYY=          -1466.5479 XXZZ=          -1381.6375 YYZZ=           -922.3157
 XXYZ=             -5.2602 YYXZ=            114.3438 ZZXY=            -57.7816
 N-N= 2.832943110994D+03 E-N=-1.137848217589D+04  KE= 2.373154840592D+03
 PrsmSu:  requested number of processors reduced to:   2 ShMem   1 Linda.
 PrsmSu:  requested number of processors reduced to:  10 ShMem   1 Linda.
   1 Symmetry operations used in ECPInt.
 ECPInt:  NShTT=   13203 NPrTT=   78401 LenC2=   11527 LenP2D=   44636.
 LDataN:  DoStor=T MaxTD1= 9 Len=  602
 Number of processors reduced to  14 by ecpmxn.
 Calling FoFJK, ICntrl=      2127 FMM=F ISym2X=0 I1Cent= 0 IOpClX= 0 NMat=1 NMatS=1 NMatT=0.
 CoulSu:  requested number of processors reduced to:  10 ShMem   1 Linda.
 Defaulting to unpruned grid for atomic number  40.
 Defaulting to unpruned grid for atomic number  40.
 Defaulting to unpruned grid for atomic number  40.
 Defaulting to unpruned grid for atomic number  40.
 Defaulting to unpruned grid for atomic number  40.
 Defaulting to unpruned grid for atomic number  40.
 Defaulting to unpruned grid for atomic number  40.
 Defaulting to unpruned grid for atomic number  40.
 Defaulting to unpruned grid for atomic number  40.
 Defaulting to unpruned grid for atomic number  40.
 Defaulting to unpruned grid for atomic number  40.
 Defaulting to unpruned grid for atomic number  40.
 Defaulting to unpruned grid for atomic number  40.
 Defaulting to unpruned grid for atomic number  40.
 Defaulting to unpruned grid for atomic number  40.
 Defaulting to unpruned grid for atomic number  40.
 ***** Axes restored to original set *****
 -------------------------------------------------------------------
 Center     Atomic                   Forces (Hartrees/Bohr)
 Number     Number              X              Y              Z
 -------------------------------------------------------------------
      1       40          -0.000041603    0.000002683   -0.000462164
      2        8           0.000043110    0.000013191    0.000149997
      3        8          -0.000030108   -0.000030655    0.000057505
      4        8           0.000001463    0.000023921    0.000088994
      5        8          -0.000049971    0.000044104    0.000303466
      6       14           0.000007535   -0.000001132   -0.000047385
      7       14           0.000046749    0.000004636   -0.000067985
      8       14          -0.000079571   -0.000046429   -0.000092182
      9       14           0.000044169   -0.000057149   -0.000253016
     10        8           0.000014149    0.000033076    0.000070180
     11        8           0.000013193    0.000040748    0.000032005
     12        8           0.000019921    0.000013290    0.000066135
     13        8           0.000010868    0.000037475    0.000030640
     14        8           0.000026335   -0.000013364    0.000026899
     15        8           0.000031453    0.000013086    0.000031024
     16        8          -0.000009924    0.000002487    0.000027351
     17        8           0.000001758    0.000007288    0.000018188
     18        8          -0.000015895   -0.000000031    0.000016094
     19        8          -0.000001480    0.000001975    0.000017691
     20        8          -0.000018135   -0.000000026    0.000019311
     21        8          -0.000007355   -0.000008467    0.000038533
     22        1           0.000000440   -0.000010368   -0.000000523
     23        1          -0.000031330   -0.000012530   -0.000010887
     24        1          -0.000000224   -0.000061634   -0.000001493
     25        1           0.000002661   -0.000006156   -0.000014631
     26        1          -0.000004500    0.000000127    0.000001409
     27        1           0.000000294    0.000004684   -0.000015985
     28        1           0.000008058    0.000000403   -0.000009700
     29        1          -0.000005046    0.000006136   -0.000009885
     30        1           0.000001905    0.000002485   -0.000003148
     31        1           0.000009925    0.000003229    0.000001766
     32        1           0.000011993    0.000000071   -0.000006955
     33        1          -0.000000837   -0.000007156   -0.000001249
 -------------------------------------------------------------------
 Cartesian Forces:  Max     0.000462164 RMS     0.000069370

 GradGradGradGradGradGradGradGradGradGradGradGradGradGradGradGradGradGrad
 Berny optimization.
 FormGI is forming the generalized inverse of G from B-inverse, IUseBI=4.
 Internal  Forces:  Max     0.000244571 RMS     0.000040820
 Search for a local minimum.
 Step number   1 out of a maximum of  148
 All quantities printed in internal units (Hartrees-Bohrs-Radians)
 Mixed Optimization -- En-DIIS/RFO-DIIS
 Second derivative matrix not updated -- first step.
 ITU=  0
     Eigenvalues ---    0.00230   0.00230   0.00230   0.00230   0.03240
     Eigenvalues ---    0.03358   0.03498   0.03580   0.03665   0.03666
     Eigenvalues ---    0.03680   0.03686   0.03693   0.03739   0.03789
     Eigenvalues ---    0.03792   0.03816   0.03834   0.03850   0.03857
     Eigenvalues ---    0.08405   0.09407   0.11077   0.11224   0.11819
     Eigenvalues ---    0.11833   0.11884   0.12136   0.12177   0.12239
     Eigenvalues ---    0.12563   0.12783   0.12895   0.13099   0.13313
     Eigenvalues ---    0.16000   0.16000   0.16000   0.16000   0.16000
     Eigenvalues ---    0.16000   0.16000   0.16000   0.16000   0.16000
     Eigenvalues ---    0.16000   0.16000   0.19173   0.19893   0.20028
     Eigenvalues ---    0.20179   0.20203   0.20204   0.20208   0.20516
     Eigenvalues ---    0.20653   0.20795   0.20988   0.21175   0.21186
     Eigenvalues ---    0.21263   0.25000   0.25000   0.25000   0.38002
     Eigenvalues ---    0.39186   0.40660   0.41547   0.42500   0.42510
     Eigenvalues ---    0.42670   0.42744   0.42825   0.43363   0.43949
     Eigenvalues ---    0.43980   0.44273   0.44484   0.44688   0.44768
     Eigenvalues ---    0.50654   0.51353   0.52035   0.52546   0.54335
     Eigenvalues ---    0.54624   0.54642   0.54647   0.54690   0.54692
     Eigenvalues ---    0.54712   0.547651000.000001000.000001000.00000
     Eigenvalues --- 1000.000001000.000001000.000001000.000001000.00000
     Eigenvalues --- 1000.000001000.000001000.000001000.000001000.00000
     Eigenvalues --- 1000.000001000.000001000.000001000.000001000.00000
     Eigenvalues --- 1000.000001000.000001000.000001000.000001000.00000
     Eigenvalues --- 1000.000001000.000001000.000001000.000001000.00000
     Eigenvalues --- 1000.000001000.000001000.000001000.000001000.00000
     Eigenvalues --- 1000.000001000.000001000.000001000.000001000.00000
     Eigenvalues --- 1000.000001000.000001000.000001000.000001000.00000
     Eigenvalues --- 1000.000001000.000001000.00000
 RFO step:  Lambda=-8.98446946D-06 EMin= 2.30000000D-03
 Linear search not attempted -- first point.
 Iteration  1 RMS(Cart)=  0.02410835 RMS(Int)=  0.00022663
 Iteration  2 RMS(Cart)=  0.00036242 RMS(Int)=  0.00000012
 Iteration  3 RMS(Cart)=  0.00000005 RMS(Int)=  0.00000012
 Iteration  1 RMS(Cart)=  0.00000000 RMS(Int)=  0.00000000
 Variable       Old X    -DE/DX   Delta X   Delta X   Delta X     New X
                                 (Linear)    (Quad)   (Total)
    R1        3.67648   0.00007   0.00000   0.00035   0.00035   3.67683
    R2        3.69189  -0.00002   0.00000  -0.00009  -0.00009   3.69180
    R3        3.73836  -0.00009   0.00000  -0.00047  -0.00047   3.73788
    R4        3.70232   0.00000   0.00000   0.00002   0.00002   3.70234
    R5        3.11687  -0.00000   0.00000  -0.00000  -0.00000   3.11686
    R6        3.09580  -0.00001   0.00000  -0.00003  -0.00003   3.09577
    R7        3.10216  -0.00001   0.00000  -0.00002  -0.00002   3.10213
    R8        3.09246   0.00005   0.00000   0.00011   0.00011   3.09257
    R9        3.11586  -0.00002   0.00000  -0.00005  -0.00005   3.11582
   R10        3.11991   0.00001   0.00000   0.00001   0.00001   3.11992
   R11        3.14367   0.00001   0.00000   0.00002   0.00002   3.14369
   R12        3.18062  -0.00001   0.00000  -0.00003  -0.00003   3.18059
   R13        3.10924  -0.00000   0.00000  -0.00001  -0.00001   3.10923
   R14        3.09340   0.00003   0.00000   0.00007   0.00007   3.09347
   R15        3.10178  -0.00004   0.00000  -0.00008  -0.00008   3.10170
   R16        3.16375  -0.00003   0.00000  -0.00007  -0.00007   3.16368
   R17        3.09830   0.00003   0.00000   0.00008   0.00008   3.09838
   R18        3.11979  -0.00006   0.00000  -0.00014  -0.00014   3.11966
   R19        3.13204   0.00003   0.00000   0.00008   0.00008   3.13211
   R20        3.11779   0.00004   0.00000   0.00010   0.00010   3.11789
   R21        1.82152   0.00000   0.00000   0.00000   0.00000   1.82152
   R22        1.82107   0.00002   0.00000   0.00004   0.00004   1.82111
   R23        1.82088  -0.00000   0.00000  -0.00001  -0.00001   1.82088
   R24        1.84080   0.00001   0.00000   0.00003   0.00003   1.84082
   R25        1.84566   0.00001   0.00000   0.00003   0.00003   1.84569
   R26        1.82041   0.00000   0.00000   0.00001   0.00001   1.82042
   R27        1.82109   0.00001   0.00000   0.00002   0.00002   1.82111
   R28        1.85911  -0.00001   0.00000  -0.00002  -0.00002   1.85909
   R29        1.82147  -0.00000   0.00000  -0.00000  -0.00000   1.82147
   R30        1.82428   0.00000   0.00000   0.00000   0.00000   1.82428
   R31        1.82168  -0.00001   0.00000  -0.00001  -0.00001   1.82167
   R32        1.85224  -0.00001   0.00000  -0.00001  -0.00001   1.85223
    A1        1.85172  -0.00003   0.00000  -0.00064  -0.00064   1.85109
    A2        1.80156   0.00003   0.00000   0.00018   0.00018   1.80174
    A3        1.96889  -0.00014   0.00000  -0.00114  -0.00114   1.96774
    A4        1.83430  -0.00000   0.00000   0.00045   0.00045   1.83476
    A5        2.01803   0.00004   0.00000   0.00018   0.00018   2.01821
    A6        1.97057   0.00011   0.00000   0.00098   0.00098   1.97155
    A7        2.46524  -0.00003   0.00000  -0.00012  -0.00012   2.46512
    A8        2.58826   0.00002   0.00000   0.00009   0.00009   2.58835
    A9        2.35482  -0.00004   0.00000  -0.00018  -0.00018   2.35465
   A10        2.86714   0.00024   0.00000   0.00000  -0.00000   2.86714
   A11        1.91978   0.00000   0.00000   0.00005   0.00005   1.91983
   A12        1.91546  -0.00001   0.00000  -0.00006  -0.00006   1.91540
   A13        1.95201  -0.00001   0.00000  -0.00007  -0.00007   1.95195
   A14        2.00708   0.00001   0.00000   0.00008   0.00008   2.00716
   A15        1.88611   0.00001   0.00000   0.00007   0.00007   1.88618
   A16        1.78001  -0.00001   0.00000  -0.00009  -0.00009   1.77992
   A17        1.80238   0.00001   0.00000   0.00007   0.00007   1.80246
   A18        1.99614   0.00001   0.00000   0.00009   0.00009   1.99623
[...]
 Alpha virt. eigenvalues --    3.14762   3.20378   3.35829   3.41112   3.46767
 Alpha virt. eigenvalues --    3.47845   3.48600   3.48642   3.51037   3.51112
 Alpha virt. eigenvalues --    3.52867   3.54108   3.60308   3.61079   3.62062
 Alpha virt. eigenvalues --    3.66202   4.32778   4.59601   7.89857  31.29229
          Condensed to atoms (all electrons):
               1          2          3          4          5          6
     1  Zr  15.084146  -0.124737  -0.001550  -0.134929  -0.191914  -0.597273
     2  O   -0.124737   9.063339   0.019522  -0.042537  -0.057446   0.088529
     3  O   -0.001550   0.019522   8.828743   0.015823  -0.043993  -0.004164
     4  O   -0.134929  -0.042537   0.015823   8.809919  -0.060141  -0.673683
     5  O   -0.191914  -0.057446  -0.043993  -0.060141   9.427258  -0.007154
     6  Si  -0.597273   0.088529  -0.004164  -0.673683  -0.007154  13.984774
     7  Si  -0.614720  -0.028211  -0.876117  -0.007104  -0.033902   0.084288
     8  Si  -0.589187  -0.999106  -0.020212   0.071527  -0.014279  -0.017168
     9  Si  -0.320905  -0.040575  -0.026509  -0.033010  -1.230420   0.038675
    10  O   -0.014688   0.001029  -0.002023   0.000947   0.129545  -0.002373
    11  O   -0.064164   0.003399   0.002974   0.001210   0.312054  -0.000809
    12  O    0.042321  -0.000020   0.004683   0.002074   0.153382  -0.002977
    13  O   -0.035889   0.186092   0.001646  -0.015690  -0.000678   0.035503
    14  O   -0.017848   0.263491  -0.017669  -0.008818   0.001903   0.029090
    15  O   -0.083722   0.292917  -0.000695   0.001239   0.000582  -0.000031
    16  O   -0.124782   0.004680  -0.000498   0.344800   0.003208  -0.422850
    17  O   -0.081481  -0.039825   0.008022   0.218324   0.001322  -0.452760
    18  O   -0.026762  -0.014488   0.003736   0.198202  -0.000609  -0.450274
    19  O    0.001381   0.008967   0.264981   0.010259   0.002135  -0.007611
    20  O   -0.145906  -0.000577   0.163747  -0.000860   0.001478   0.009047
    21  O    0.036050   0.010295   0.146202   0.003412   0.000210  -0.011884
    22  H   -0.008940  -0.000018  -0.000014  -0.000009   0.005785   0.000086
    23  H   -0.007654  -0.000013  -0.000006  -0.000055  -0.025258   0.000086
    24  H   -0.005221  -0.000189  -0.000011   0.000003  -0.005533   0.000071
    25  H    0.016969  -0.020012  -0.000111  -0.000309   0.000019   0.002645
    26  H    0.007280   0.000635   0.000014  -0.000011  -0.000004  -0.000151
    27  H    0.004255  -0.019198   0.000842  -0.001703   0.000010   0.008778
    28  H    0.005078  -0.000011  -0.018400  -0.000014  -0.000015  -0.000283
    29  H    0.004183  -0.007064  -0.020279  -0.000140  -0.000073   0.000137
    30  H    0.000726  -0.000012   0.000068  -0.000454  -0.000008  -0.000658
    31  H   -0.000218   0.000173  -0.000020  -0.018459  -0.000009   0.063893
    32  H    0.002102  -0.000024   0.000040   0.010389   0.000001   0.022897
    33  H   -0.016071   0.001020  -0.010105  -0.009619  -0.000101   0.053348
               7          8          9         10         11         12
     1  Zr  -0.614720  -0.589187  -0.320905  -0.014688  -0.064164   0.042321
     2  O   -0.028211  -0.999106  -0.040575   0.001029   0.003399  -0.000020
     3  O   -0.876117  -0.020212  -0.026509  -0.002023   0.002974   0.004683
     4  O   -0.007104   0.071527  -0.033010   0.000947   0.001210   0.002074
     5  O   -0.033902  -0.014279  -1.230420   0.129545   0.312054   0.153382
     6  Si   0.084288  -0.017168   0.038675  -0.002373  -0.000809  -0.002977
     7  Si  13.795718   0.182183   0.019988  -0.000239  -0.000875   0.003999
     8  Si   0.182183  13.804969   0.026171  -0.000985   0.001188  -0.000837
     9  Si   0.019988   0.026171  14.254348  -0.068244  -0.179053  -0.211060
    10  O   -0.000239  -0.000985  -0.068244   8.525324   0.014970   0.031187
    11  O   -0.000875   0.001188  -0.179053   0.014970   8.516087  -0.051050
    12  O    0.003999  -0.000837  -0.211060   0.031187  -0.051050   8.600907
    13  O    0.007306  -0.095213   0.000218   0.000000   0.000018   0.000009
    14  O    0.009507  -0.368217  -0.001485  -0.000002   0.000001   0.000018
    15  O   -0.002555  -0.304671  -0.000628   0.000000  -0.000024  -0.000016
    16  O    0.003793  -0.010316  -0.001035   0.000005  -0.000003  -0.000001
    17  O   -0.000729   0.096803   0.002563  -0.000001   0.000002  -0.000006
    18  O   -0.000735   0.074731   0.004186  -0.000002  -0.000001  -0.000001
    19  O   -0.409019  -0.016054   0.001046   0.000007  -0.000002  -0.000022
    20  O   -0.108717   0.009652   0.003157   0.000003  -0.000003  -0.000028
    21  O    0.024452  -0.040122  -0.001806   0.000001   0.000001   0.000024
    22  H   -0.000185   0.000089   0.047238  -0.006519  -0.005092   0.219685
    23  H    0.000060   0.000062   0.081081   0.228547  -0.006139   0.005860
    24  H    0.000054  -0.000092   0.037317   0.007397   0.242564  -0.007470
    25  H   -0.000459   0.057462  -0.000211   0.000000  -0.000000  -0.000000
    26  H   -0.000381   0.046085  -0.000044  -0.000000   0.000000  -0.000000
    27  H    0.001330   0.068443  -0.000008   0.000000  -0.000000  -0.000000
    28  H    0.056627  -0.000068  -0.000135  -0.000000  -0.000000  -0.000004
    29  H    0.048153   0.021904  -0.000057   0.000000   0.000000  -0.000001
    30  H    0.040289   0.000110   0.000023  -0.000000   0.000000   0.000000
    31  H    0.000155  -0.001974  -0.000052   0.000000  -0.000000   0.000000
    32  H   -0.000664   0.000053   0.000009  -0.000000   0.000000  -0.000000
    33  H    0.020637   0.000108   0.000078  -0.000000   0.000000   0.000000
              13         14         15         16         17         18
     1  Zr  -0.035889  -0.017848  -0.083722  -0.124782  -0.081481  -0.026762
     2  O    0.186092   0.263491   0.292917   0.004680  -0.039825  -0.014488
     3  O    0.001646  -0.017669  -0.000695  -0.000498   0.008022   0.003736
     4  O   -0.015690  -0.008818   0.001239   0.344800   0.218324   0.198202
     5  O   -0.000678   0.001903   0.000582   0.003208   0.001322  -0.000609
     6  Si   0.035503   0.029090  -0.000031  -0.422850  -0.452760  -0.450274
     7  Si   0.007306   0.009507  -0.002555   0.003793  -0.000729  -0.000735
     8  Si  -0.095213  -0.368217  -0.304671  -0.010316   0.096803   0.074731
     9  Si   0.000218  -0.001485  -0.000628  -0.001035   0.002563   0.004186
    10  O    0.000000  -0.000002   0.000000   0.000005  -0.000001  -0.000002
    11  O    0.000018   0.000001  -0.000024  -0.000003   0.000002  -0.000001
    12  O    0.000009   0.000018  -0.000016  -0.000001  -0.000006  -0.000001
    13  O    8.628164   0.087193  -0.090656   0.003735  -0.030942  -0.045707
    14  O    0.087193   8.674702   0.055566   0.003666  -0.035888  -0.026888
    15  O   -0.090656   0.055566   8.777085  -0.000175   0.003607   0.001679
    16  O    0.003735   0.003666  -0.000175   8.901763  -0.091878  -0.115332
    17  O   -0.030942  -0.035888   0.003607  -0.091878   8.935675   0.227868
    18  O   -0.045707  -0.026888   0.001679  -0.115332   0.227868   9.012157
    19  O    0.000181  -0.000439   0.000139  -0.001542  -0.030014   0.000163
    20  O    0.000008  -0.000245   0.000039   0.000065  -0.000979   0.000015
    21  O   -0.000251   0.015991  -0.000614  -0.000213  -0.005591   0.000477
    22  H   -0.000000  -0.000000  -0.000000   0.000000   0.000000  -0.000000
    23  H    0.000000   0.000000  -0.000000  -0.000000   0.000000  -0.000000
    24  H   -0.000000   0.000000   0.000002   0.000000  -0.000000  -0.000000
    25  H    0.218366  -0.011970   0.008910  -0.000049   0.000627   0.014873
    26  H   -0.005134  -0.010091   0.217031   0.000000  -0.000003   0.000006
    27  H   -0.009730   0.219309   0.004632   0.000184   0.017945  -0.000246
    28  H    0.000000  -0.000006  -0.000001  -0.000000   0.000004  -0.000000
    29  H    0.000796   0.017584  -0.002574  -0.000004  -0.000393   0.000006
    30  H    0.000001   0.000001   0.000000   0.000115  -0.000399  -0.000007
    31  H    0.002355   0.000166  -0.000018   0.003701  -0.000725   0.218208
    32  H   -0.000008  -0.000006   0.000000   0.233366  -0.003649   0.003897
    33  H    0.000231   0.002091  -0.000035  -0.000106   0.230957   0.002091
              19         20         21         22         23         24
     1  Zr   0.001381  -0.145906   0.036050  -0.008940  -0.007654  -0.005221
     2  O    0.008967  -0.000577   0.010295  -0.000018  -0.000013  -0.000189
     3  O    0.264981   0.163747   0.146202  -0.000014  -0.000006  -0.000011
     4  O    0.010259  -0.000860   0.003412  -0.000009  -0.000055   0.000003
     5  O    0.002135   0.001478   0.000210   0.005785  -0.025258  -0.005533
     6  Si  -0.007611   0.009047  -0.011884   0.000086   0.000086   0.000071
     7  Si  -0.409019  -0.108717   0.024452  -0.000185   0.000060   0.000054
     8  Si  -0.016054   0.009652  -0.040122   0.000089   0.000062  -0.000092
     9  Si   0.001046   0.003157  -0.001806   0.047238   0.081081   0.037317
    10  O    0.000007   0.000003   0.000001  -0.006519   0.228547   0.007397
    11  O   -0.000002  -0.000003   0.000001  -0.005092  -0.006139   0.242564
    12  O   -0.000022  -0.000028   0.000024   0.219685   0.005860  -0.007470
    13  O    0.000181   0.000008  -0.000251  -0.000000   0.000000  -0.000000
    14  O   -0.000439  -0.000245   0.015991  -0.000000   0.000000   0.000000
    15  O    0.000139   0.000039  -0.000614  -0.000000  -0.000000   0.000002
    16  O   -0.001542   0.000065  -0.000213   0.000000  -0.000000   0.000000
    17  O   -0.030014  -0.000979  -0.005591   0.000000   0.000000  -0.000000
    18  O    0.000163   0.000015   0.000477  -0.000000  -0.000000  -0.000000
    19  O    8.872719   0.032060   0.023449  -0.000000   0.000000  -0.000000
    20  O    0.032060   8.657161  -0.050382   0.000000   0.000000  -0.000000
    21  O    0.023449  -0.050382   8.485617  -0.000000   0.000000   0.000000
    22  H   -0.000000   0.000000  -0.000000   0.361700   0.000057   0.000124
    23  H    0.000000   0.000000   0.000000   0.000057   0.350979   0.000013
    24  H   -0.000000  -0.000000   0.000000   0.000124   0.000013   0.365130
    25  H   -0.000024   0.000000  -0.000019   0.000000   0.000000   0.000000
    26  H    0.000001  -0.000000   0.000039  -0.000000  -0.000000  -0.000000
    27  H    0.000030   0.000192  -0.004015  -0.000000  -0.000000   0.000000
    28  H    0.004610   0.229551  -0.002060  -0.000000   0.000000  -0.000000
    29  H   -0.008570   0.007668   0.206466   0.000000   0.000000  -0.000000
    30  H    0.224201  -0.001481  -0.007152   0.000000   0.000000  -0.000000
    31  H    0.000004  -0.000000  -0.000000  -0.000000  -0.000000   0.000000
    32  H    0.000097  -0.000000   0.000001  -0.000000  -0.000000  -0.000000
    33  H    0.014862  -0.000080   0.001477  -0.000000  -0.000000  -0.000000
              25         26         27         28         29         30
     1  Zr   0.016969   0.007280   0.004255   0.005078   0.004183   0.000726
     2  O   -0.020012   0.000635  -0.019198  -0.000011  -0.007064  -0.000012
     3  O   -0.000111   0.000014   0.000842  -0.018400  -0.020279   0.000068
     4  O   -0.000309  -0.000011  -0.001703  -0.000014  -0.000140  -0.000454
     5  O    0.000019  -0.000004   0.000010  -0.000015  -0.000073  -0.000008
     6  Si   0.002645  -0.000151   0.008778  -0.000283   0.000137  -0.000658
     7  Si  -0.000459  -0.000381   0.001330   0.056627   0.048153   0.040289
     8  Si   0.057462   0.046085   0.068443  -0.000068   0.021904   0.000110
     9  Si  -0.000211  -0.000044  -0.000008  -0.000135  -0.000057   0.000023
    10  O    0.000000  -0.000000   0.000000  -0.000000   0.000000  -0.000000
    11  O   -0.000000   0.000000  -0.000000  -0.000000   0.000000   0.000000
    12  O   -0.000000  -0.000000  -0.000000  -0.000004  -0.000001   0.000000
    13  O    0.218366  -0.005134  -0.009730   0.000000   0.000796   0.000001
    14  O   -0.011970  -0.010091   0.219309  -0.000006   0.017584   0.000001
    15  O    0.008910   0.217031   0.004632  -0.000001  -0.002574   0.000000
    16  O   -0.000049   0.000000   0.000184  -0.000000  -0.000004   0.000115
    17  O    0.000627  -0.000003   0.017945   0.000004  -0.000393  -0.000399
    18  O    0.014873   0.000006  -0.000246  -0.000000   0.000006  -0.000007
    19  O   -0.000024   0.000001   0.000030   0.004610  -0.008570   0.224201
    20  O    0.000000  -0.000000   0.000192   0.229551   0.007668  -0.001481
    21  O   -0.000019   0.000039  -0.004015  -0.002060   0.206466  -0.007152
    22  H    0.000000  -0.000000  -0.000000  -0.000000   0.000000   0.000000
    23  H    0.000000  -0.000000  -0.000000   0.000000   0.000000   0.000000
    24  H    0.000000  -0.000000   0.000000  -0.000000  -0.000000  -0.000000
    25  H    0.298978  -0.000012   0.000113   0.000000   0.000001   0.000000
    26  H   -0.000012   0.366021   0.000036   0.000000   0.000021  -0.000000
    27  H    0.000113   0.000036   0.283343  -0.000000  -0.001495   0.000009
    28  H    0.000000   0.000000  -0.000000   0.349195  -0.000017  -0.000016
    29  H    0.000001   0.000021  -0.001495  -0.000017   0.285928   0.000156
    30  H    0.000000  -0.000000   0.000009  -0.000016   0.000156   0.334261
    31  H   -0.000510   0.000000   0.000013  -0.000000   0.000000  -0.000000
    32  H   -0.000001   0.000000  -0.000000   0.000000  -0.000000  -0.000000
    33  H    0.000006  -0.000000  -0.002410  -0.000002   0.000099  -0.001161
              31         32         33
     1  Zr  -0.000218   0.002102  -0.016071
     2  O    0.000173  -0.000024   0.001020
     3  O   -0.000020   0.000040  -0.010105
     4  O   -0.018459   0.010389  -0.009619
     5  O   -0.000009   0.000001  -0.000101
     6  Si   0.063893   0.022897   0.053348
     7  Si   0.000155  -0.000664   0.020637
     8  Si  -0.001974   0.000053   0.000108
     9  Si  -0.000052   0.000009   0.000078
    10  O    0.000000  -0.000000  -0.000000
    11  O   -0.000000   0.000000   0.000000
    12  O    0.000000  -0.000000   0.000000
    13  O    0.002355  -0.000008   0.000231
    14  O    0.000166  -0.000006   0.002091
    15  O   -0.000018   0.000000  -0.000035
    16  O    0.003701   0.233366  -0.000106
    17  O   -0.000725  -0.003649   0.230957
    18  O    0.218208   0.003897   0.002091
    19  O    0.000004   0.000097   0.014862
    20  O   -0.000000  -0.000000  -0.000080
    21  O   -0.000000   0.000001   0.001477
    22  H   -0.000000  -0.000000  -0.000000
    23  H   -0.000000  -0.000000  -0.000000
    24  H    0.000000  -0.000000  -0.000000
    25  H   -0.000510  -0.000001   0.000006
    26  H    0.000000   0.000000  -0.000000
    27  H    0.000013  -0.000000  -0.002410
    28  H   -0.000000   0.000000  -0.000002
    29  H    0.000000  -0.000000   0.000099
    30  H   -0.000000  -0.000000  -0.001161
    31  H    0.331609   0.000001  -0.000038
    32  H    0.000001   0.350052   0.000157
    33  H   -0.000038   0.000157   0.269263
 Mulliken charges:
               1
     1  Zr   0.004070
     2  O   -0.550024
     3  O   -0.418670
     4  O   -0.680583
     5  O   -0.367349
     6  Si   2.230255
     7  Si   1.786071
     8  Si   2.016958
     9  Si   1.599140
    10  O   -0.843884
    11  O   -0.787254
    12  O   -0.790654
    13  O   -0.841924
    14  O   -0.880707
    15  O   -0.877015
    16  O   -0.734300
    17  O   -0.968456
    18  O   -1.081244
    19  O   -0.987997
    20  O   -0.804584
    21  O   -0.830055
    22  H    0.386012
    23  H    0.372380
    24  H    0.365840
    25  H    0.414717
    26  H    0.378660
    27  H    0.429342
    28  H    0.375965
    29  H    0.447567
    30  H    0.411389
    31  H    0.401744
    32  H    0.381290
    33  H    0.443303
 Sum of Mulliken charges =  -0.00000
 Mulliken charges with hydrogens summed into heavy atoms:
               1
     1  Zr   0.004070
     2  O   -0.550024
     3  O   -0.418670
     4  O   -0.680583
     5  O   -0.367349
     6  Si   2.230255
     7  Si   1.786071
     8  Si   2.016958
     9  Si   1.599140
    10  O   -0.471504
    11  O   -0.421414
    12  O   -0.404643
    13  O   -0.427207
    14  O   -0.451365
    15  O   -0.498355
    16  O   -0.353010
    17  O   -0.525152
    18  O   -0.679500
    19  O   -0.576609
    20  O   -0.428619
    21  O   -0.382488
 Electronic spatial extent (au):  <R**2>=           9868.7891
 Charge=              0.0000 electrons
 Dipole moment (field-independent basis, Debye):
    X=              1.0854    Y=             -0.7697    Z=             -2.4007  Tot=              2.7448
 Quadrupole moment (field-independent basis, Debye-Ang):
   XX=           -160.1555   YY=           -154.6936   ZZ=           -157.7882
   XY=             -4.9636   XZ=              2.2569   YZ=              5.7341
 Traceless Quadrupole moment (field-independent basis, Debye-Ang):
   XX=             -2.6097   YY=              2.8521   ZZ=             -0.2424
   XY=             -4.9636   XZ=              2.2569   YZ=              5.7341
 Octapole moment (field-independent basis, Debye-Ang**2):
  XXX=             74.8892  YYY=              6.7542  ZZZ=            -18.6240  XYY=             -2.1748
  XXY=             20.3028  XXZ=             19.4348  XZZ=              5.4322  YZZ=            -17.1026
  YYZ=            -15.6484  XYZ=             28.0824
 Hexadecapole moment (field-independent basis, Debye-Ang**3):
 XXXX=          -6028.7559 YYYY=          -2835.0742 ZZZZ=          -2260.9149 XXXY=             55.4709
 XXXZ=            -23.2532 YYYX=              4.3176 YYYZ=            217.7089 ZZZX=           -183.9743
 ZZZY=            -54.8367 XXYY=          -1483.6195 XXZZ=          -1361.8325 YYZZ=           -925.0211
 XXYZ=             -7.4064 YYXZ=            130.3492 ZZXY=            -60.4586
 N-N= 2.832873957906D+03 E-N=-1.137834884305D+04  KE= 2.373154867538D+03
 1\1\GINC-GRA1322\FOpt\RB3LYP\Gen\H12O16Si4Zr1\SARASHS\14-Aug-2020\0\\#
 n B3LYP/Gen Pseudo=cards EmpiricalDispersion=GD3 Opt=modredundant\\Tit
 le\\0,1\Zr,0.6559383482,-0.1422387477,-0.011804146\O,-0.2021449267,-1.
 0814314089,1.4601281734\O,0.0904072918,1.72232381,0.1318713824\O,-0.28
 31020057,-0.8445400359,-1.6050897299\O,2.5917304823,-0.43703168,-0.075
 3759102\Si,-1.8481104229,-1.1705250086,-1.9784826818\Si,-1.1338212824,
 2.7985081581,0.2956019553\Si,-1.6942284777,-1.4012401367,2.0861710783\
 Si,4.2157952099,-0.2618419077,0.0225243231\O,4.939156771,0.0552475892,
 -1.4272421657\O,4.9131919424,-1.6667842107,0.5580426406\O,4.447698494,
 1.0338126012,1.0173210482\O,-2.2863385756,-2.8264550587,1.5272852482\O
 ,-2.7080054138,-0.1393045621,1.6587640735\O,-1.5496405133,-1.432114821
 9,3.7190150644\O,-2.0355603235,-1.2337807666,-3.6154134124\O,-2.840674
 2314,-0.1032382134,-1.2030651861\O,-2.3452186332,-2.6265045832,-1.3456
 956581\O,-2.0721678073,2.5279060745,-1.0752432743\O,-0.6654285885,4.37
 44799479,0.2315811815\O,-1.9671530538,2.5715234405,1.6861584679\H,5.33
 28288319,1.4140995633,1.0375639438\H,5.2897326279,-0.7093680543,-1.897
 9671607\H,4.4913562987,-2.1163000899,1.2987529765\H,-2.3831721693,-2.9
 152967979,0.5620804934\H,-2.3272998471,-1.6904817141,4.2254524685\H,-3
 .0539430025,-0.1978090526,0.7472749096\H,-0.5514110841,4.8187852687,1.
 0794465395\H,-2.2624515139,1.6551206248,1.8697727687\H,-2.687824107,3.
 2375466566,-1.2973354696\H,-2.3025144266,-3.3862698037,-1.93730273\H,-
 1.3138715632,-0.8766608636,-4.1448465828\H,-2.6333543286,0.8537937835,
 -1.2979946291\\Version=ES64L-G16RevB.01\State=1-A\HF=-2416.9468569\RMS
 D=6.065e-09\RMSF=8.103e-06\Dipole=0.4185929,-0.2034051,-0.9744702\Quad
 rupole=-1.8619795,1.191728,0.6702515,-3.8167754,1.2942198,4.4547134\PG
 =C01 [X(H12O16Si4Zr1)]\\@


 The best way to pay for a lovely moment is to enjoy it.
 -- Richard Bach
 Job cpu time:       1 days  1 hours  5 minutes 28.3 seconds.
 Elapsed time:       0 days  1 hours 57 minutes 31.1 seconds.
 File lengths (MBytes):  RWF=    167 Int=      0 D2E=      0 Chk=     21 Scr=      1
 Normal termination of Gaussian 16 at Fri Aug 14 04:57:30 2020.
