 Entering Gaussian System, Link 0=g16
 Initial command:
 /opt/software/gaussian/g16.b01/l1.exe "/localscratch/sarashs.37242648.0/Gau-73041.inp" -scrdir="/localscratch/sarashs.37242648.0/"
 Entering Link 1 = /opt/software/gaussian/g16.b01/l1.exe PID=     73042.
  
 Copyright (c) 1988-2017, Gaussian, Inc.  All Rights Reserved.
  
 This is part of the Gaussian(R) 16 program.  It is based on
 the Gaussian(R) 09 system (copyright 2009, Gaussian, Inc.),
 the Gaussian(R) 03 system (copyright 2003, Gaussian, Inc.),
 the Gaussian(R) 98 system (copyright 1998, Gaussian, Inc.),
 the Gaussian(R) 94 system (copyright 1995, Gaussian, Inc.),
 the Gaussian 92(TM) system (copyright 1992, Gaussian, Inc.),
 the Gaussian 90(TM) system (copyright 1990, Gaussian, Inc.),
 the Gaussian 88(TM) system (copyright 1988, Gaussian, Inc.),
 the Gaussian 86(TM) system (copyright 1986, Carnegie Mellon
 University), and the Gaussian 82(TM) system (copyright 1983,
 Carnegie Mellon University). Gaussian is a federally registered
 trademark of Gaussian, Inc.
  
 This software contains proprietary and confidential information,
 including trade secrets, belonging to Gaussian, Inc.
  
 This software is provided under written license and may be
 used, copied, transmitted, or stored only in accord with that
 written license.
  
 The following legend is applicable only to US Government
 contracts under FAR:
  
                    RESTRICTED RIGHTS LEGEND
  
 Use, reproduction and disclosure by the US Government is
 subject to restrictions as set forth in subparagraphs (a)
 and (c) of the Commercial Computer Software - Restricted
 Rights clause in FAR 52.227-19.
  
 Gaussian, Inc.
 340 Quinnipiac St., Bldg. 40, Wallingford CT 06492
  
  
 ---------------------------------------------------------------
 Warning -- This program may not be used in any manner that
 competes with the business of Gaussian, Inc. or will provide
 assistance to any competitor of Gaussian, Inc.  The licensee
 of this program is prohibited from giving any competitor of
 Gaussian, Inc. access to this program.  By using this program,
 the user acknowledges that Gaussian, Inc. is engaged in the
 business of creating and licensing software in the field of
 computational chemistry and represents and warrants to the
 licensee that it is not a competitor of Gaussian, Inc. and that
 it will not use this program in any manner prohibited above.
 ---------------------------------------------------------------
  

 Cite this work as:
 Gaussian 16, Revision B.01,
 M. J. Frisch, G. W. Trucks, H. B. Schlegel, G. E. Scuseria, 
 M. A. Robb, J. R. Cheeseman, G. Scalmani, V. Barone, 
 G. A. Petersson, H. Nakatsuji, X. Li, M. Caricato, A. V. Marenich, 
 J. Bloino, B. G. Janesko, R. Gomperts, B. Mennucci, H. P. Hratchian, 
 J. V. Ortiz, A. F. Izmaylov, J. L. Sonnenberg, D. Williams-Young, 
 F. Ding, F. Lipparini, F. Egidi, J. Goings, B. Peng, A. Petrone, 
 T. Henderson, D. Ranasinghe, V. G. Zakrzewski, J. Gao, N. Rega, 
 G. Zheng, W. Liang, M. Hada, M. Ehara, K. Toyota, R. Fukuda, 
 J. Hasegawa, M. Ishida, T. Nakajima, Y. Honda, O. Kitao, H. Nakai, 
 T. Vreven, K. Throssell, J. A. Montgomery, Jr., J. E. Peralta, 
 F. Ogliaro, M. J. Bearpark, J. J. Heyd, E. N. Brothers, K. N. Kudin, 
 V. N. Staroverov, T. A. Keith, R. Kobayashi, J. Normand, 
 K. Raghavachari, A. P. Rendell, J. C. Burant, S. S. Iyengar, 
 J. Tomasi, M. Cossi, J. M. Millam, M. Klene, C. Adamo, R. Cammi, 
 J. W. Ochterski, R. L. Martin, K. Morokuma, O. Farkas, 
 J. B. Foresman, and D. J. Fox, Gaussian, Inc., Wallingford CT, 2016.
 
 ******************************************
 Gaussian 16:  ES64L-G16RevB.01 20-Dec-2017
                14-Aug-2020 
 ******************************************
 %NProcShared=16
 Will use up to   16 processors via shared memory.
 ------------------------------------------------------------------
 #n B3LYP/Gen Pseudo=cards EmpiricalDispersion=GD3 Opt=modredundant
 ------------------------------------------------------------------
 1/18=120,19=15,26=3,38=1/1,3;
 2/9=110,12=2,17=6,18=5,40=1/2;
 3/5=7,11=2,16=1,17=8,25=1,30=1,71=1,74=-5,124=31/1,2,3;
 4//1;
 5/5=2,38=5/2;
 6/7=2,8=2,9=2,10=2,28=1/1;
 7//1,2,3,16;
 1/18=20,19=15,26=3/3(2);
 2/9=110/2;
 99//99;
 2/9=110/2;
 3/5=7,6=1,11=2,16=1,17=8,25=1,30=1,71=1,74=-5,82=7,124=31/1,2,3;
 4/5=5,16=3,69=1/1;
 5/5=2,38=5/2;
 7//1,2,3,16;
 1/18=20,19=15,26=3/3(-5);
 2/9=110/2;
 6/7=2,8=2,9=2,10=2,19=2,28=1/1;
 99/9=1/99;
 -----
 Title
 -----
 Symbolic Z-matrix:
 Charge =  0 Multiplicity = 1
 Zr                    0.66468  -0.11068  -0.21535 
 O                    -0.27226  -0.43775   1.45802 
 O                     0.14841   1.68601  -0.78298 
 O                    -0.23689  -1.33107  -1.48473 
 O                     2.59206  -0.4363   -0.08284 
 Si                   -1.79634  -1.74883  -1.78201 
 Si                   -1.04901   2.76526  -1.07483 
 Si                   -1.79426  -0.48676   2.09173 
 Si                    4.21631  -0.26105   0.01252 
 O                     4.95566  -0.09972  -1.45475 
 O                     4.89877  -1.60704   0.69775 
 O                     4.44778   1.12944   0.86985 
 O                    -2.40714  -2.00917   2.06338 
 O                    -2.75513   0.54715   1.19137 
 O                    -1.70887   0.07683   3.62899 
 O                    -1.92752  -2.401    -3.29071 
 O                    -2.7846   -0.45866  -1.4913 
 O                    -2.35713  -2.86751  -0.68588 
 O                    -1.94532   2.02765  -2.2936 
 O                    -0.53296   4.20308  -1.68601 
 O                    -1.93749   3.07167   0.26544 
 H                     5.33501   1.50516   0.85865 
 H                     5.3042   -0.91111  -1.84112 
 H                     4.46373  -1.97795   1.47352 
 H                    -2.47179  -2.44209   1.19316 
 H                    -2.51042   0.02852   4.16112 
 H                    -3.06977   0.16588   0.34903 
 H                    -0.43572   4.92368  -1.05312 
 H                    -2.26569   2.28914   0.75601 
 H                    -2.53154   2.61644  -2.78514 
 H                    -2.3195   -3.79068  -0.96047 
 H                    -1.17696  -2.27244  -3.88132 
 H                    -2.54635   0.39516  -1.918 
 
 The following ModRedundant input section has been read:
 A       1       5       9 F                                                   
 

 GradGradGradGradGradGradGradGradGradGradGradGradGradGradGradGradGradGrad
 Berny optimization.
 Initialization pass.
                           ----------------------------
                           !    Initial Parameters    !
                           ! (Angstroms and Degrees)  !
 --------------------------                            --------------------------
 ! Name  Definition              Value          Derivative Info.                !
 --------------------------------------------------------------------------------
 ! R1    R(1,2)                  1.9455         estimate D2E/DX2                !
 ! R2    R(1,3)                  1.9537         estimate D2E/DX2                !
 ! R3    R(1,4)                  1.9783         estimate D2E/DX2                !
 ! R4    R(1,5)                  1.9592         estimate D2E/DX2                !
 ! R5    R(2,8)                  1.6494         estimate D2E/DX2                !
 ! R6    R(3,7)                  1.6382         estimate D2E/DX2                !
 ! R7    R(4,6)                  1.6416         estimate D2E/DX2                !
 ! R8    R(5,9)                  1.6365         estimate D2E/DX2                !
 ! R9    R(6,16)                 1.6489         estimate D2E/DX2                !
 ! R10   R(6,17)                 1.651          estimate D2E/DX2                !
 ! R11   R(6,18)                 1.6636         estimate D2E/DX2                !
 ! R12   R(7,19)                 1.6831         estimate D2E/DX2                !
 ! R13   R(7,20)                 1.6453         estimate D2E/DX2                !
 ! R14   R(7,21)                 1.637          estimate D2E/DX2                !
 ! R15   R(8,13)                 1.6414         estimate D2E/DX2                !
 ! R16   R(8,14)                 1.6742         estimate D2E/DX2                !
 ! R17   R(8,15)                 1.6395         estimate D2E/DX2                !
 ! R18   R(9,10)                 1.6509         estimate D2E/DX2                !
 ! R19   R(9,11)                 1.6574         estimate D2E/DX2                !
 ! R20   R(9,12)                 1.6499         estimate D2E/DX2                !
 ! R21   R(10,23)                0.9639         estimate D2E/DX2                !
 ! R22   R(11,24)                0.9637         estimate D2E/DX2                !
 ! R23   R(12,22)                0.9636         estimate D2E/DX2                !
 ! R24   R(13,25)                0.9741         estimate D2E/DX2                !
 ! R25   R(14,27)                0.9767         estimate D2E/DX2                !
 ! R26   R(15,26)                0.9633         estimate D2E/DX2                !
 ! R27   R(16,32)                0.9637         estimate D2E/DX2                !
 ! R28   R(17,33)                0.9838         estimate D2E/DX2                !
 ! R29   R(18,31)                0.9639         estimate D2E/DX2                !
 ! R30   R(19,30)                0.9654         estimate D2E/DX2                !
 ! R31   R(20,28)                0.964          estimate D2E/DX2                !
 ! R32   R(21,29)                0.9802         estimate D2E/DX2                !
 ! A1    A(2,1,3)              106.096          estimate D2E/DX2                !
 ! A2    A(2,1,4)              103.2216         estimate D2E/DX2                !
 ! A3    A(2,1,5)              112.8089         estimate D2E/DX2                !
 ! A4    A(3,1,4)              105.0978         estimate D2E/DX2                !
 ! A5    A(3,1,5)              115.6242         estimate D2E/DX2                !
 ! A6    A(4,1,5)              112.9054         estimate D2E/DX2                !
 ! A7    A(1,2,8)              141.2477         estimate D2E/DX2                !
 ! A8    A(1,3,7)              148.2956         estimate D2E/DX2                !
 ! A9    A(1,4,6)              134.9212         estimate D2E/DX2                !
 ! A10   A(1,5,9)              164.2749         Frozen                          !
 ! A11   A(4,6,16)             109.9949         estimate D2E/DX2                !
 ! A12   A(4,6,17)             109.7481         estimate D2E/DX2                !
 ! A13   A(4,6,18)             111.8418         estimate D2E/DX2                !
 ! A14   A(16,6,17)            114.9979         estimate D2E/DX2                !
 ! A15   A(16,6,18)            108.0654         estimate D2E/DX2                !
 ! A16   A(17,6,18)            101.9872         estimate D2E/DX2                !
 ! A17   A(3,7,19)             103.2696         estimate D2E/DX2                !
 ! A18   A(3,7,20)             114.3699         estimate D2E/DX2                !
 ! A19   A(3,7,21)             111.9733         estimate D2E/DX2                !
 ! A20   A(19,7,20)            106.3206         estimate D2E/DX2                !
 ! A21   A(19,7,21)            112.6979         estimate D2E/DX2                !
 ! A22   A(20,7,21)            108.1072         estimate D2E/DX2                !
 ! A23   A(2,8,13)             111.437          estimate D2E/DX2                !
 ! A24   A(2,8,14)             107.7361         estimate D2E/DX2                !
 ! A25   A(2,8,15)             107.5758         estimate D2E/DX2                !
 ! A26   A(13,8,14)            110.4387         estimate D2E/DX2                !
 ! A27   A(13,8,15)            110.7611         estimate D2E/DX2                !
 ! A28   A(14,8,15)            108.7747         estimate D2E/DX2                !
 ! A29   A(5,9,10)             113.7768         estimate D2E/DX2                !
 ! A30   A(5,9,11)             110.2316         estimate D2E/DX2                !
 ! A31   A(5,9,12)             105.0573         estimate D2E/DX2                !
 ! A32   A(10,9,11)            105.2125         estimate D2E/DX2                !
 ! A33   A(10,9,12)            108.46           estimate D2E/DX2                !
 ! A34   A(11,9,12)            114.3199         estimate D2E/DX2                !
 ! A35   A(9,10,23)            115.8441         estimate D2E/DX2                !
 ! A36   A(9,11,24)            117.3556         estimate D2E/DX2                !
 ! A37   A(9,12,22)            116.857          estimate D2E/DX2                !
 ! A38   A(8,13,25)            116.8993         estimate D2E/DX2                !
 ! A39   A(8,14,27)            114.0563         estimate D2E/DX2                !
 ! A40   A(8,15,26)            117.2168         estimate D2E/DX2                !
 ! A41   A(6,16,32)            116.4902         estimate D2E/DX2                !
 ! A42   A(6,17,33)            117.1861         estimate D2E/DX2                !
 ! A43   A(6,18,31)            116.3077         estimate D2E/DX2                !
 ! A44   A(7,19,30)            115.1376         estimate D2E/DX2                !
 ! A45   A(7,20,28)            116.1676         estimate D2E/DX2                !
 ! A46   A(7,21,29)            116.2371         estimate D2E/DX2                !
 ! D1    D(3,1,2,8)             57.7298         estimate D2E/DX2                !
 ! D2    D(4,1,2,8)            -52.5297         estimate D2E/DX2                !
 ! D3    D(5,1,2,8)           -174.7063         estimate D2E/DX2                !
 ! D4    D(2,1,3,7)            -50.0989         estimate D2E/DX2                !
 ! D5    D(4,1,3,7)             58.8308         estimate D2E/DX2                !
 ! D6    D(5,1,3,7)           -175.9649         estimate D2E/DX2                !
 ! D7    D(2,1,4,6)             42.7686         estimate D2E/DX2                !
 ! D8    D(3,1,4,6)            -68.231          estimate D2E/DX2                !
 ! D9    D(5,1,4,6)            164.8805         estimate D2E/DX2                !
 ! D10   D(2,1,5,9)           -106.9253         estimate D2E/DX2                !
 ! D11   D(3,1,5,9)             15.4378         estimate D2E/DX2                !
 ! D12   D(4,1,5,9)            136.52           estimate D2E/DX2                !
 ! D13   D(1,2,8,13)            93.53           estimate D2E/DX2                !
 ! D14   D(1,2,8,14)           -27.766          estimate D2E/DX2                !
 ! D15   D(1,2,8,15)          -144.8801         estimate D2E/DX2                !
 ! D16   D(1,3,7,19)           -61.1009         estimate D2E/DX2                !
 ! D17   D(1,3,7,20)          -176.1749         estimate D2E/DX2                !
 ! D18   D(1,3,7,21)            60.4104         estimate D2E/DX2                !
 ! D19   D(1,4,6,16)           160.1676         estimate D2E/DX2                !
 ! D20   D(1,4,6,17)            32.6922         estimate D2E/DX2                !
 ! D21   D(1,4,6,18)           -79.7425         estimate D2E/DX2                !
 ! D22   D(1,5,9,10)           -84.478          estimate D2E/DX2                !
 ! D23   D(1,5,9,11)           157.6198         estimate D2E/DX2                !
 ! D24   D(1,5,9,12)            34.0009         estimate D2E/DX2                !
 ! D25   D(4,6,16,32)          -14.2012         estimate D2E/DX2                !
 ! D26   D(17,6,16,32)         110.297          estimate D2E/DX2                !
 ! D27   D(18,6,16,32)        -136.5537         estimate D2E/DX2                !
 ! D28   D(4,6,17,33)           51.0107         estimate D2E/DX2                !
 ! D29   D(16,6,17,33)         -73.6171         estimate D2E/DX2                !
 ! D30   D(18,6,17,33)         169.7176         estimate D2E/DX2                !
 ! D31   D(4,6,18,31)          -96.4419         estimate D2E/DX2                !
 ! D32   D(16,6,18,31)          24.7712         estimate D2E/DX2                !
 ! D33   D(17,6,18,31)         146.3494         estimate D2E/DX2                !
 ! D34   D(3,7,19,30)         -162.1841         estimate D2E/DX2                !
 ! D35   D(20,7,19,30)         -41.467          estimate D2E/DX2                !
 ! D36   D(21,7,19,30)          76.795          estimate D2E/DX2                !
 ! D37   D(3,7,20,28)          -98.4265         estimate D2E/DX2                !
 ! D38   D(19,7,20,28)         148.2948         estimate D2E/DX2                !
 ! D39   D(21,7,20,28)          27.0451         estimate D2E/DX2                !
 ! D40   D(3,7,21,29)          -49.8998         estimate D2E/DX2                !
 ! D41   D(19,7,21,29)          66.0163         estimate D2E/DX2                !
 ! D42   D(20,7,21,29)        -176.7745         estimate D2E/DX2                !
 ! D43   D(2,8,13,25)          -58.4671         estimate D2E/DX2                !
 ! D44   D(14,8,13,25)          61.2412         estimate D2E/DX2                !
 ! D45   D(15,8,13,25)        -178.1885         estimate D2E/DX2                !
 ! D46   D(2,8,14,27)           80.2915         estimate D2E/DX2                !
 ! D47   D(13,8,14,27)         -41.6252         estimate D2E/DX2                !
 ! D48   D(15,8,14,27)        -163.3762         estimate D2E/DX2                !
 ! D49   D(2,8,15,26)         -174.1993         estimate D2E/DX2                !
 ! D50   D(13,8,15,26)         -52.1888         estimate D2E/DX2                !
 ! D51   D(14,8,15,26)          69.3656         estimate D2E/DX2                !
 ! D52   D(5,9,10,23)          -94.8502         estimate D2E/DX2                !
 ! D53   D(11,9,10,23)          25.9079         estimate D2E/DX2                !
 ! D54   D(12,9,10,23)         148.64           estimate D2E/DX2                !
 ! D55   D(5,9,11,24)          -43.8205         estimate D2E/DX2                !
 ! D56   D(10,9,11,24)        -166.8799         estimate D2E/DX2                !
 ! D57   D(12,9,11,24)          74.2393         estimate D2E/DX2                !
 ! D58   D(5,9,12,22)         -166.4771         estimate D2E/DX2                !
 ! D59   D(10,9,12,22)         -44.4742         estimate D2E/DX2                !
 ! D60   D(11,9,12,22)          72.5545         estimate D2E/DX2                !
 --------------------------------------------------------------------------------
 Trust Radius=3.00D-01 FncErr=1.00D-07 GrdErr=1.00D-06 EigMax=2.50D+02 EigMin=1.00D-04
 Number of steps in this run=    148 maximum allowed number of steps=    198.
 GradGradGradGradGradGradGradGradGradGradGradGradGradGradGradGradGradGrad

                          Input orientation:                          
 ---------------------------------------------------------------------
 Center     Atomic      Atomic             Coordinates (Angstroms)
 Number     Number       Type             X           Y           Z
 ---------------------------------------------------------------------
      1         40           0        0.664680   -0.110680   -0.215350
      2          8           0       -0.272260   -0.437750    1.458020
      3          8           0        0.148410    1.686010   -0.782980
      4          8           0       -0.236890   -1.331070   -1.484730
      5          8           0        2.592060   -0.436300   -0.082840
      6         14           0       -1.796340   -1.748830   -1.782010
      7         14           0       -1.049010    2.765260   -1.074830
      8         14           0       -1.794260   -0.486760    2.091730
      9         14           0        4.216310   -0.261050    0.012520
     10          8           0        4.955660   -0.099720   -1.454750
     11          8           0        4.898770   -1.607040    0.697750
     12          8           0        4.447780    1.129440    0.869850
     13          8           0       -2.407140   -2.009170    2.063380
     14          8           0       -2.755130    0.547150    1.191370
     15          8           0       -1.708870    0.076830    3.628990
     16          8           0       -1.927520   -2.401000   -3.290710
     17          8           0       -2.784600   -0.458660   -1.491300
     18          8           0       -2.357130   -2.867510   -0.685880
     19          8           0       -1.945320    2.027650   -2.293600
     20          8           0       -0.532960    4.203080   -1.686010
     21          8           0       -1.937490    3.071670    0.265440
     22          1           0        5.335010    1.505160    0.858650
     23          1           0        5.304200   -0.911110   -1.841120
     24          1           0        4.463730   -1.977950    1.473520
     25          1           0       -2.471790   -2.442090    1.193160
     26          1           0       -2.510420    0.028520    4.161120
     27          1           0       -3.069770    0.165880    0.349030
     28          1           0       -0.435720    4.923680   -1.053120
     29          1           0       -2.265690    2.289140    0.756010
     30          1           0       -2.531540    2.616440   -2.785140
     31          1           0       -2.319500   -3.790680   -0.960470
     32          1           0       -1.176960   -2.272440   -3.881320
     33          1           0       -2.546350    0.395160   -1.918000
 ---------------------------------------------------------------------
                    Distance matrix (angstroms):
                    1          2          3          4          5
     1  Zr   0.000000
     2  O    1.945507   0.000000
     3  O    1.953672   3.115991   0.000000
     4  O    1.978258   3.075557   3.121487   0.000000
     5  O    1.959179   3.252473   3.311468   3.281595   0.000000
     6  Si   3.345830   3.813076   4.071638   1.641579   4.885485
     7  Si   3.456367   4.156674   1.638222   4.196126   4.948881
     8  Si   3.392704   1.649386   4.093758   3.991156   4.896029
     9  Si   3.562108   4.718893   4.579484   4.818474   1.636458
    10  O    4.466401   5.994134   5.172017   5.336637   2.753548
    11  O    4.582615   5.355819   5.966796   5.586983   2.702011
    12  O    4.126427   5.008074   4.639634   5.791743   2.608229
    13  O    4.270006   2.719105   5.318548   4.214130   5.663231
    14  O    3.755889   2.684357   3.691288   4.126833   5.584194
    15  O    4.521930   2.653630   5.050191   5.504456   5.704295
    16  O    4.628488   5.398581   5.225117   2.695282   5.880228
    17  O    3.694140   3.874375   3.701874   2.692948   5.558123
    18  O    4.117383   3.853145   5.198240   2.737559   5.546974
    19  O    3.962787   4.790822   2.604303   3.854089   5.616612
    20  O    4.712293   5.611612   2.759596   5.545718   5.818913
    21  O    4.138816   4.063406   2.714814   5.033811   5.739684
    22  H    5.057311   5.964530   5.443205   6.676953   3.489906
    23  H    4.980860   6.496561   5.869145   5.568398   3.266909
    24  H    4.557605   4.980166   6.094127   5.591558   2.881335
    25  H    4.154133   2.987551   5.273688   3.660634   5.594099
    26  H    5.408708   3.540271   5.853270   6.236429   6.653011
    27  H    3.786968   3.069249   3.734826   3.691713   5.710118
    28  H    5.220873   5.922624   3.301014   6.272776   6.232037
    29  H    3.910210   3.450001   2.925771   4.716234   5.632888
    30  H    4.925122   5.695334   3.472244   4.747559   6.547742
    31  H    4.796137   4.613288   6.009677   3.265240   6.012115
    32  H    4.637260   5.717790   5.198619   2.741086   5.657329
    33  H    3.669551   4.154845   3.196294   2.915681   5.519275
                    6          7          8          9         10
     6  Si   0.000000
     7  Si   4.629861   0.000000
     8  Si   4.074149   4.599797   0.000000
     9  Si   6.448704   6.169642   6.364040   0.000000
    10  O    6.958173   6.663971   7.634706   1.650923   0.000000
    11  O    7.140995   7.591781   6.927832   1.657402   2.628404
    12  O    7.369249   6.055773   6.562633   1.649865   2.678160
    13  O    3.902291   5.872654   1.641389   7.150667   8.380576
    14  O    3.877085   3.600905   1.674183   7.116449   8.177816
    15  O    5.711358   5.457929   1.639541   6.949876   8.384005
    16  O    1.648851   5.689653   5.714257   7.296394   7.486308
    17  O    1.650972   3.685021   3.717481   7.163328   7.748664
    18  O    1.663560   5.795736   3.701339   7.105738   7.856763
    19  O    3.813885   1.683104   5.057291   6.965775   7.270000
    20  O    6.085275   1.645349   6.152788   6.735653   6.978002
    21  O    5.239198   1.636951   4.002284   7.002874   7.780250
    22  H    8.271499   6.788366   7.504314   2.255421   2.841015
    23  H    7.150031   7.380120   8.126224   2.245454   0.963906
    24  H    7.059706   7.706000   6.462838   2.267925   3.513475
    25  H    3.128654   5.855303   2.256056   7.133129   8.225882
    26  H    6.244171   6.086102   2.249616   7.908453   9.343275
    27  H    3.135135   3.587147   2.256074   7.306331   8.229927
    28  H    6.848719   2.243964   6.403794   7.046871   7.379894
    29  H    4.792394   2.249217   3.116411   7.005182   7.920985
    30  H    4.538983   2.268304   5.827289   7.851136   8.075000
    31  H    2.262250   6.678890   4.528542   7.491449   8.172848
    32  H    2.250534   5.768117   6.264746   6.949463   6.943917
    33  H    2.275456   2.927514   4.173890   7.063362   7.532573
                   11         12         13         14         15
    11  O    0.000000
    12  O    2.778729   0.000000
    13  O    7.443317   7.633172   0.000000
    14  O    7.966579   7.233557   2.723283   0.000000
    15  O    7.422162   6.828263   2.700021   2.694040   0.000000
    16  O    7.945843   8.391586   5.389791   5.428220   7.353210
    17  O    8.071239   7.772027   3.896448   2.865177   5.259402
    18  O    7.493417   8.043799   2.880569   3.916934   5.263790
    19  O    8.306667   7.189292   5.957556   3.872039   6.240087
    20  O    8.303222   6.386506   7.494166   5.155888   6.830661
    21  O    8.295280   6.701436   5.409999   2.810531   4.509413
    22  H    3.146742   0.963570   8.587361   8.153456   7.702672
    23  H    2.663560   3.499523   8.712957   8.733574   8.948814
    24  H    0.963666   3.165524   6.896214   7.652952   6.853405
    25  H    7.434238   7.793639   0.974106   3.002639   3.586122
    26  H    8.340629   7.775669   2.926322   3.024612   0.963316
    27  H    8.170831   7.596924   2.847616   0.976679   3.552199
    28  H    8.612354   6.476314   7.852610   5.437960   6.858208
    29  H    8.155556   6.813849   4.494963   1.861080   3.668566
    30  H    9.229183   8.017545   6.702230   4.488272   6.947479
    31  H    7.721489   8.564679   3.510716   4.861785   6.032715
    32  H    7.637089   8.110740   6.076357   6.014390   7.887126
    33  H    8.141300   7.564994   4.653125   3.120076   5.618879
                   16         17         18         19         20
    16  O    0.000000
    17  O    2.783010   0.000000
    18  O    2.680921   2.575653   0.000000
    19  O    4.539547   2.744051   5.168843   0.000000
    20  O    6.937848   5.180696   7.370285   2.663911   0.000000
    21  O    6.526593   4.033232   6.029508   2.763824   2.657245
    22  H    9.231447   8.677956   8.981917   7.950653   6.941696
    23  H    7.524550   8.108993   7.991124   7.835598   7.762180
    24  H    7.982790   7.977261   7.209609   8.444640   8.553050
    25  H    4.516969   3.352338   1.930005   5.693263   7.497131
    26  H    7.859524   5.679997   5.648353   6.780802   7.451592
    27  H    4.597969   1.964227   3.283344   3.422582   5.184185
    28  H    7.802770   5.888873   8.033015   3.493519   0.963986
    29  H    6.203847   3.587489   5.355226   3.077521   3.553728
    30  H    5.078892   3.345789   5.874608   0.965370   2.778459
    31  H    2.741328   3.405944   0.963877   5.980820   8.223037
    32  H    0.963685   3.403895   3.457997   4.647796   6.867786
    33  H    3.175814   0.983791   3.492698   1.779701   4.313677
                   21         22         23         24         25
    21  O    0.000000
    22  H    7.462916   0.000000
    23  H    8.528904   3.623268   0.000000
    24  H    8.242192   3.642698   3.582091   0.000000
    25  H    5.616733   8.754359   8.486270   6.956685   0.000000
    26  H    4.976478   8.639302   9.898388   7.738726   3.861890
    27  H    3.119721   8.526061   8.722387   7.912908   2.805645
    28  H    2.724675   6.974415   8.222676   8.832951   7.965295
    29  H    0.980167   7.641714   8.619160   8.000498   4.755851
    30  H    3.141046   8.740409   8.644860   9.390336   6.435772
    31  H    6.981449   9.484020   8.196845   7.431185   2.545586
    32  H    6.806874   8.896254   6.929724   7.783214   5.239820
    33  H    3.507396   8.429574   7.958856   8.140963   4.211278
                   26         27         28         29         30
    26  H    0.000000
    27  H    3.855356   0.000000
    28  H    7.446830   5.616129   0.000000
    29  H    4.094517   2.306601   3.682736   0.000000
    30  H    7.412712   4.014718   3.565910   3.566167   0.000000
    31  H    6.391668   4.234627   8.916125   6.317706   6.665251
    32  H    8.470736   5.236792   7.767387   6.595315   5.190149
    33  H    6.090272   2.337940   5.070530   3.288808   2.384583
                   31         32         33
    31  H    0.000000
    32  H    3.484511   0.000000
    33  H    4.299951   3.584124   0.000000
 Stoichiometry    H12O16Si4Zr
 Framework group  C1[X(H12O16Si4Zr)]
 Deg. of freedom    93
 Full point group                 C1      NOp   1
 Largest Abelian subgroup         C1      NOp   1
 Largest concise Abelian subgroup C1      NOp   1
                         Standard orientation:                         
 ---------------------------------------------------------------------
 Center     Atomic      Atomic             Coordinates (Angstroms)
 Number     Number       Type             X           Y           Z
 ---------------------------------------------------------------------
      1         40           0        0.657692   -0.126010   -0.069583
      2          8           0       -0.225110   -0.897815    1.482827
      3          8           0        0.104725    1.746741   -0.131774
      4          8           0       -0.267787   -0.987340   -1.591130
      5          8           0        2.591675   -0.439107   -0.077265
      6         14           0       -1.830681   -1.341426   -1.947172
      7         14           0       -1.112818    2.842309   -0.098753
      8         14           0       -1.726847   -1.139571    2.120648
      9         14           0        4.215999   -0.264845    0.018639
     10          8           0        4.909317    0.289330   -1.373391
     11          8           0        4.933572   -1.730501    0.308335
     12          8           0        4.457508    0.856206    1.204799
     13          8           0       -2.323324   -2.612382    1.709309
     14          8           0       -2.725646    0.076226    1.548696
     15          8           0       -1.601818   -0.997353    3.749217
     16          8           0       -1.999638   -1.577447   -3.570273
     17          8           0       -2.824103   -0.191242   -1.302270
     18          8           0       -2.345972   -2.718627   -1.169211
     19          8           0       -2.036898    2.433602   -1.444812
     20          8           0       -0.631298    4.399418   -0.323974
     21          8           0       -1.964190    2.769954    1.297505
     22          1           0        5.339772    1.238134    1.269684
     23          1           0        5.255158   -0.385718   -1.968219
     24          1           0        4.526070   -2.299887    0.970448
     25          1           0       -2.409137   -2.803066    0.757911
     26          1           0       -2.386516   -1.198407    4.270566
     27          1           0       -3.061064   -0.076583    0.644237
     28          1           0       -0.523207    4.930506    0.473228
     29          1           0       -2.268852    1.880203    1.573645
     30          1           0       -2.644064    3.119688   -1.749071
     31          1           0       -2.306298   -3.536614   -1.677523
     32          1           0       -1.268545   -1.284579   -4.125629
     33          1           0       -2.608230    0.748870   -1.495747
 ---------------------------------------------------------------------
 Rotational constants (GHZ):           0.2123829           0.1338047           0.1241082
 General basis read from cards:  (5D, 7F)
 ======================================================================================================
                                       Pseudopotential Parameters
 ======================================================================================================
  Center     Atomic      Valence      Angular      Power
  Number     Number     Electrons     Momentum     of R      Exponent        Coefficient   SO-Coeffient
 ======================================================================================================
    1         40           12
                                      G and up 
                                                     2        1.0000000        0.00000000    0.00000000
                                      S - G
                                                     2        8.6365280      150.24299400    0.00000000
                                                     2        3.7176390       18.78003600    0.00000000
                                      P - G
                                                     2        7.6267280       33.19279100    0.00000000
                                                     2        7.4532070       66.38903900    0.00000000
                                                     2        3.3583890        4.62072600    0.00000000
                                                     2        3.2297380        9.26027000    0.00000000
                                      D - G
                                                     2        5.9380860       13.99338300    0.00000000
                                                     2        5.8255440       20.99588200    0.00000000
                                                     2        2.2050190        2.28516600    0.00000000
                                                     2        2.2062920        3.44126000    0.00000000
                                      F - G
                                                     2        4.8002150       -5.23932000    0.00000000
                                                     2        4.7989920       -6.98742400    0.00000000
    2          8
                                   No pseudopotential on this center.
    3          8
                                   No pseudopotential on this center.
    4          8
                                   No pseudopotential on this center.
    5          8
                                   No pseudopotential on this center.
    6         14
                                   No pseudopotential on this center.
    7         14
                                   No pseudopotential on this center.
    8         14
                                   No pseudopotential on this center.
    9         14
                                   No pseudopotential on this center.
   10          8
                                   No pseudopotential on this center.
   11          8
                                   No pseudopotential on this center.
   12          8
                                   No pseudopotential on this center.
   13          8
                                   No pseudopotential on this center.
   14          8
                                   No pseudopotential on this center.
   15          8
                                   No pseudopotential on this center.
   16          8
                                   No pseudopotential on this center.
   17          8
                                   No pseudopotential on this center.
   18          8
                                   No pseudopotential on this center.
   19          8
                                   No pseudopotential on this center.
   20          8
                                   No pseudopotential on this center.
   21          8
                                   No pseudopotential on this center.
   22          1
                                   No pseudopotential on this center.
   23          1
                                   No pseudopotential on this center.
   24          1
                                   No pseudopotential on this center.
   25          1
                                   No pseudopotential on this center.
   26          1
                                   No pseudopotential on this center.
   27          1
                                   No pseudopotential on this center.
   28          1
                                   No pseudopotential on this center.
   29          1
                                   No pseudopotential on this center.
   30          1
                                   No pseudopotential on this center.
   31          1
                                   No pseudopotential on this center.
   32          1
                                   No pseudopotential on this center.
   33          1
                                   No pseudopotential on this center.
 ======================================================================================================
 There are   570 symmetry adapted cartesian basis functions of A   symmetry.
 There are   524 symmetry adapted basis functions of A   symmetry.
   524 basis functions,  1074 primitive gaussians,   570 cartesian basis functions
   104 alpha electrons      104 beta electrons
       nuclear repulsion energy      2832.6852530092 Hartrees.
 NAtoms=   33 NActive=   33 NUniq=   33 SFac= 1.00D+00 NAtFMM=   60 NAOKFM=F Big=F
 Integral buffers will be    131072 words long.
 Raffenetti 2 integral format.
 Two-electron integral symmetry is turned on.
 Nuclear repulsion after empirical dispersion term =     2832.6444703778 Hartrees.
 One-electron integrals computed using PRISM.
 PrsmSu:  requested number of processors reduced to:   4 ShMem   1 Linda.
   1 Symmetry operations used in ECPInt.
 ECPInt:  NShTT=   13203 NPrTT=   78401 LenC2=   11526 LenP2D=   44634.
 LDataN:  DoStor=T MaxTD1= 8 Len=  415
 Number of processors reduced to  13 by ecpmxn.
 NBasis=   524 RedAO= T EigKep=  3.19D-05  NBF=   524
 NBsUse=   524 1.00D-06 EigRej= -1.00D+00 NBFU=   524
 Defaulting to unpruned grid for atomic number  40.
 ExpMin= 1.01D-02 ExpMax= 1.61D+04 ExpMxC= 2.43D+03 IAcc=3 IRadAn=         5 AccDes= 0.00D+00
 Harris functional with IExCor=  402 and IRadAn=       5 diagonalized for initial guess.
 HarFok:  IExCor=  402 AccDes= 0.00D+00 IRadAn=         5 IDoV= 1 UseB2=F ITyADJ=14
 ICtDFT=  3500011 ScaDFX=  1.000000  1.000000  1.000000  1.000000
 Defaulting to unpruned grid for atomic number  40.
 FoFCou: FMM=F IPFlag=           0 FMFlag=      100000 FMFlg1=           0
         NFxFlg=           0 DoJE=T BraDBF=F KetDBF=T FulRan=T
         wScrn=  0.000000 ICntrl=       500 IOpCl=  0 I1Cent=   200000004 NGrid=           0
         NMat0=    1 NMatS0=      1 NMatT0=    0 NMatD0=    1 NMtDS0=    0 NMtDT0=    0
 Petite list used in FoFCou.
 Requested convergence on RMS density matrix=1.00D-08 within 128 cycles.
 Requested convergence on MAX density matrix=1.00D-06.
 Requested convergence on             energy=1.00D-06.
 No special actions if energy rises.
 Defaulting to unpruned grid for atomic number  40.
 Defaulting to unpruned grid for atomic number  40.
 Defaulting to unpruned grid for atomic number  40.
 Defaulting to unpruned grid for atomic number  40.
 Defaulting to unpruned grid for atomic number  40.
 Defaulting to unpruned grid for atomic number  40.
 Defaulting to unpruned grid for atomic number  40.
 Defaulting to unpruned grid for atomic number  40.
 Defaulting to unpruned grid for atomic number  40.
 Defaulting to unpruned grid for atomic number  40.
 Defaulting to unpruned grid for atomic number  40.
 Defaulting to unpruned grid for atomic number  40.
 Defaulting to unpruned grid for atomic number  40.
 Defaulting to unpruned grid for atomic number  40.
 Defaulting to unpruned grid for atomic number  40.
 Defaulting to unpruned grid for atomic number  40.
 SCF Done:  E(RB3LYP) =  -2416.94675985     A.U. after   14 cycles
            NFock= 14  Conv=0.26D-08     -V/T= 2.0185

 **********************************************************************

            Population analysis using the SCF Density.

 **********************************************************************

 Orbital symmetries:
       Occupied  (A) (A) (A) (A) (A) (A) (A) (A) (A) (A) (A) (A)
                 (A) (A) (A) (A) (A) (A) (A) (A) (A) (A) (A) (A)
                 (A) (A) (A) (A) (A) (A) (A) (A) (A) (A) (A) (A)
                 (A) (A) (A) (A) (A) (A) (A) (A) (A) (A) (A) (A)
                 (A) (A) (A) (A) (A) (A) (A) (A) (A) (A) (A) (A)
                 (A) (A) (A) (A) (A) (A) (A) (A) (A) (A) (A) (A)
                 (A) (A) (A) (A) (A) (A) (A) (A) (A) (A) (A) (A)
                 (A) (A) (A) (A) (A) (A) (A) (A) (A) (A) (A) (A)
                 (A) (A) (A) (A) (A) (A) (A) (A)
       Virtual   (A) (A) (A) (A) (A) (A) (A) (A) (A) (A) (A) (A)
                 (A) (A) (A) (A) (A) (A) (A) (A) (A) (A) (A) (A)
                 (A) (A) (A) (A) (A) (A) (A) (A) (A) (A) (A) (A)
                 (A) (A) (A) (A) (A) (A) (A) (A) (A) (A) (A) (A)
                 (A) (A) (A) (A) (A) (A) (A) (A) (A) (A) (A) (A)
                 (A) (A) (A) (A) (A) (A) (A) (A) (A) (A) (A) (A)
                 (A) (A) (A) (A) (A) (A) (A) (A) (A) (A) (A) (A)
                 (A) (A) (A) (A) (A) (A) (A) (A) (A) (A) (A) (A)
                 (A) (A) (A) (A) (A) (A) (A) (A) (A) (A) (A) (A)
                 (A) (A) (A) (A) (A) (A) (A) (A) (A) (A) (A) (A)
                 (A) (A) (A) (A) (A) (A) (A) (A) (A) (A) (A) (A)
                 (A) (A) (A) (A) (A) (A) (A) (A) (A) (A) (A) (A)
                 (A) (A) (A) (A) (A) (A) (A) (A) (A) (A) (A) (A)
                 (A) (A) (A) (A) (A) (A) (A) (A) (A) (A) (A) (A)
                 (A) (A) (A) (A) (A) (A) (A) (A) (A) (A) (A) (A)
                 (A) (A) (A) (A) (A) (A) (A) (A) (A) (A) (A) (A)
                 (A) (A) (A) (A) (A) (A) (A) (A) (A) (A) (A) (A)
                 (A) (A) (A) (A) (A) (A) (A) (A) (A) (A) (A) (A)
                 (A) (A) (A) (A) (A) (A) (A) (A) (A) (A) (A) (A)
                 (A) (A) (A) (A) (A) (A) (A) (A) (A) (A) (A) (A)
                 (A) (A) (A) (A) (A) (A) (A) (A) (A) (A) (A) (A)
                 (A) (A) (A) (A) (A) (A) (A) (A) (A) (A) (A) (A)
                 (A) (A) (A) (A) (A) (A) (A) (A) (A) (A) (A) (A)
                 (A) (A) (A) (A) (A) (A) (A) (A) (A) (A) (A) (A)
                 (A) (A) (A) (A) (A) (A) (A) (A) (A) (A) (A) (A)
                 (A) (A) (A) (A) (A) (A) (A) (A) (A) (A) (A) (A)
                 (A) (A) (A) (A) (A) (A) (A) (A) (A) (A) (A) (A)
                 (A) (A) (A) (A) (A) (A) (A) (A) (A) (A) (A) (A)
                 (A) (A) (A) (A) (A) (A) (A) (A) (A) (A) (A) (A)
                 (A) (A) (A) (A) (A) (A) (A) (A) (A) (A) (A) (A)
                 (A) (A) (A) (A) (A) (A) (A) (A) (A) (A) (A) (A)
                 (A) (A) (A) (A) (A) (A) (A) (A) (A) (A) (A) (A)
                 (A) (A) (A) (A) (A) (A) (A) (A) (A) (A) (A) (A)
                 (A) (A) (A) (A) (A) (A) (A) (A) (A) (A) (A) (A)
                 (A) (A) (A) (A) (A) (A) (A) (A) (A) (A) (A) (A)
 The electronic state is 1-A.
 Alpha  occ. eigenvalues --  -66.22821 -66.21759 -66.21494 -66.20997 -19.18602
 Alpha  occ. eigenvalues --  -19.18358 -19.17814 -19.17034 -19.16740 -19.16563
 Alpha  occ. eigenvalues --  -19.16459 -19.16195 -19.16158 -19.16027 -19.15936
 Alpha  occ. eigenvalues --  -19.15510 -19.15330 -19.15207 -19.14885 -19.14683
 Alpha  occ. eigenvalues --   -5.36881  -5.35839  -5.35569  -5.35056  -3.72865
 Alpha  occ. eigenvalues --   -3.72838  -3.72791  -3.71831  -3.71784  -3.71748
 Alpha  occ. eigenvalues --   -3.71538  -3.71530  -3.71489  -3.71021  -3.71013
 Alpha  occ. eigenvalues --   -3.70987  -2.13357  -1.29600  -1.29516  -1.29357
 Alpha  occ. eigenvalues --   -1.05695  -1.04782  -1.04160  -1.03460  -1.02584
 Alpha  occ. eigenvalues --   -1.02178  -1.01474  -1.00920  -1.00775  -1.00632
 Alpha  occ. eigenvalues --   -0.99812  -0.99285  -0.97375  -0.96291  -0.95721
 Alpha  occ. eigenvalues --   -0.95371  -0.61005  -0.59164  -0.58980  -0.58449
 Alpha  occ. eigenvalues --   -0.55560  -0.54537  -0.53876  -0.53032  -0.52994
 Alpha  occ. eigenvalues --   -0.52471  -0.52111  -0.51711  -0.48794  -0.47600
 Alpha  occ. eigenvalues --   -0.47208  -0.46677  -0.43381  -0.42632  -0.41872
 Alpha  occ. eigenvalues --   -0.41416  -0.41092  -0.40531  -0.39847  -0.39294
 Alpha  occ. eigenvalues --   -0.38846  -0.38695  -0.38629  -0.38132  -0.37991
 Alpha  occ. eigenvalues --   -0.37614  -0.37519  -0.37132  -0.36477  -0.36437
 Alpha  occ. eigenvalues --   -0.36145  -0.35670  -0.35419  -0.35062  -0.34924
 Alpha  occ. eigenvalues --   -0.34603  -0.33974  -0.33698  -0.33427  -0.33298
 Alpha  occ. eigenvalues --   -0.32770  -0.32188  -0.32042  -0.31282
 Alpha virt. eigenvalues --   -0.04346  -0.03148  -0.03017  -0.02766  -0.02103
 Alpha virt. eigenvalues --   -0.01163  -0.00580  -0.00188   0.00132   0.00324
 Alpha virt. eigenvalues --    0.00768   0.00940   0.01033   0.01942   0.02331
 Alpha virt. eigenvalues --    0.03184   0.03352   0.03790   0.03922   0.04070
 Alpha virt. eigenvalues --    0.04197   0.04895   0.05591   0.05837   0.06128
 Alpha virt. eigenvalues --    0.06487   0.07130   0.07380   0.07723   0.08652
 Alpha virt. eigenvalues --    0.08757   0.08980   0.09203   0.09682   0.10020
 Alpha virt. eigenvalues --    0.10439   0.10615   0.10773   0.11129   0.11736
 Alpha virt. eigenvalues --    0.11853   0.12520   0.13252   0.13330   0.13928
 Alpha virt. eigenvalues --    0.14066   0.14255   0.14845   0.15241   0.15440
 Alpha virt. eigenvalues --    0.15508   0.15766   0.16191   0.16754   0.16860
 Alpha virt. eigenvalues --    0.17403   0.17484   0.17629   0.17968   0.18273
 Alpha virt. eigenvalues --    0.18492   0.18932   0.19133   0.19501   0.19744
 Alpha virt. eigenvalues --    0.20059   0.20530   0.20619   0.21033   0.21378
 Alpha virt. eigenvalues --    0.21684   0.21716   0.22179   0.22589   0.22867
 Alpha virt. eigenvalues --    0.23361   0.23867   0.23993   0.24163   0.24561
 Alpha virt. eigenvalues --    0.25148   0.25285   0.25517   0.25758   0.26135
 Alpha virt. eigenvalues --    0.26389   0.26727   0.26903   0.27242   0.27377
 Alpha virt. eigenvalues --    0.27927   0.28042   0.28404   0.28811   0.29012
 Alpha virt. eigenvalues --    0.29468   0.29597   0.29821   0.30380   0.30585
 Alpha virt. eigenvalues --    0.30922   0.31237   0.31347   0.31623   0.32246
 Alpha virt. eigenvalues --    0.32507   0.32878   0.33290   0.33464   0.34055
 Alpha virt. eigenvalues --    0.34141   0.34935   0.35341   0.35776   0.36313
 Alpha virt. eigenvalues --    0.36856   0.37651   0.37936   0.38325   0.39050
 Alpha virt. eigenvalues --    0.39177   0.39745   0.40271   0.41148   0.41599
 Alpha virt. eigenvalues --    0.42225   0.43362   0.43761   0.44460   0.44540
 Alpha virt. eigenvalues --    0.45186   0.45972   0.46272   0.46954   0.47403
 Alpha virt. eigenvalues --    0.47744   0.48345   0.49130   0.49393   0.49559
 Alpha virt. eigenvalues --    0.49805   0.50500   0.51125   0.51385   0.53237
 Alpha virt. eigenvalues --    0.53981   0.54558   0.55157   0.57028   0.57283
 Alpha virt. eigenvalues --    0.58244   0.58908   0.59312   0.59663   0.60242
 Alpha virt. eigenvalues --    0.61396   0.61692   0.62025   0.63839   0.65949
 Alpha virt. eigenvalues --    0.66579   0.67631   0.68191   0.69244   0.69539
 Alpha virt. eigenvalues --    0.70389   0.70762   0.72772   0.74322   0.75090
 Alpha virt. eigenvalues --    0.75554   0.77631   0.78667   0.79021   0.80533
 Alpha virt. eigenvalues --    0.81037   0.81382   0.82642   0.84177   0.85560
 Alpha virt. eigenvalues --    0.86966   0.87679   0.89782   0.90697   0.91122
 Alpha virt. eigenvalues --    0.94098   0.95670   0.96433   0.96912   0.97528
 Alpha virt. eigenvalues --    0.98223   0.98934   0.99349   0.99827   0.99921
 Alpha virt. eigenvalues --    1.00671   1.01428   1.01800   1.03187   1.03947
 Alpha virt. eigenvalues --    1.04243   1.05516   1.06195   1.06734   1.07806
 Alpha virt. eigenvalues --    1.09740   1.12327   1.15219   1.16166   1.16452
 Alpha virt. eigenvalues --    1.18821   1.19065   1.20114   1.20573   1.20940
 Alpha virt. eigenvalues --    1.21527   1.21724   1.22141   1.22582   1.22954
 Alpha virt. eigenvalues --    1.23511   1.24077   1.24115   1.25266   1.25688
 Alpha virt. eigenvalues --    1.25885   1.27106   1.27578   1.28050   1.28513
 Alpha virt. eigenvalues --    1.28965   1.29747   1.30230   1.31131   1.31326
 Alpha virt. eigenvalues --    1.32289   1.32627   1.32957   1.33521   1.34440
 Alpha virt. eigenvalues --    1.35088   1.36229   1.36442   1.36898   1.37830
 Alpha virt. eigenvalues --    1.39084   1.39752   1.40142   1.41329   1.41659
 Alpha virt. eigenvalues --    1.42699   1.43370   1.44126   1.44801   1.46404
 Alpha virt. eigenvalues --    1.47204   1.49087   1.51271   1.51809   1.52951
 Alpha virt. eigenvalues --    1.56747   1.57622   1.58313   1.59363   1.59521
 Alpha virt. eigenvalues --    1.60059   1.61051   1.61979   1.62548   1.62853
 Alpha virt. eigenvalues --    1.63345   1.63754   1.64992   1.65420   1.66336
 Alpha virt. eigenvalues --    1.67673   1.68296   1.69208   1.69329   1.69963
 Alpha virt. eigenvalues --    1.71272   1.71615   1.71881   1.72752   1.72962
 Alpha virt. eigenvalues --    1.74057   1.75014   1.75652   1.76075   1.76366
 Alpha virt. eigenvalues --    1.76990   1.77287   1.78495   1.78992   1.79811
 Alpha virt. eigenvalues --    1.80467   1.81329   1.82094   1.82588   1.83101
 Alpha virt. eigenvalues --    1.83407   1.84836   1.85014   1.85800   1.86596
 Alpha virt. eigenvalues --    1.87383   1.88095   1.88853   1.89580   1.90481
 Alpha virt. eigenvalues --    1.90925   1.91656   1.92571   1.92603   1.93938
 Alpha virt. eigenvalues --    1.94425   1.95245   1.95994   1.97130   1.98401
 Alpha virt. eigenvalues --    1.98613   2.00273   2.01070   2.02583   2.03783
 Alpha virt. eigenvalues --    2.05769   2.06518   2.07490   2.09927   2.10436
 Alpha virt. eigenvalues --    2.11505   2.12959   2.14529   2.16121   2.16470
 Alpha virt. eigenvalues --    2.17574   2.18842   2.19359   2.20866   2.26812
 Alpha virt. eigenvalues --    2.32542   2.33405   2.35368   2.39453   2.40412
 Alpha virt. eigenvalues --    2.41099   2.41476   2.41578   2.42812   2.43762
 Alpha virt. eigenvalues --    2.43967   2.45496   2.46686   2.47520   2.49089
 Alpha virt. eigenvalues --    2.50205   2.50322   2.51657   2.52643   2.53267
 Alpha virt. eigenvalues --    2.55482   2.58402   2.59137   2.60050   2.60677
 Alpha virt. eigenvalues --    2.61099   2.61732   2.62124   2.62500   2.62786
 Alpha virt. eigenvalues --    2.63170   2.64055   2.64729   2.65011   2.65945
 Alpha virt. eigenvalues --    2.66241   2.66759   2.67321   2.67561   2.69369
 Alpha virt. eigenvalues --    2.69941   2.70303   2.71220   2.71647   2.72375
 Alpha virt. eigenvalues --    2.72963   2.74354   2.75547   2.76798   2.77481
 Alpha virt. eigenvalues --    2.78957   2.80641   2.81410   2.82442   2.83458
 Alpha virt. eigenvalues --    2.83879   2.84705   2.86718   2.87786   2.88142
 Alpha virt. eigenvalues --    3.14974   3.20875   3.35992   3.41123   3.46689
 Alpha virt. eigenvalues --    3.47793   3.48395   3.48632   3.51050   3.51102
 Alpha virt. eigenvalues --    3.52906   3.53610   3.60310   3.61066   3.62078
 Alpha virt. eigenvalues --    3.66183   4.35931   4.61611   7.97159  31.29335
          Condensed to atoms (all electrons):
               1          2          3          4          5          6
     1  Zr  15.090059  -0.092426  -0.004402  -0.123951  -0.200256  -0.650396
     2  O   -0.092426   9.042681   0.019977  -0.040766  -0.059004   0.077707
     3  O   -0.004402   0.019977   8.823034   0.017823  -0.046860  -0.000746
     4  O   -0.123951  -0.040766   0.017823   8.818957  -0.059671  -0.687355
     5  O   -0.200256  -0.059004  -0.046860  -0.059671   9.418996  -0.010257
     6  Si  -0.650396   0.077707  -0.000746  -0.687355  -0.010257  14.055354
     7  Si  -0.605746  -0.029153  -0.864854  -0.010663  -0.034598   0.081163
     8  Si  -0.669431  -0.988153  -0.018421   0.066108  -0.016627   0.010577
     9  Si  -0.282103  -0.039396  -0.025301  -0.031864  -1.175741   0.039025
    10  O   -0.013580   0.000988  -0.001264   0.000420   0.120911  -0.002184
    11  O   -0.082475   0.003019   0.003195   0.001810   0.324667  -0.000019
    12  O    0.051808   0.000632   0.004296   0.001862   0.124983  -0.003198
    13  O   -0.023289   0.181093   0.001614  -0.015294  -0.000757   0.032221
    14  O   -0.004165   0.257186  -0.017486  -0.008368   0.001683   0.025143
    15  O   -0.084681   0.290778  -0.000609   0.001209   0.000662   0.000626
    16  O   -0.122830   0.004659  -0.000580   0.349275   0.003273  -0.432975
    17  O   -0.072747  -0.039734   0.009019   0.213890   0.001323  -0.452076
    18  O   -0.027447  -0.014369   0.003786   0.195958  -0.000766  -0.449031
    19  O    0.006659   0.008772   0.266542   0.010363   0.002055  -0.007968
    20  O   -0.143656  -0.000578   0.161438  -0.000757   0.001514   0.009090
    21  O    0.036736   0.010024   0.147367   0.003469   0.000189  -0.011853
    22  H   -0.009152  -0.000008   0.000018  -0.000006   0.006501   0.000086
    23  H   -0.008957  -0.000010  -0.000001  -0.000045  -0.024403   0.000143
    24  H   -0.006977  -0.000084  -0.000009   0.000009  -0.004043   0.000149
    25  H    0.016510  -0.019687  -0.000111  -0.000439   0.000018   0.003153
    26  H    0.006851   0.000926   0.000014  -0.000011  -0.000003  -0.000136
    27  H    0.000557  -0.018527   0.000758  -0.001846   0.000016   0.010180
    28  H    0.004909  -0.000011  -0.018399  -0.000013  -0.000013  -0.000264
    29  H    0.003121  -0.007005  -0.020234  -0.000135  -0.000072   0.000301
    30  H    0.000324  -0.000011   0.000091  -0.000461  -0.000008  -0.000561
    31  H    0.000189   0.000182  -0.000020  -0.018426  -0.000010   0.063627
    32  H    0.002206  -0.000024   0.000042   0.010402   0.000003   0.022743
    33  H   -0.015003   0.001034  -0.010040  -0.009611  -0.000094   0.052387
               7          8          9         10         11         12
     1  Zr  -0.605746  -0.669431  -0.282103  -0.013580  -0.082475   0.051808
     2  O   -0.029153  -0.988153  -0.039396   0.000988   0.003019   0.000632
     3  O   -0.864854  -0.018421  -0.025301  -0.001264   0.003195   0.004296
     4  O   -0.010663   0.066108  -0.031864   0.000420   0.001810   0.001862
     5  O   -0.034598  -0.016627  -1.175741   0.120911   0.324667   0.124983
     6  Si   0.081163   0.010577   0.039025  -0.002184  -0.000019  -0.003198
     7  Si  13.784213   0.185097   0.015000   0.000145  -0.001019   0.003420
     8  Si   0.185097  13.840173   0.029806  -0.001366   0.001288  -0.001646
     9  Si   0.015000   0.029806  14.105426  -0.056649  -0.186780  -0.163375
    10  O    0.000145  -0.001366  -0.056649   8.511211   0.018907   0.031475
    11  O   -0.001019   0.001288  -0.186780   0.018907   8.527669  -0.057234
    12  O    0.003420  -0.001646  -0.163375   0.031475  -0.057234   8.589493
    13  O    0.006943  -0.096074   0.000253   0.000000   0.000013  -0.000001
    14  O    0.007950  -0.361946  -0.001690  -0.000003   0.000004   0.000005
    15  O   -0.002175  -0.303676  -0.000611  -0.000000  -0.000016   0.000006
    16  O    0.003611  -0.010920  -0.000926   0.000004  -0.000008  -0.000001
    17  O   -0.002508   0.095724   0.002098   0.000001   0.000004  -0.000007
    18  O   -0.000653   0.077947   0.003831   0.000001   0.000008   0.000001
    19  O   -0.415817  -0.016382   0.001051   0.000009  -0.000001  -0.000036
    20  O   -0.109161   0.010023   0.002959   0.000015  -0.000002  -0.000049
    21  O    0.025422  -0.041440  -0.001494  -0.000002   0.000001   0.000008
    22  H   -0.000088   0.000092   0.046792  -0.006829  -0.004836   0.220072
    23  H    0.000065   0.000061   0.080738   0.229355  -0.005677   0.005566
    24  H    0.000038   0.000093   0.035954   0.007012   0.243791  -0.007106
    25  H   -0.000457   0.056814  -0.000211   0.000000  -0.000000  -0.000000
    26  H   -0.000364   0.046339  -0.000040  -0.000000   0.000000  -0.000000
    27  H    0.001891   0.068585   0.000015   0.000000  -0.000000   0.000000
    28  H    0.056666  -0.000025  -0.000150  -0.000000  -0.000000  -0.000002
    29  H    0.048107   0.022560  -0.000052   0.000000  -0.000000  -0.000000
    30  H    0.040549   0.000129   0.000017  -0.000000   0.000000   0.000000
    31  H    0.000152  -0.002167  -0.000042   0.000000  -0.000000   0.000000
    32  H   -0.000676   0.000059   0.000024  -0.000000   0.000000  -0.000000
    33  H    0.020602  -0.000062   0.000070  -0.000000   0.000000   0.000000
              13         14         15         16         17         18
     1  Zr  -0.023289  -0.004165  -0.084681  -0.122830  -0.072747  -0.027447
     2  O    0.181093   0.257186   0.290778   0.004659  -0.039734  -0.014369
     3  O    0.001614  -0.017486  -0.000609  -0.000580   0.009019   0.003786
     4  O   -0.015294  -0.008368   0.001209   0.349275   0.213890   0.195958
     5  O   -0.000757   0.001683   0.000662   0.003273   0.001323  -0.000766
     6  Si   0.032221   0.025143   0.000626  -0.432975  -0.452076  -0.449031
     7  Si   0.006943   0.007950  -0.002175   0.003611  -0.002508  -0.000653
     8  Si  -0.096074  -0.361946  -0.303676  -0.010920   0.095724   0.077947
     9  Si   0.000253  -0.001690  -0.000611  -0.000926   0.002098   0.003831
    10  O    0.000000  -0.000003  -0.000000   0.000004   0.000001   0.000001
    11  O    0.000013   0.000004  -0.000016  -0.000008   0.000004   0.000008
    12  O   -0.000001   0.000005   0.000006  -0.000001  -0.000007   0.000001
    13  O    8.625909   0.085976  -0.090174   0.003767  -0.030876  -0.045600
    14  O    0.085976   8.667833   0.055481   0.003669  -0.036058  -0.027052
    15  O   -0.090174   0.055481   8.777925  -0.000174   0.003590   0.001683
    16  O    0.003767   0.003669  -0.000174   8.905915  -0.091966  -0.114807
    17  O   -0.030876  -0.036058   0.003590  -0.091966   8.934062   0.226548
    18  O   -0.045600  -0.027052   0.001683  -0.114807   0.226548   9.011821
    19  O    0.000171  -0.000618   0.000139  -0.001547  -0.030255   0.000141
    20  O    0.000009  -0.000299   0.000034   0.000066  -0.000970   0.000014
    21  O   -0.000280   0.015920  -0.000590  -0.000213  -0.005532   0.000479
    22  H   -0.000000  -0.000000   0.000000   0.000000   0.000000  -0.000000
    23  H    0.000000   0.000000   0.000000  -0.000000   0.000000   0.000000
    24  H   -0.000000  -0.000000   0.000001   0.000000  -0.000000  -0.000000
    25  H    0.218587  -0.011783   0.008899  -0.000062   0.000613   0.014928
    26  H   -0.005067  -0.010148   0.216789   0.000000  -0.000002   0.000006
    27  H   -0.009555   0.220094   0.004665   0.000177   0.017978  -0.000201
    28  H    0.000000  -0.000005  -0.000001  -0.000000   0.000004  -0.000000
    29  H    0.000812   0.017514  -0.002588  -0.000004  -0.000391   0.000007
    30  H    0.000001   0.000007   0.000000   0.000112  -0.000412  -0.000007
    31  H    0.002350   0.000174  -0.000018   0.003715  -0.000716   0.218075
    32  H   -0.000008  -0.000006   0.000000   0.233336  -0.003643   0.003859
    33  H    0.000224   0.002103  -0.000034  -0.000084   0.231014   0.002108
              19         20         21         22         23         24
     1  Zr   0.006659  -0.143656   0.036736  -0.009152  -0.008957  -0.006977
     2  O    0.008772  -0.000578   0.010024  -0.000008  -0.000010  -0.000084
     3  O    0.266542   0.161438   0.147367   0.000018  -0.000001  -0.000009
     4  O    0.010363  -0.000757   0.003469  -0.000006  -0.000045   0.000009
     5  O    0.002055   0.001514   0.000189   0.006501  -0.024403  -0.004043
     6  Si  -0.007968   0.009090  -0.011853   0.000086   0.000143   0.000149
     7  Si  -0.415817  -0.109161   0.025422  -0.000088   0.000065   0.000038
     8  Si  -0.016382   0.010023  -0.041440   0.000092   0.000061   0.000093
     9  Si   0.001051   0.002959  -0.001494   0.046792   0.080738   0.035954
    10  O    0.000009   0.000015  -0.000002  -0.006829   0.229355   0.007012
    11  O   -0.000001  -0.000002   0.000001  -0.004836  -0.005677   0.243791
    12  O   -0.000036  -0.000049   0.000008   0.220072   0.005566  -0.007106
    13  O    0.000171   0.000009  -0.000280  -0.000000   0.000000  -0.000000
    14  O   -0.000618  -0.000299   0.015920  -0.000000   0.000000  -0.000000
    15  O    0.000139   0.000034  -0.000590   0.000000   0.000000   0.000001
    16  O   -0.001547   0.000066  -0.000213   0.000000  -0.000000   0.000000
    17  O   -0.030255  -0.000970  -0.005532   0.000000   0.000000  -0.000000
    18  O    0.000141   0.000014   0.000479  -0.000000   0.000000  -0.000000
    19  O    8.875174   0.032161   0.023418  -0.000000   0.000000  -0.000000
    20  O    0.032161   8.657874  -0.050519   0.000000   0.000000  -0.000000
    21  O    0.023418  -0.050519   8.484541  -0.000000   0.000000   0.000000
    22  H   -0.000000   0.000000  -0.000000   0.363281   0.000069   0.000121
    23  H    0.000000   0.000000   0.000000   0.000069   0.351401   0.000020
    24  H   -0.000000  -0.000000   0.000000   0.000121   0.000020   0.365378
    25  H   -0.000024   0.000000  -0.000018   0.000000   0.000000   0.000000
    26  H    0.000001  -0.000000   0.000040  -0.000000  -0.000000  -0.000000
    27  H    0.000037   0.000193  -0.004019  -0.000000  -0.000000   0.000000
    28  H    0.004631   0.229646  -0.002019  -0.000000   0.000000  -0.000000
    29  H   -0.008561   0.007681   0.206437   0.000000  -0.000000  -0.000000
    30  H    0.224114  -0.001436  -0.007141   0.000000  -0.000000  -0.000000
    31  H    0.000004  -0.000000  -0.000000  -0.000000  -0.000000   0.000000
    32  H    0.000097  -0.000000   0.000001  -0.000000   0.000000  -0.000000
    33  H    0.014743  -0.000078   0.001464  -0.000000  -0.000000  -0.000000
              25         26         27         28         29         30
     1  Zr   0.016510   0.006851   0.000557   0.004909   0.003121   0.000324
     2  O   -0.019687   0.000926  -0.018527  -0.000011  -0.007005  -0.000011
     3  O   -0.000111   0.000014   0.000758  -0.018399  -0.020234   0.000091
     4  O   -0.000439  -0.000011  -0.001846  -0.000013  -0.000135  -0.000461
     5  O    0.000018  -0.000003   0.000016  -0.000013  -0.000072  -0.000008
     6  Si   0.003153  -0.000136   0.010180  -0.000264   0.000301  -0.000561
     7  Si  -0.000457  -0.000364   0.001891   0.056666   0.048107   0.040549
     8  Si   0.056814   0.046339   0.068585  -0.000025   0.022560   0.000129
     9  Si  -0.000211  -0.000040   0.000015  -0.000150  -0.000052   0.000017
    10  O    0.000000  -0.000000   0.000000  -0.000000   0.000000  -0.000000
    11  O   -0.000000   0.000000  -0.000000  -0.000000  -0.000000   0.000000
    12  O   -0.000000  -0.000000   0.000000  -0.000002  -0.000000   0.000000
    13  O    0.218587  -0.005067  -0.009555   0.000000   0.000812   0.000001
    14  O   -0.011783  -0.010148   0.220094  -0.000005   0.017514   0.000007
    15  O    0.008899   0.216789   0.004665  -0.000001  -0.002588   0.000000
    16  O   -0.000062   0.000000   0.000177  -0.000000  -0.000004   0.000112
    17  O    0.000613  -0.000002   0.017978   0.000004  -0.000391  -0.000412
    18  O    0.014928   0.000006  -0.000201  -0.000000   0.000007  -0.000007
    19  O   -0.000024   0.000001   0.000037   0.004631  -0.008561   0.224114
    20  O    0.000000  -0.000000   0.000193   0.229646   0.007681  -0.001436
    21  O   -0.000018   0.000040  -0.004019  -0.002019   0.206437  -0.007141
    22  H    0.000000  -0.000000  -0.000000  -0.000000   0.000000   0.000000
    23  H    0.000000  -0.000000  -0.000000   0.000000  -0.000000  -0.000000
    24  H    0.000000  -0.000000   0.000000  -0.000000  -0.000000  -0.000000
    25  H    0.299029  -0.000011   0.000101   0.000000   0.000001   0.000000
    26  H   -0.000011   0.366246   0.000034   0.000000   0.000021  -0.000000
    27  H    0.000101   0.000034   0.283453  -0.000000  -0.001490   0.000009
    28  H    0.000000   0.000000  -0.000000   0.349022  -0.000017  -0.000016
    29  H    0.000001   0.000021  -0.001490  -0.000017   0.285868   0.000156
    30  H    0.000000  -0.000000   0.000009  -0.000016   0.000156   0.334306
    31  H   -0.000494   0.000000   0.000012  -0.000000   0.000000  -0.000000
    32  H   -0.000001   0.000000  -0.000000   0.000000  -0.000000  -0.000000
    33  H    0.000006  -0.000000  -0.002411  -0.000002   0.000098  -0.001160
              31         32         33
     1  Zr   0.000189   0.002206  -0.015003
     2  O    0.000182  -0.000024   0.001034
     3  O   -0.000020   0.000042  -0.010040
     4  O   -0.018426   0.010402  -0.009611
     5  O   -0.000010   0.000003  -0.000094
     6  Si   0.063627   0.022743   0.052387
     7  Si   0.000152  -0.000676   0.020602
     8  Si  -0.002167   0.000059  -0.000062
     9  Si  -0.000042   0.000024   0.000070
    10  O    0.000000  -0.000000  -0.000000
    11  O   -0.000000   0.000000   0.000000
    12  O    0.000000  -0.000000   0.000000
    13  O    0.002350  -0.000008   0.000224
    14  O    0.000174  -0.000006   0.002103
    15  O   -0.000018   0.000000  -0.000034
    16  O    0.003715   0.233336  -0.000084
    17  O   -0.000716  -0.003643   0.231014
    18  O    0.218075   0.003859   0.002108
    19  O    0.000004   0.000097   0.014743
    20  O   -0.000000  -0.000000  -0.000078
    21  O   -0.000000   0.000001   0.001464
    22  H   -0.000000  -0.000000  -0.000000
    23  H   -0.000000   0.000000  -0.000000
    24  H    0.000000  -0.000000  -0.000000
    25  H   -0.000494  -0.000001   0.000006
    26  H    0.000000   0.000000  -0.000000
    27  H    0.000012  -0.000000  -0.002411
    28  H   -0.000000   0.000000  -0.000002
    29  H    0.000000  -0.000000   0.000098
    30  H   -0.000000  -0.000000  -0.001160
    31  H    0.331576   0.000002  -0.000038
    32  H    0.000002   0.350298   0.000156
    33  H   -0.000038   0.000156   0.269433
 Mulliken charges:
               1
     1  Zr   0.023741
     2  O   -0.550711
     3  O   -0.429679
     4  O   -0.681873
     5  O   -0.373611
     6  Si   2.225345
     7  Si   1.796896
     8  Si   2.016858
     9  Si   1.603367
    10  O   -0.838578
    11  O   -0.786310
    12  O   -0.800971
    13  O   -0.842969
    14  O   -0.881113
    15  O   -0.877140
    16  O   -0.734481
    17  O   -0.967977
    18  O   -1.081267
    19  O   -0.989075
    20  O   -0.805214
    21  O   -0.830396
    22  H    0.383886
    23  H    0.371674
    24  H    0.365652
    25  H    0.414639
    26  H    0.378515
    27  H    0.429294
    28  H    0.376059
    29  H    0.447864
    30  H    0.411396
    31  H    0.401873
    32  H    0.381131
    33  H    0.443175
 Sum of Mulliken charges =  -0.00000
 Mulliken charges with hydrogens summed into heavy atoms:
               1
     1  Zr   0.023741
     2  O   -0.550711
     3  O   -0.429679
     4  O   -0.681873
     5  O   -0.373611
     6  Si   2.225345
     7  Si   1.796896
     8  Si   2.016858
     9  Si   1.603367
    10  O   -0.466904
    11  O   -0.420658
    12  O   -0.417085
    13  O   -0.428329
    14  O   -0.451819
    15  O   -0.498625
    16  O   -0.353350
    17  O   -0.524802
    18  O   -0.679394
    19  O   -0.577679
    20  O   -0.429156
    21  O   -0.382531
 Electronic spatial extent (au):  <R**2>=           9869.2026
 Charge=             -0.0000 electrons
 Dipole moment (field-independent basis, Debye):
    X=              1.1152    Y=             -0.8900    Z=             -2.7793  Tot=              3.1241
 Quadrupole moment (field-independent basis, Debye-Ang):
   XX=           -160.0338   YY=           -154.5221   ZZ=           -157.7991
   XY=             -5.3652   XZ=              1.4085   YZ=              5.4229
 Traceless Quadrupole moment (field-independent basis, Debye-Ang):
   XX=             -2.5822   YY=              2.9296   ZZ=             -0.3474
   XY=             -5.3652   XZ=              1.4085   YZ=              5.4229
 Octapole moment (field-independent basis, Debye-Ang**2):
  XXX=             74.7446  YYY=              1.5334  ZZZ=            -28.2382  XYY=             -4.8843
  XXY=             18.7355  XXZ=             20.6412  XZZ=              9.1900  YZZ=            -13.3118
  YYZ=             -9.6258  XYZ=             25.4351
 Hexadecapole moment (field-independent basis, Debye-Ang**3):
 XXXX=          -6035.4722 YYYY=          -2811.1928 ZZZZ=          -2260.8282 XXXY=             54.6263
 XXXZ=             11.3102 YYYX=            -17.1268 YYYZ=            206.4853 ZZZX=           -228.2001
 ZZZY=            -47.0022 XXYY=          -1515.2096 XXZZ=          -1324.1543 YYZZ=           -936.4156
 XXYZ=            -26.6544 YYXZ=            162.5440 ZZXY=            -42.9702
 N-N= 2.832644470378D+03 E-N=-1.137790011666D+04  KE= 2.373155258606D+03
 PrsmSu:  requested number of processors reduced to:   2 ShMem   1 Linda.
 PrsmSu:  requested number of processors reduced to:  10 ShMem   1 Linda.
   1 Symmetry operations used in ECPInt.
 ECPInt:  NShTT=   13203 NPrTT=   78401 LenC2=   11526 LenP2D=   44634.
 LDataN:  DoStor=T MaxTD1= 9 Len=  602
 Number of processors reduced to  14 by ecpmxn.
 Calling FoFJK, ICntrl=      2127 FMM=F ISym2X=0 I1Cent= 0 IOpClX= 0 NMat=1 NMatS=1 NMatT=0.
 CoulSu:  requested number of processors reduced to:  10 ShMem   1 Linda.
 Defaulting to unpruned grid for atomic number  40.
 Defaulting to unpruned grid for atomic number  40.
 Defaulting to unpruned grid for atomic number  40.
 Defaulting to unpruned grid for atomic number  40.
 Defaulting to unpruned grid for atomic number  40.
 Defaulting to unpruned grid for atomic number  40.
 Defaulting to unpruned grid for atomic number  40.
 Defaulting to unpruned grid for atomic number  40.
 Defaulting to unpruned grid for atomic number  40.
 Defaulting to unpruned grid for atomic number  40.
 Defaulting to unpruned grid for atomic number  40.
 Defaulting to unpruned grid for atomic number  40.
 Defaulting to unpruned grid for atomic number  40.
 Defaulting to unpruned grid for atomic number  40.
 Defaulting to unpruned grid for atomic number  40.
 Defaulting to unpruned grid for atomic number  40.
 ***** Axes restored to original set *****
 -------------------------------------------------------------------
 Center     Atomic                   Forces (Hartrees/Bohr)
 Number     Number              X              Y              Z
 -------------------------------------------------------------------
      1       40          -0.000034757    0.000158884    0.001106179
      2        8          -0.000102781   -0.000093958   -0.000412542
      3        8           0.000121113    0.000075882   -0.000126407
      4        8           0.000017558   -0.000134785   -0.000161040
      5        8           0.000131761   -0.000219987   -0.000711965
      6       14          -0.000081419    0.000083189    0.000114058
      7       14          -0.000097742    0.000035045    0.000139285
      8       14           0.000209310    0.000135316    0.000232195
      9       14          -0.000128679    0.000368099    0.000597272
     10        8          -0.000000569   -0.000100355   -0.000142809
     11        8          -0.000008122   -0.000198110   -0.000041173
     12        8          -0.000049749   -0.000088296   -0.000196672
     13        8          -0.000049939   -0.000102081   -0.000072762
     14        8          -0.000066398    0.000014378   -0.000099167
     15        8          -0.000084428   -0.000046435   -0.000102503
     16        8           0.000036149   -0.000027051   -0.000063564
     17        8           0.000041111   -0.000047906   -0.000059375
     18        8           0.000019892   -0.000019946   -0.000041929
     19        8           0.000012251   -0.000010734   -0.000037164
     20        8           0.000047499   -0.000010211   -0.000016076
     21        8           0.000019626    0.000001694   -0.000098620
     22        1           0.000013795    0.000000569   -0.000002388
     23        1           0.000063933    0.000010865   -0.000001146
     24        1           0.000023837    0.000145469    0.000004573
     25        1           0.000000290    0.000033842    0.000045499
     26        1           0.000008833    0.000007007    0.000008586
     27        1           0.000000241    0.000015203    0.000049702
     28        1          -0.000016772    0.000010922    0.000010030
     29        1           0.000014261   -0.000016328    0.000038336
     30        1          -0.000000852    0.000002223    0.000009867
     31        1          -0.000011389    0.000002857    0.000001423
     32        1          -0.000041968    0.000002361    0.000016589
     33        1          -0.000005897    0.000012378    0.000013710
 -------------------------------------------------------------------
 Cartesian Forces:  Max     0.001106179 RMS     0.000174526

 GradGradGradGradGradGradGradGradGradGradGradGradGradGradGradGradGradGrad
 Berny optimization.
 FormGI is forming the generalized inverse of G from B-inverse, IUseBI=4.
 Internal  Forces:  Max     0.000449592 RMS     0.000097978
 Search for a local minimum.
 Step number   1 out of a maximum of  148
 All quantities printed in internal units (Hartrees-Bohrs-Radians)
 Mixed Optimization -- En-DIIS/RFO-DIIS
 Second derivative matrix not updated -- first step.
 ITU=  0
     Eigenvalues ---    0.00230   0.00230   0.00230   0.00230   0.03240
     Eigenvalues ---    0.03358   0.03498   0.03580   0.03665   0.03666
     Eigenvalues ---    0.03680   0.03686   0.03693   0.03739   0.03789
     Eigenvalues ---    0.03792   0.03816   0.03834   0.03850   0.03857
     Eigenvalues ---    0.08405   0.09407   0.11077   0.11224   0.11819
     Eigenvalues ---    0.11833   0.11884   0.12136   0.12177   0.12239
     Eigenvalues ---    0.12563   0.12783   0.12895   0.13099   0.13313
     Eigenvalues ---    0.16000   0.16000   0.16000   0.16000   0.16000
     Eigenvalues ---    0.16000   0.16000   0.16000   0.16000   0.16000
     Eigenvalues ---    0.16000   0.16000   0.19173   0.19893   0.20028
     Eigenvalues ---    0.20179   0.20203   0.20204   0.20208   0.20515
     Eigenvalues ---    0.20653   0.20795   0.20988   0.21175   0.21186
     Eigenvalues ---    0.21263   0.25000   0.25000   0.25000   0.38003
     Eigenvalues ---    0.39186   0.40659   0.41547   0.42502   0.42510
     Eigenvalues ---    0.42670   0.42742   0.42824   0.43362   0.43951
     Eigenvalues ---    0.43981   0.44274   0.44484   0.44689   0.44768
     Eigenvalues ---    0.50656   0.51352   0.52035   0.52547   0.54334
     Eigenvalues ---    0.54625   0.54642   0.54648   0.54688   0.54692
     Eigenvalues ---    0.54712   0.547661000.000001000.000001000.00000
     Eigenvalues --- 1000.000001000.000001000.000001000.000001000.00000
     Eigenvalues --- 1000.000001000.000001000.000001000.000001000.00000
     Eigenvalues --- 1000.000001000.000001000.000001000.000001000.00000
     Eigenvalues --- 1000.000001000.000001000.000001000.000001000.00000
     Eigenvalues --- 1000.000001000.000001000.000001000.000001000.00000
     Eigenvalues --- 1000.000001000.000001000.000001000.000001000.00000
     Eigenvalues --- 1000.000001000.000001000.000001000.000001000.00000
     Eigenvalues --- 1000.000001000.000001000.000001000.000001000.00000
     Eigenvalues --- 1000.000001000.000001000.00000
 RFO step:  Lambda=-5.41762867D-05 EMin= 2.30000000D-03
 Linear search not attempted -- first point.
 Iteration  1 RMS(Cart)=  0.05832595 RMS(Int)=  0.00134720
 Iteration  2 RMS(Cart)=  0.00224943 RMS(Int)=  0.00000113
 Iteration  3 RMS(Cart)=  0.00000263 RMS(Int)=  0.00000058
 Iteration  4 RMS(Cart)=  0.00000000 RMS(Int)=  0.00000058
 Iteration  1 RMS(Cart)=  0.00000000 RMS(Int)=  0.00000000
 Variable       Old X    -DE/DX   Delta X   Delta X   Delta X     New X
                                 (Linear)    (Quad)   (Total)
    R1        3.67648  -0.00025   0.00000  -0.00121  -0.00121   3.67527
    R2        3.69190   0.00008   0.00000   0.00038   0.00038   3.69228
    R3        3.73837   0.00021   0.00000   0.00108   0.00108   3.73945
    R4        3.70231   0.00002   0.00000   0.00012   0.00012   3.70243
    R5        3.11689   0.00000   0.00000   0.00001   0.00001   3.11689
    R6        3.09579   0.00002   0.00000   0.00005   0.00005   3.09584
    R7        3.10214   0.00004   0.00000   0.00009   0.00009   3.10223
    R8        3.09246  -0.00005   0.00000  -0.00012  -0.00012   3.09233
    R9        3.11588   0.00005   0.00000   0.00012   0.00012   3.11600
   R10        3.11989  -0.00006   0.00000  -0.00014  -0.00014   3.11975
   R11        3.14367  -0.00002   0.00000  -0.00004  -0.00004   3.14363
   R12        3.18061   0.00002   0.00000   0.00005   0.00005   3.18066
   R13        3.10926   0.00001   0.00000   0.00003   0.00003   3.10929
   R14        3.09339  -0.00007   0.00000  -0.00016  -0.00016   3.09323
   R15        3.10178   0.00008   0.00000   0.00019   0.00019   3.10196
   R16        3.16375   0.00008   0.00000   0.00021   0.00021   3.16395
   R17        3.09828  -0.00011   0.00000  -0.00024  -0.00024   3.09804
   R18        3.11979   0.00015   0.00000   0.00035   0.00035   3.12014
   R19        3.13204   0.00003   0.00000   0.00008   0.00008   3.13211
   R20        3.11779  -0.00018   0.00000  -0.00042  -0.00042   3.11737
   R21        1.82152   0.00001   0.00000   0.00002   0.00002   1.82154
   R22        1.82107  -0.00006   0.00000  -0.00012  -0.00012   1.82095
   R23        1.82088   0.00001   0.00000   0.00002   0.00002   1.82091
   R24        1.84079  -0.00006   0.00000  -0.00011  -0.00011   1.84069
   R25        1.84566  -0.00005   0.00000  -0.00009  -0.00009   1.84556
   R26        1.82040  -0.00000   0.00000  -0.00001  -0.00001   1.82040
   R27        1.82110  -0.00004   0.00000  -0.00008  -0.00008   1.82102
   R28        1.85910   0.00000   0.00000   0.00000   0.00000   1.85910
   R29        1.82146  -0.00000   0.00000  -0.00001  -0.00001   1.82146
   R30        1.82428  -0.00000   0.00000  -0.00001  -0.00001   1.82428
   R31        1.82167   0.00001   0.00000   0.00002   0.00002   1.82169
   R32        1.85225   0.00003   0.00000   0.00006   0.00006   1.85230
    A1        1.85172   0.00001   0.00000   0.00087   0.00087   1.85259
    A2        1.80156  -0.00012   0.00000  -0.00039  -0.00039   1.80117
    A3        1.96889   0.00045   0.00000   0.00330   0.00330   1.97219
    A4        1.83430   0.00010   0.00000  -0.00064  -0.00064   1.83366
    A5        2.01802  -0.00022   0.00000  -0.00131  -0.00131   2.01671
    A6        1.97057  -0.00021   0.00000  -0.00184  -0.00184   1.96873
    A7        2.46524   0.00004   0.00000   0.00016   0.00016   2.46540
    A8        2.58825  -0.00008   0.00000  -0.00032  -0.00032   2.58793
    A9        2.35482   0.00007   0.00000   0.00028   0.00028   2.35510
   A10        2.86714  -0.00042   0.00000   0.00000   0.00000   2.86714
   A11        1.91977  -0.00001   0.00000  -0.00010  -0.00010   1.91967
   A12        1.91547   0.00001   0.00000   0.00012   0.00012   1.91559
   A13        1.95201   0.00001   0.00000   0.00011   0.00011   1.95212
   A14        2.00709  -0.00002   0.00000  -0.00013  -0.00013   2.00696
   A15        1.88610  -0.00003   0.00000  -0.00021  -0.00021   1.88589
   A16        1.78001   0.00003   0.00000   0.00023   0.00023   1.78024
   A17        1.80239  -0.00002   0.00000  -0.00015  -0.00015   1.80224
[...]
 Alpha virt. eigenvalues --    3.14747   3.20382   3.35831   3.41114   3.46769
 Alpha virt. eigenvalues --    3.47846   3.48593   3.48624   3.51043   3.51108
 Alpha virt. eigenvalues --    3.52870   3.54111   3.60303   3.61086   3.62061
 Alpha virt. eigenvalues --    3.66202   4.32621   4.59696   7.90034  31.29237
          Condensed to atoms (all electrons):
               1          2          3          4          5          6
     1  Zr  15.086577  -0.125487  -0.001889  -0.134891  -0.192969  -0.597943
     2  O   -0.125487   9.063960   0.019563  -0.042558  -0.057516   0.088757
     3  O   -0.001889   0.019563   8.828437   0.015781  -0.043945  -0.004096
     4  O   -0.134891  -0.042558   0.015781   8.809662  -0.060057  -0.672827
     5  O   -0.192969  -0.057516  -0.043945  -0.060057   9.427779  -0.007001
     6  Si  -0.597943   0.088757  -0.004096  -0.672827  -0.007001  13.983391
     7  Si  -0.614656  -0.028179  -0.875746  -0.007079  -0.033887   0.084221
     8  Si  -0.588246  -0.999387  -0.020177   0.071383  -0.014234  -0.017236
     9  Si  -0.321069  -0.040655  -0.026488  -0.033099  -1.231922   0.038746
    10  O   -0.014027   0.001027  -0.002031   0.000955   0.130223  -0.002418
    11  O   -0.064518   0.003429   0.002984   0.001220   0.313764  -0.000804
    12  O    0.042608  -0.000014   0.004683   0.002079   0.154186  -0.002974
    13  O   -0.036561   0.186487   0.001649  -0.015658  -0.000673   0.035582
    14  O   -0.018098   0.263448  -0.017621  -0.008750   0.001906   0.029056
    15  O   -0.083402   0.292722  -0.000696   0.001237   0.000581  -0.000078
    16  O   -0.125106   0.004684  -0.000504   0.344386   0.003208  -0.422089
    17  O   -0.081080  -0.039959   0.008012   0.218386   0.001302  -0.452971
    18  O   -0.027009  -0.014460   0.003740   0.198193  -0.000607  -0.450333
    19  O    0.001210   0.008987   0.265016   0.010200   0.002129  -0.007502
    20  O   -0.145845  -0.000576   0.163864  -0.000859   0.001476   0.009048
    21  O    0.036075   0.010322   0.146362   0.003406   0.000212  -0.011879
    22  H   -0.008963  -0.000018  -0.000013  -0.000009   0.005772   0.000086
    23  H   -0.007676  -0.000013  -0.000006  -0.000056  -0.025293   0.000086
    24  H   -0.005244  -0.000190  -0.000011   0.000003  -0.005436   0.000071
    25  H    0.017071  -0.020009  -0.000111  -0.000313   0.000019   0.002614
    26  H    0.007278   0.000626   0.000014  -0.000011  -0.000004  -0.000149
    27  H    0.004319  -0.019203   0.000840  -0.001704   0.000011   0.008748
    28  H    0.005070  -0.000011  -0.018415  -0.000014  -0.000015  -0.000281
    29  H    0.004225  -0.007071  -0.020293  -0.000141  -0.000074   0.000138
    30  H    0.000719  -0.000012   0.000059  -0.000453  -0.000008  -0.000661
    31  H   -0.000191   0.000172  -0.000020  -0.018460  -0.000009   0.063867
    32  H    0.002093  -0.000024   0.000040   0.010349   0.000001   0.022948
    33  H   -0.016046   0.001024  -0.010110  -0.009609  -0.000101   0.053304
               7          8          9         10         11         12
     1  Zr  -0.614656  -0.588246  -0.321069  -0.014027  -0.064518   0.042608
     2  O   -0.028179  -0.999387  -0.040655   0.001027   0.003429  -0.000014
     3  O   -0.875746  -0.020177  -0.026488  -0.002031   0.002984   0.004683
     4  O   -0.007079   0.071383  -0.033099   0.000955   0.001220   0.002079
     5  O   -0.033887  -0.014234  -1.231922   0.130223   0.313764   0.154186
     6  Si   0.084221  -0.017236   0.038746  -0.002418  -0.000804  -0.002974
     7  Si  13.795302   0.182166   0.020011  -0.000249  -0.000868   0.004005
     8  Si   0.182166  13.804635   0.026121  -0.000991   0.001189  -0.000831
     9  Si   0.020011   0.026121  14.259980  -0.069370  -0.181639  -0.213155
    10  O   -0.000249  -0.000991  -0.069370   8.524793   0.014646   0.031875
    11  O   -0.000868   0.001189  -0.181639   0.014646   8.517363  -0.050795
    12  O    0.004005  -0.000831  -0.213155   0.031875  -0.050795   8.601179
    13  O    0.007326  -0.095400   0.000229   0.000000   0.000018   0.000009
    14  O    0.009502  -0.368255  -0.001476  -0.000002   0.000001   0.000017
    15  O   -0.002576  -0.304392  -0.000636   0.000000  -0.000024  -0.000016
    16  O    0.003796  -0.010287  -0.001027   0.000005  -0.000003  -0.000001
    17  O   -0.000712   0.096752   0.002552  -0.000001   0.000002  -0.000006
    18  O   -0.000706   0.074694   0.004189  -0.000002  -0.000001  -0.000001
    19  O   -0.408952  -0.016045   0.001045   0.000007  -0.000002  -0.000022
    20  O   -0.108725   0.009659   0.003160   0.000002  -0.000003  -0.000029
    21  O    0.024298  -0.040177  -0.001810   0.000001   0.000001   0.000024
    22  H   -0.000185   0.000089   0.047314  -0.006550  -0.005074   0.219698
    23  H    0.000060   0.000062   0.081081   0.228652  -0.006182   0.005913
    24  H    0.000054  -0.000090   0.037288   0.007359   0.242432  -0.007444
    25  H   -0.000461   0.057392  -0.000212   0.000000  -0.000000  -0.000000
    26  H   -0.000381   0.046087  -0.000043  -0.000000   0.000000  -0.000000
    27  H    0.001323   0.068424  -0.000008   0.000000  -0.000000  -0.000000
    28  H    0.056628  -0.000068  -0.000135  -0.000000  -0.000000  -0.000004
    29  H    0.048157   0.021907  -0.000057   0.000000   0.000000  -0.000001
    30  H    0.040285   0.000110   0.000023  -0.000000   0.000000   0.000000
    31  H    0.000155  -0.001971  -0.000052   0.000000  -0.000000   0.000000
    32  H   -0.000664   0.000054   0.000009  -0.000000   0.000000  -0.000000
    33  H    0.020629   0.000115   0.000078  -0.000000   0.000000   0.000000
              13         14         15         16         17         18
     1  Zr  -0.036561  -0.018098  -0.083402  -0.125106  -0.081080  -0.027009
     2  O    0.186487   0.263448   0.292722   0.004684  -0.039959  -0.014460
     3  O    0.001649  -0.017621  -0.000696  -0.000504   0.008012   0.003740
     4  O   -0.015658  -0.008750   0.001237   0.344386   0.218386   0.198193
     5  O   -0.000673   0.001906   0.000581   0.003208   0.001302  -0.000607
     6  Si   0.035582   0.029056  -0.000078  -0.422089  -0.452971  -0.450333
     7  Si   0.007326   0.009502  -0.002576   0.003796  -0.000712  -0.000706
     8  Si  -0.095400  -0.368255  -0.304392  -0.010287   0.096752   0.074694
     9  Si   0.000229  -0.001476  -0.000636  -0.001027   0.002552   0.004189
    10  O    0.000000  -0.000002   0.000000   0.000005  -0.000001  -0.000002
    11  O    0.000018   0.000001  -0.000024  -0.000003   0.000002  -0.000001
    12  O    0.000009   0.000017  -0.000016  -0.000001  -0.000006  -0.000001
    13  O    8.628244   0.087189  -0.090659   0.003735  -0.030917  -0.045620
    14  O    0.087189   8.674663   0.055548   0.003665  -0.035824  -0.026848
    15  O   -0.090659   0.055548   8.776806  -0.000175   0.003601   0.001676
    16  O    0.003735   0.003665  -0.000175   8.901605  -0.092056  -0.115146
    17  O   -0.030917  -0.035824   0.003601  -0.092056   8.936044   0.227847
    18  O   -0.045620  -0.026848   0.001676  -0.115146   0.227847   9.012363
    19  O    0.000182  -0.000442   0.000139  -0.001553  -0.030073   0.000167
    20  O    0.000008  -0.000248   0.000039   0.000065  -0.000979   0.000015
    21  O   -0.000251   0.016005  -0.000615  -0.000213  -0.005586   0.000476
    22  H   -0.000000  -0.000000  -0.000000   0.000000   0.000000  -0.000000
    23  H    0.000000   0.000000  -0.000000  -0.000000   0.000000  -0.000000
    24  H   -0.000000   0.000000   0.000002   0.000000  -0.000000  -0.000000
    25  H    0.218370  -0.011970   0.008904  -0.000050   0.000623   0.014876
    26  H   -0.005132  -0.010092   0.217051   0.000000  -0.000003   0.000006
    27  H   -0.009724   0.219325   0.004634   0.000183   0.017923  -0.000251
    28  H   -0.000000  -0.000005  -0.000001  -0.000000   0.000004  -0.000000
    29  H    0.000796   0.017581  -0.002572  -0.000004  -0.000395   0.000006
    30  H    0.000001   0.000001   0.000000   0.000115  -0.000397  -0.000007
    31  H    0.002353   0.000165  -0.000018   0.003713  -0.000729   0.218189
    32  H   -0.000008  -0.000006   0.000000   0.233360  -0.003664   0.003916
    33  H    0.000231   0.002088  -0.000035  -0.000098   0.230969   0.002092
              19         20         21         22         23         24
     1  Zr   0.001210  -0.145845   0.036075  -0.008963  -0.007676  -0.005244
     2  O    0.008987  -0.000576   0.010322  -0.000018  -0.000013  -0.000190
     3  O    0.265016   0.163864   0.146362  -0.000013  -0.000006  -0.000011
     4  O    0.010200  -0.000859   0.003406  -0.000009  -0.000056   0.000003
     5  O    0.002129   0.001476   0.000212   0.005772  -0.025293  -0.005436
     6  Si  -0.007502   0.009048  -0.011879   0.000086   0.000086   0.000071
     7  Si  -0.408952  -0.108725   0.024298  -0.000185   0.000060   0.000054
     8  Si  -0.016045   0.009659  -0.040177   0.000089   0.000062  -0.000090
     9  Si   0.001045   0.003160  -0.001810   0.047314   0.081081   0.037288
    10  O    0.000007   0.000002   0.000001  -0.006550   0.228652   0.007359
    11  O   -0.000002  -0.000003   0.000001  -0.005074  -0.006182   0.242432
    12  O   -0.000022  -0.000029   0.000024   0.219698   0.005913  -0.007444
    13  O    0.000182   0.000008  -0.000251  -0.000000   0.000000  -0.000000
    14  O   -0.000442  -0.000248   0.016005  -0.000000   0.000000   0.000000
    15  O    0.000139   0.000039  -0.000615  -0.000000  -0.000000   0.000002
    16  O   -0.001553   0.000065  -0.000213   0.000000  -0.000000   0.000000
    17  O   -0.030073  -0.000979  -0.005586   0.000000   0.000000  -0.000000
    18  O    0.000167   0.000015   0.000476  -0.000000  -0.000000  -0.000000
    19  O    8.872622   0.032215   0.023444  -0.000000   0.000000  -0.000000
    20  O    0.032215   8.656826  -0.050491   0.000000   0.000000  -0.000000
    21  O    0.023444  -0.050491   8.485637  -0.000000   0.000000   0.000000
    22  H   -0.000000   0.000000  -0.000000   0.361701   0.000056   0.000123
    23  H    0.000000   0.000000   0.000000   0.000056   0.351044   0.000014
    24  H   -0.000000  -0.000000   0.000000   0.000123   0.000014   0.365206
    25  H   -0.000024   0.000000  -0.000019   0.000000   0.000000   0.000000
    26  H    0.000001  -0.000000   0.000039  -0.000000  -0.000000  -0.000000
    27  H    0.000032   0.000192  -0.004015  -0.000000  -0.000000   0.000000
    28  H    0.004626   0.229612  -0.002082  -0.000000   0.000000  -0.000000
    29  H   -0.008569   0.007666   0.206433   0.000000   0.000000  -0.000000
    30  H    0.224236  -0.001490  -0.007151   0.000000   0.000000  -0.000000
    31  H    0.000004  -0.000000  -0.000000  -0.000000  -0.000000   0.000000
    32  H    0.000097   0.000000   0.000001  -0.000000  -0.000000  -0.000000
    33  H    0.014852  -0.000082   0.001474  -0.000000  -0.000000  -0.000000
              25         26         27         28         29         30
     1  Zr   0.017071   0.007278   0.004319   0.005070   0.004225   0.000719
     2  O   -0.020009   0.000626  -0.019203  -0.000011  -0.007071  -0.000012
     3  O   -0.000111   0.000014   0.000840  -0.018415  -0.020293   0.000059
     4  O   -0.000313  -0.000011  -0.001704  -0.000014  -0.000141  -0.000453
     5  O    0.000019  -0.000004   0.000011  -0.000015  -0.000074  -0.000008
     6  Si   0.002614  -0.000149   0.008748  -0.000281   0.000138  -0.000661
     7  Si  -0.000461  -0.000381   0.001323   0.056628   0.048157   0.040285
     8  Si   0.057392   0.046087   0.068424  -0.000068   0.021907   0.000110
     9  Si  -0.000212  -0.000043  -0.000008  -0.000135  -0.000057   0.000023
    10  O    0.000000  -0.000000   0.000000  -0.000000   0.000000  -0.000000
    11  O   -0.000000   0.000000  -0.000000  -0.000000   0.000000   0.000000
    12  O   -0.000000  -0.000000  -0.000000  -0.000004  -0.000001   0.000000
    13  O    0.218370  -0.005132  -0.009724  -0.000000   0.000796   0.000001
    14  O   -0.011970  -0.010092   0.219325  -0.000005   0.017581   0.000001
    15  O    0.008904   0.217051   0.004634  -0.000001  -0.002572   0.000000
    16  O   -0.000050   0.000000   0.000183  -0.000000  -0.000004   0.000115
    17  O    0.000623  -0.000003   0.017923   0.000004  -0.000395  -0.000397
    18  O    0.014876   0.000006  -0.000251  -0.000000   0.000006  -0.000007
    19  O   -0.000024   0.000001   0.000032   0.004626  -0.008569   0.224236
    20  O    0.000000  -0.000000   0.000192   0.229612   0.007666  -0.001490
    21  O   -0.000019   0.000039  -0.004015  -0.002082   0.206433  -0.007151
    22  H    0.000000  -0.000000  -0.000000  -0.000000   0.000000   0.000000
    23  H    0.000000  -0.000000  -0.000000   0.000000   0.000000   0.000000
    24  H    0.000000  -0.000000   0.000000  -0.000000  -0.000000  -0.000000
    25  H    0.298951  -0.000012   0.000113   0.000000   0.000001   0.000000
    26  H   -0.000012   0.366003   0.000036   0.000000   0.000021  -0.000000
    27  H    0.000113   0.000036   0.283389  -0.000000  -0.001495   0.000009
    28  H    0.000000   0.000000  -0.000000   0.349180  -0.000017  -0.000016
    29  H    0.000001   0.000021  -0.001495  -0.000017   0.285938   0.000156
    30  H    0.000000  -0.000000   0.000009  -0.000016   0.000156   0.334247
    31  H   -0.000506   0.000000   0.000013  -0.000000   0.000000  -0.000000
    32  H   -0.000001   0.000000  -0.000000   0.000000  -0.000000  -0.000000
    33  H    0.000006  -0.000000  -0.002407  -0.000002   0.000099  -0.001161
              31         32         33
     1  Zr  -0.000191   0.002093  -0.016046
     2  O    0.000172  -0.000024   0.001024
     3  O   -0.000020   0.000040  -0.010110
     4  O   -0.018460   0.010349  -0.009609
     5  O   -0.000009   0.000001  -0.000101
     6  Si   0.063867   0.022948   0.053304
     7  Si   0.000155  -0.000664   0.020629
     8  Si  -0.001971   0.000054   0.000115
     9  Si  -0.000052   0.000009   0.000078
    10  O    0.000000  -0.000000  -0.000000
    11  O   -0.000000   0.000000   0.000000
    12  O    0.000000  -0.000000   0.000000
    13  O    0.002353  -0.000008   0.000231
    14  O    0.000165  -0.000006   0.002088
    15  O   -0.000018   0.000000  -0.000035
    16  O    0.003713   0.233360  -0.000098
    17  O   -0.000729  -0.003664   0.230969
    18  O    0.218189   0.003916   0.002092
    19  O    0.000004   0.000097   0.014852
    20  O   -0.000000   0.000000  -0.000082
    21  O   -0.000000   0.000001   0.001474
    22  H   -0.000000  -0.000000  -0.000000
    23  H   -0.000000  -0.000000  -0.000000
    24  H    0.000000  -0.000000  -0.000000
    25  H   -0.000506  -0.000001   0.000006
    26  H    0.000000   0.000000  -0.000000
    27  H    0.000013  -0.000000  -0.002407
    28  H   -0.000000   0.000000  -0.000002
    29  H    0.000000  -0.000000   0.000099
    30  H   -0.000000  -0.000000  -0.001161
    31  H    0.331578   0.000001  -0.000038
    32  H    0.000001   0.350094   0.000157
    33  H   -0.000038   0.000157   0.269213
 Mulliken charges:
               1
     1  Zr   0.003668
     2  O   -0.549868
     3  O   -0.418874
     4  O   -0.680694
     5  O   -0.368815
     6  Si   2.230580
     7  Si   1.786109
     8  Si   2.016951
     9  Si   1.601033
    10  O   -0.843903
    11  O   -0.787136
    12  O   -0.790985
    13  O   -0.841806
    14  O   -0.880523
    15  O   -0.877045
    16  O   -0.734209
    17  O   -0.968664
    18  O   -1.081454
    19  O   -0.988026
    20  O   -0.804520
    21  O   -0.829921
    22  H    0.385972
    23  H    0.372256
    24  H    0.365866
    25  H    0.414747
    26  H    0.378663
    27  H    0.429296
    28  H    0.375948
    29  H    0.447566
    30  H    0.411397
    31  H    0.401784
    32  H    0.381248
    33  H    0.443359
 Sum of Mulliken charges =  -0.00000
 Mulliken charges with hydrogens summed into heavy atoms:
               1
     1  Zr   0.003668
     2  O   -0.549868
     3  O   -0.418874
     4  O   -0.680694
     5  O   -0.368815
     6  Si   2.230580
     7  Si   1.786109
     8  Si   2.016951
     9  Si   1.601033
    10  O   -0.471647
    11  O   -0.421270
    12  O   -0.405013
    13  O   -0.427059
    14  O   -0.451227
    15  O   -0.498381
    16  O   -0.352961
    17  O   -0.525306
    18  O   -0.679670
    19  O   -0.576629
    20  O   -0.428572
    21  O   -0.382355
 Electronic spatial extent (au):  <R**2>=           9868.8606
 Charge=              0.0000 electrons
 Dipole moment (field-independent basis, Debye):
    X=              1.0782    Y=             -0.7714    Z=             -2.4068  Tot=              2.7478
 Quadrupole moment (field-independent basis, Debye-Ang):
   XX=           -160.2688   YY=           -154.6752   ZZ=           -157.7838
   XY=             -4.9460   XZ=              2.2347   YZ=              5.7267
 Traceless Quadrupole moment (field-independent basis, Debye-Ang):
   XX=             -2.6928   YY=              2.9008   ZZ=             -0.2079
   XY=             -4.9460   XZ=              2.2347   YZ=              5.7267
 Octapole moment (field-independent basis, Debye-Ang**2):
  XXX=             73.9723  YYY=              6.6637  ZZZ=            -18.6213  XYY=             -1.9756
  XXY=             20.3803  XXZ=             19.2763  XZZ=              5.3882  YZZ=            -17.0836
  YYZ=            -15.7060  XYZ=             28.1180
 Hexadecapole moment (field-independent basis, Debye-Ang**3):
 XXXX=          -6034.7056 YYYY=          -2835.0295 ZZZZ=          -2261.0413 XXXY=             56.7638
 XXXZ=            -23.7508 YYYX=              4.7202 YYYZ=            217.4018 ZZZX=           -183.9229
 ZZZY=            -54.8854 XXYY=          -1483.3738 XXZZ=          -1362.0419 YYZZ=           -925.1231
 XXYZ=             -7.3620 YYXZ=            130.1950 ZZXY=            -60.8609
 N-N= 2.832869448363D+03 E-N=-1.137833799944D+04  KE= 2.373154981143D+03
 1\1\GINC-GRA1248\FOpt\RB3LYP\Gen\H12O16Si4Zr1\SARASHS\14-Aug-2020\0\\#
 n B3LYP/Gen Pseudo=cards EmpiricalDispersion=GD3 Opt=modredundant\\Tit
 le\\0,1\Zr,0.6652954426,-0.1149099442,-0.2285814526\O,-0.2663007848,-0
 .4808929303,1.4397043818\O,0.1475201167,1.6944392874,-0.7529764483\O,-
 0.2403769623,-1.3058053376,-1.5228300494\O,2.5931859069,-0.4428578225,
 -0.109996804\Si,-1.801100899,-1.7159105558,-1.8244699352\Si,-1.0505399
 503,2.780576343,-1.0152124926\Si,-1.7860542128,-0.5439897433,2.0774319
 681\Si,4.2177170052,-0.2693158525,-0.0162256364\O,4.9939255427,-0.4810
 429875,-1.4578529007\O,4.8590948614,-1.4147715987,0.9954629629\O,4.454
 941632,1.2857813195,0.4811517398\O,-2.3999405263,-2.0650192547,2.01560
 85719\O,-2.749706099,0.5110168567,1.2048838032\O,-1.6950132457,-0.0162
 492705,3.6270431204\O,-1.9374188856,-2.3331773913,-3.3473247354\O,-2.7
 877333718,-0.4325199907,-1.5004872348\O,-2.3588561968,-2.8595292474,-0
 .7527939508\O,-1.9513782786,2.0717302426,-2.2476391876\O,-0.5361314869
 ,4.2321124882,-1.5944758811\O,-1.934269938,3.0558365281,0.3349012712\H
 ,5.3490726561,1.6362582712,0.4025465162\H,5.333066178,-1.3674592905,-1
 .626308557\H,4.4005075343,-1.5777599382,1.8271928157\H,-2.4669865835,-
 2.4775968131,1.135734436\H,-2.4953556071,-0.074266875,4.1600314903\H,-
 3.0675886738,0.149496913,0.3551188024\H,-0.4355541893,4.937470072,-0.9
 451428576\H,-2.260862772,2.2621650873,0.8083618262\H,-2.5396539536,2.6
 716898964,-2.7229414718\H,-2.3188985064,-3.776369855,-1.0475581526\H,-
 1.1898929874,-2.1889271097,-3.9381459221\H,-2.5507627648,0.4310585032,
 -1.9078300361\\Version=ES64L-G16RevB.01\State=1-A\HF=-2416.946857\RMSD
 =2.543e-09\RMSF=8.206e-06\Dipole=0.440619,-0.5316621,-0.8318075\Quadru
 pole=-2.2172134,4.1187129,-1.9014995,-3.1679573,2.5466549,3.0793633\PG
 =C01 [X(H12O16Si4Zr1)]\\@


 MOST BUREAUCRACIES FUNCTION LIKE A SEPTIC TANK.
 THE LARGE CHUNKS RISE TO THE TOP.
 Job cpu time:       1 days  2 hours 27 minutes 17.5 seconds.
 Elapsed time:       0 days  2 hours  1 minutes 17.7 seconds.
 File lengths (MBytes):  RWF=    167 Int=      0 D2E=      0 Chk=     21 Scr=      1
 Normal termination of Gaussian 16 at Fri Aug 14 05:22:17 2020.
