 Entering Gaussian System, Link 0=g16
 Initial command:
 /opt/software/gaussian/g16.b01/l1.exe "/localscratch/sarashs.37242649.0/Gau-135988.inp" -scrdir="/localscratch/sarashs.37242649.0/"
 Entering Link 1 = /opt/software/gaussian/g16.b01/l1.exe PID=    135996.
  
 Copyright (c) 1988-2017, Gaussian, Inc.  All Rights Reserved.
  
 This is part of the Gaussian(R) 16 program.  It is based on
 the Gaussian(R) 09 system (copyright 2009, Gaussian, Inc.),
 the Gaussian(R) 03 system (copyright 2003, Gaussian, Inc.),
 the Gaussian(R) 98 system (copyright 1998, Gaussian, Inc.),
 the Gaussian(R) 94 system (copyright 1995, Gaussian, Inc.),
 the Gaussian 92(TM) system (copyright 1992, Gaussian, Inc.),
 the Gaussian 90(TM) system (copyright 1990, Gaussian, Inc.),
 the Gaussian 88(TM) system (copyright 1988, Gaussian, Inc.),
 the Gaussian 86(TM) system (copyright 1986, Carnegie Mellon
 University), and the Gaussian 82(TM) system (copyright 1983,
 Carnegie Mellon University). Gaussian is a federally registered
 trademark of Gaussian, Inc.
  
 This software contains proprietary and confidential information,
 including trade secrets, belonging to Gaussian, Inc.
  
 This software is provided under written license and may be
 used, copied, transmitted, or stored only in accord with that
 written license.
  
 The following legend is applicable only to US Government
 contracts under FAR:
  
                    RESTRICTED RIGHTS LEGEND
  
 Use, reproduction and disclosure by the US Government is
 subject to restrictions as set forth in subparagraphs (a)
 and (c) of the Commercial Computer Software - Restricted
 Rights clause in FAR 52.227-19.
  
 Gaussian, Inc.
 340 Quinnipiac St., Bldg. 40, Wallingford CT 06492
  
  
 ---------------------------------------------------------------
 Warning -- This program may not be used in any manner that
 competes with the business of Gaussian, Inc. or will provide
 assistance to any competitor of Gaussian, Inc.  The licensee
 of this program is prohibited from giving any competitor of
 Gaussian, Inc. access to this program.  By using this program,
 the user acknowledges that Gaussian, Inc. is engaged in the
 business of creating and licensing software in the field of
 computational chemistry and represents and warrants to the
 licensee that it is not a competitor of Gaussian, Inc. and that
 it will not use this program in any manner prohibited above.
 ---------------------------------------------------------------
  

 Cite this work as:
 Gaussian 16, Revision B.01,
 M. J. Frisch, G. W. Trucks, H. B. Schlegel, G. E. Scuseria, 
 M. A. Robb, J. R. Cheeseman, G. Scalmani, V. Barone, 
 G. A. Petersson, H. Nakatsuji, X. Li, M. Caricato, A. V. Marenich, 
 J. Bloino, B. G. Janesko, R. Gomperts, B. Mennucci, H. P. Hratchian, 
 J. V. Ortiz, A. F. Izmaylov, J. L. Sonnenberg, D. Williams-Young, 
 F. Ding, F. Lipparini, F. Egidi, J. Goings, B. Peng, A. Petrone, 
 T. Henderson, D. Ranasinghe, V. G. Zakrzewski, J. Gao, N. Rega, 
 G. Zheng, W. Liang, M. Hada, M. Ehara, K. Toyota, R. Fukuda, 
 J. Hasegawa, M. Ishida, T. Nakajima, Y. Honda, O. Kitao, H. Nakai, 
 T. Vreven, K. Throssell, J. A. Montgomery, Jr., J. E. Peralta, 
 F. Ogliaro, M. J. Bearpark, J. J. Heyd, E. N. Brothers, K. N. Kudin, 
 V. N. Staroverov, T. A. Keith, R. Kobayashi, J. Normand, 
 K. Raghavachari, A. P. Rendell, J. C. Burant, S. S. Iyengar, 
 J. Tomasi, M. Cossi, J. M. Millam, M. Klene, C. Adamo, R. Cammi, 
 J. W. Ochterski, R. L. Martin, K. Morokuma, O. Farkas, 
 J. B. Foresman, and D. J. Fox, Gaussian, Inc., Wallingford CT, 2016.
 
 ******************************************
 Gaussian 16:  ES64L-G16RevB.01 20-Dec-2017
                14-Aug-2020 
 ******************************************
 %NProcShared=16
 Will use up to   16 processors via shared memory.
 ------------------------------------------------------------------
 #n B3LYP/Gen Pseudo=cards EmpiricalDispersion=GD3 Opt=modredundant
 ------------------------------------------------------------------
 1/18=120,19=15,26=3,38=1/1,3;
 2/9=110,12=2,17=6,18=5,40=1/2;
 3/5=7,11=2,16=1,17=8,25=1,30=1,71=1,74=-5,124=31/1,2,3;
 4//1;
 5/5=2,38=5/2;
 6/7=2,8=2,9=2,10=2,28=1/1;
 7//1,2,3,16;
 1/18=20,19=15,26=3/3(2);
 2/9=110/2;
 99//99;
 2/9=110/2;
 3/5=7,6=1,11=2,16=1,17=8,25=1,30=1,71=1,74=-5,82=7,124=31/1,2,3;
 4/5=5,16=3,69=1/1;
 5/5=2,38=5/2;
 7//1,2,3,16;
 1/18=20,19=15,26=3/3(-5);
 2/9=110/2;
 6/7=2,8=2,9=2,10=2,19=2,28=1/1;
 99/9=1/99;
 -----
 Title
 -----
 Symbolic Z-matrix:
 Charge =  0 Multiplicity = 1
 Zr                    0.65715  -0.13057  -0.05059 
 O                    -0.21481  -0.97629   1.4691 
 O                     0.09785   1.74113  -0.0233 
 O                    -0.27373  -0.92389  -1.60544 
 O                     2.59206  -0.4363   -0.08284 
 Si                   -1.83738  -1.26655  -1.9693 
 Si                   -1.12299   2.8298    0.06668 
 Si                   -1.7123   -1.25243   2.10291 
 Si                    4.21631  -0.26105   0.01252 
 O                     4.95566  -0.09972  -1.45475 
 O                     4.89877  -1.60704   0.69775 
 O                     4.44778   1.12944   0.86985 
 O                    -2.30626  -2.70672   1.62708 
 O                    -2.71805  -0.01497   1.59297 
 O                    -1.57896  -1.18515   3.73564 
 O                    -2.01431  -1.42793  -3.60066 
 O                    -2.831    -0.15082  -1.26676 
 O                    -2.34406  -2.67998  -1.25311 
 O                    -2.053     2.48051  -1.29198 
 O                    -0.64769   4.3973   -0.08887 
 O                    -1.9666    2.69009   1.46254 
 H                     5.33501   1.50516   0.85865 
 H                     5.3042   -0.91111  -1.84112 
 H                     4.46373  -1.97795   1.47352 
 H                    -2.39659  -2.85355   0.66836 
 H                    -2.3602   -1.41278   4.25123 
 H                    -3.05785  -0.127     0.68419 
 H                    -0.53702   4.89138   0.73144 
 H                    -2.26692   1.78749   1.69885 
 H                    -2.66398   3.17782  -1.56103 
 H                    -2.3045   -3.47348  -1.79887 
 H                    -1.28717  -1.10721  -4.1457 
 H                    -2.61918   0.79797  -1.41771 
 
 The following ModRedundant input section has been read:
 A       1       5       9 F                                                   
 

 GradGradGradGradGradGradGradGradGradGradGradGradGradGradGradGradGradGrad
 Berny optimization.
 Initialization pass.
                           ----------------------------
                           !    Initial Parameters    !
                           ! (Angstroms and Degrees)  !
 --------------------------                            --------------------------
 ! Name  Definition              Value          Derivative Info.                !
 --------------------------------------------------------------------------------
 ! R1    R(1,2)                  1.9455         estimate D2E/DX2                !
 ! R2    R(1,3)                  1.9537         estimate D2E/DX2                !
 ! R3    R(1,4)                  1.9782         estimate D2E/DX2                !
 ! R4    R(1,5)                  1.9592         estimate D2E/DX2                !
 ! R5    R(2,8)                  1.6494         estimate D2E/DX2                !
 ! R6    R(3,7)                  1.6382         estimate D2E/DX2                !
 ! R7    R(4,6)                  1.6416         estimate D2E/DX2                !
 ! R8    R(5,9)                  1.6365         estimate D2E/DX2                !
 ! R9    R(6,16)                 1.6488         estimate D2E/DX2                !
 ! R10   R(6,17)                 1.651          estimate D2E/DX2                !
 ! R11   R(6,18)                 1.6636         estimate D2E/DX2                !
 ! R12   R(7,19)                 1.6831         estimate D2E/DX2                !
 ! R13   R(7,20)                 1.6453         estimate D2E/DX2                !
 ! R14   R(7,21)                 1.637          estimate D2E/DX2                !
 ! R15   R(8,13)                 1.6414         estimate D2E/DX2                !
 ! R16   R(8,14)                 1.6742         estimate D2E/DX2                !
 ! R17   R(8,15)                 1.6395         estimate D2E/DX2                !
 ! R18   R(9,10)                 1.6509         estimate D2E/DX2                !
 ! R19   R(9,11)                 1.6574         estimate D2E/DX2                !
 ! R20   R(9,12)                 1.6499         estimate D2E/DX2                !
 ! R21   R(10,23)                0.9639         estimate D2E/DX2                !
 ! R22   R(11,24)                0.9637         estimate D2E/DX2                !
 ! R23   R(12,22)                0.9636         estimate D2E/DX2                !
 ! R24   R(13,25)                0.9741         estimate D2E/DX2                !
 ! R25   R(14,27)                0.9767         estimate D2E/DX2                !
 ! R26   R(15,26)                0.9633         estimate D2E/DX2                !
 ! R27   R(16,32)                0.9637         estimate D2E/DX2                !
 ! R28   R(17,33)                0.9838         estimate D2E/DX2                !
 ! R29   R(18,31)                0.9639         estimate D2E/DX2                !
 ! R30   R(19,30)                0.9654         estimate D2E/DX2                !
 ! R31   R(20,28)                0.964          estimate D2E/DX2                !
 ! R32   R(21,29)                0.9802         estimate D2E/DX2                !
 ! A1    A(2,1,3)              106.0958         estimate D2E/DX2                !
 ! A2    A(2,1,4)              103.2217         estimate D2E/DX2                !
 ! A3    A(2,1,5)              112.809          estimate D2E/DX2                !
 ! A4    A(3,1,4)              105.0976         estimate D2E/DX2                !
 ! A5    A(3,1,5)              115.6243         estimate D2E/DX2                !
 ! A6    A(4,1,5)              112.9055         estimate D2E/DX2                !
 ! A7    A(1,2,8)              141.2479         estimate D2E/DX2                !
 ! A8    A(1,3,7)              148.2962         estimate D2E/DX2                !
 ! A9    A(1,4,6)              134.9216         estimate D2E/DX2                !
 ! A10   A(1,5,9)              164.275          Frozen                          !
 ! A11   A(4,6,16)             109.9952         estimate D2E/DX2                !
 ! A12   A(4,6,17)             109.7479         estimate D2E/DX2                !
 ! A13   A(4,6,18)             111.8416         estimate D2E/DX2                !
 ! A14   A(16,6,17)            114.9978         estimate D2E/DX2                !
 ! A15   A(16,6,18)            108.0659         estimate D2E/DX2                !
 ! A16   A(17,6,18)            101.9868         estimate D2E/DX2                !
 ! A17   A(3,7,19)             103.2693         estimate D2E/DX2                !
 ! A18   A(3,7,20)             114.3705         estimate D2E/DX2                !
 ! A19   A(3,7,21)             111.9732         estimate D2E/DX2                !
 ! A20   A(19,7,20)            106.3206         estimate D2E/DX2                !
 ! A21   A(19,7,21)            112.6976         estimate D2E/DX2                !
 ! A22   A(20,7,21)            108.1073         estimate D2E/DX2                !
 ! A23   A(2,8,13)             111.4371         estimate D2E/DX2                !
 ! A24   A(2,8,14)             107.7357         estimate D2E/DX2                !
 ! A25   A(2,8,15)             107.5757         estimate D2E/DX2                !
 ! A26   A(13,8,14)            110.4386         estimate D2E/DX2                !
 ! A27   A(13,8,15)            110.7614         estimate D2E/DX2                !
 ! A28   A(14,8,15)            108.7748         estimate D2E/DX2                !
 ! A29   A(5,9,10)             113.7768         estimate D2E/DX2                !
 ! A30   A(5,9,11)             110.2316         estimate D2E/DX2                !
 ! A31   A(5,9,12)             105.0573         estimate D2E/DX2                !
 ! A32   A(10,9,11)            105.2125         estimate D2E/DX2                !
 ! A33   A(10,9,12)            108.46           estimate D2E/DX2                !
 ! A34   A(11,9,12)            114.3199         estimate D2E/DX2                !
 ! A35   A(9,10,23)            115.8441         estimate D2E/DX2                !
 ! A36   A(9,11,24)            117.3556         estimate D2E/DX2                !
 ! A37   A(9,12,22)            116.857          estimate D2E/DX2                !
 ! A38   A(8,13,25)            116.8995         estimate D2E/DX2                !
 ! A39   A(8,14,27)            114.0567         estimate D2E/DX2                !
 ! A40   A(8,15,26)            117.2159         estimate D2E/DX2                !
 ! A41   A(6,16,32)            116.4905         estimate D2E/DX2                !
 ! A42   A(6,17,33)            117.1861         estimate D2E/DX2                !
 ! A43   A(6,18,31)            116.3077         estimate D2E/DX2                !
 ! A44   A(7,19,30)            115.1372         estimate D2E/DX2                !
 ! A45   A(7,20,28)            116.1679         estimate D2E/DX2                !
 ! A46   A(7,21,29)            116.2367         estimate D2E/DX2                !
 ! D1    D(3,1,2,8)             57.7298         estimate D2E/DX2                !
 ! D2    D(4,1,2,8)            -52.5294         estimate D2E/DX2                !
 ! D3    D(5,1,2,8)           -174.7061         estimate D2E/DX2                !
 ! D4    D(2,1,3,7)            -50.0979         estimate D2E/DX2                !
 ! D5    D(4,1,3,7)             58.8318         estimate D2E/DX2                !
 ! D6    D(5,1,3,7)           -175.9639         estimate D2E/DX2                !
 ! D7    D(2,1,4,6)             42.7685         estimate D2E/DX2                !
 ! D8    D(3,1,4,6)            -68.2309         estimate D2E/DX2                !
 ! D9    D(5,1,4,6)            164.8806         estimate D2E/DX2                !
 ! D10   D(2,1,5,9)           -106.925          estimate D2E/DX2                !
 ! D11   D(3,1,5,9)             15.438          estimate D2E/DX2                !
 ! D12   D(4,1,5,9)            136.52           estimate D2E/DX2                !
 ! D13   D(1,2,8,13)            93.5294         estimate D2E/DX2                !
 ! D14   D(1,2,8,14)           -27.7663         estimate D2E/DX2                !
 ! D15   D(1,2,8,15)          -144.8803         estimate D2E/DX2                !
 ! D16   D(1,3,7,19)           -61.1015         estimate D2E/DX2                !
 ! D17   D(1,3,7,20)          -176.1756         estimate D2E/DX2                !
 ! D18   D(1,3,7,21)            60.4091         estimate D2E/DX2                !
 ! D19   D(1,4,6,16)           160.1673         estimate D2E/DX2                !
 ! D20   D(1,4,6,17)            32.6919         estimate D2E/DX2                !
 ! D21   D(1,4,6,18)           -79.7421         estimate D2E/DX2                !
 ! D22   D(1,5,9,10)          -102.478          estimate D2E/DX2                !
 ! D23   D(1,5,9,11)           139.6198         estimate D2E/DX2                !
 ! D24   D(1,5,9,12)            16.0009         estimate D2E/DX2                !
 ! D25   D(4,6,16,32)          -14.2008         estimate D2E/DX2                !
 ! D26   D(17,6,16,32)         110.2974         estimate D2E/DX2                !
 ! D27   D(18,6,16,32)        -136.5535         estimate D2E/DX2                !
 ! D28   D(4,6,17,33)           51.0102         estimate D2E/DX2                !
 ! D29   D(16,6,17,33)         -73.6177         estimate D2E/DX2                !
 ! D30   D(18,6,17,33)         169.7166         estimate D2E/DX2                !
 ! D31   D(4,6,18,31)          -96.4423         estimate D2E/DX2                !
 ! D32   D(16,6,18,31)          24.7714         estimate D2E/DX2                !
 ! D33   D(17,6,18,31)         146.3494         estimate D2E/DX2                !
 ! D34   D(3,7,19,30)         -162.1838         estimate D2E/DX2                !
 ! D35   D(20,7,19,30)         -41.4662         estimate D2E/DX2                !
 ! D36   D(21,7,19,30)          76.7958         estimate D2E/DX2                !
 ! D37   D(3,7,20,28)          -98.4275         estimate D2E/DX2                !
 ! D38   D(19,7,20,28)         148.2939         estimate D2E/DX2                !
 ! D39   D(21,7,20,28)          27.0445         estimate D2E/DX2                !
 ! D40   D(3,7,21,29)          -49.8999         estimate D2E/DX2                !
 ! D41   D(19,7,21,29)          66.0156         estimate D2E/DX2                !
 ! D42   D(20,7,21,29)        -176.7752         estimate D2E/DX2                !
 ! D43   D(2,8,13,25)          -58.4675         estimate D2E/DX2                !
 ! D44   D(14,8,13,25)          61.2404         estimate D2E/DX2                !
 ! D45   D(15,8,13,25)        -178.189          estimate D2E/DX2                !
 ! D46   D(2,8,14,27)           80.2924         estimate D2E/DX2                !
 ! D47   D(13,8,14,27)         -41.6242         estimate D2E/DX2                !
 ! D48   D(15,8,14,27)        -163.3755         estimate D2E/DX2                !
 ! D49   D(2,8,15,26)         -174.1993         estimate D2E/DX2                !
 ! D50   D(13,8,15,26)         -52.1886         estimate D2E/DX2                !
 ! D51   D(14,8,15,26)          69.3659         estimate D2E/DX2                !
 ! D52   D(5,9,10,23)          -94.8502         estimate D2E/DX2                !
 ! D53   D(11,9,10,23)          25.9079         estimate D2E/DX2                !
 ! D54   D(12,9,10,23)         148.64           estimate D2E/DX2                !
 ! D55   D(5,9,11,24)          -43.8205         estimate D2E/DX2                !
 ! D56   D(10,9,11,24)        -166.8799         estimate D2E/DX2                !
 ! D57   D(12,9,11,24)          74.2393         estimate D2E/DX2                !
 ! D58   D(5,9,12,22)         -166.4771         estimate D2E/DX2                !
 ! D59   D(10,9,12,22)         -44.4742         estimate D2E/DX2                !
 ! D60   D(11,9,12,22)          72.5545         estimate D2E/DX2                !
 --------------------------------------------------------------------------------
 Trust Radius=3.00D-01 FncErr=1.00D-07 GrdErr=1.00D-06 EigMax=2.50D+02 EigMin=1.00D-04
 Number of steps in this run=    148 maximum allowed number of steps=    198.
 GradGradGradGradGradGradGradGradGradGradGradGradGradGradGradGradGradGrad

                          Input orientation:                          
 ---------------------------------------------------------------------
 Center     Atomic      Atomic             Coordinates (Angstroms)
 Number     Number       Type             X           Y           Z
 ---------------------------------------------------------------------
      1         40           0        0.657150   -0.130570   -0.050590
      2          8           0       -0.214810   -0.976290    1.469100
      3          8           0        0.097850    1.741130   -0.023300
      4          8           0       -0.273730   -0.923890   -1.605440
      5          8           0        2.592060   -0.436300   -0.082840
      6         14           0       -1.837380   -1.266550   -1.969300
      7         14           0       -1.122990    2.829800    0.066680
      8         14           0       -1.712300   -1.252430    2.102910
      9         14           0        4.216310   -0.261050    0.012520
     10          8           0        4.955660   -0.099720   -1.454750
     11          8           0        4.898770   -1.607040    0.697750
     12          8           0        4.447780    1.129440    0.869850
     13          8           0       -2.306260   -2.706720    1.627080
     14          8           0       -2.718050   -0.014970    1.592970
     15          8           0       -1.578960   -1.185150    3.735640
     16          8           0       -2.014310   -1.427930   -3.600660
     17          8           0       -2.831000   -0.150820   -1.266760
     18          8           0       -2.344060   -2.679980   -1.253110
     19          8           0       -2.053000    2.480510   -1.291980
     20          8           0       -0.647690    4.397300   -0.088870
     21          8           0       -1.966600    2.690090    1.462540
     22          1           0        5.335010    1.505160    0.858650
     23          1           0        5.304200   -0.911110   -1.841120
     24          1           0        4.463730   -1.977950    1.473520
     25          1           0       -2.396590   -2.853550    0.668360
     26          1           0       -2.360200   -1.412780    4.251230
     27          1           0       -3.057850   -0.127000    0.684190
     28          1           0       -0.537020    4.891380    0.731440
     29          1           0       -2.266920    1.787490    1.698850
     30          1           0       -2.663980    3.177820   -1.561030
     31          1           0       -2.304500   -3.473480   -1.798870
     32          1           0       -1.287170   -1.107210   -4.145700
     33          1           0       -2.619180    0.797970   -1.417710
 ---------------------------------------------------------------------
                    Distance matrix (angstroms):
                    1          2          3          4          5
     1  Zr   0.000000
     2  O    1.945511   0.000000
     3  O    1.953669   3.115989   0.000000
     4  O    1.978245   3.075551   3.121469   0.000000
     5  O    1.959180   3.252480   3.311469   3.281586   0.000000
     6  Si   3.345830   3.813080   4.071630   1.641588   4.885487
     7  Si   3.456362   4.156669   1.638215   4.196119   4.948875
     8  Si   3.392702   1.649377   4.093753   3.991150   4.896028
     9  Si   3.562110   4.718900   4.579489   4.818466   1.636458
    10  O    4.522146   6.004251   5.388515   5.296082   2.753548
    11  O    4.553166   5.209753   5.897371   5.703169   2.702011
    12  O    4.099233   5.151014   4.482608   5.712782   2.608229
    13  O    4.270003   2.719101   5.318540   4.214125   5.663230
    14  O    3.755879   2.684342   3.691275   4.126822   5.584185
    15  O    4.521932   2.653626   5.050192   5.504454   5.704294
    16  O    4.628481   5.398578   5.225100   2.695288   5.880224
    17  O    3.694140   3.874375   3.701868   2.692948   5.558124
    18  O    4.117379   3.853141   5.198228   2.737564   5.546973
    19  O    3.962790   4.790822   2.604302   3.854089   5.616617
    20  O    4.712290   5.611606   2.759596   5.545709   5.818909
    21  O    4.138810   4.063392   2.714811   5.033802   5.739677
    22  H    5.038324   6.109889   5.316142   6.590143   3.489906
    23  H    5.040864   6.435936   6.119226   5.582921   3.266909
    24  H    4.497308   4.784567   5.927304   5.747570   2.881335
    25  H    4.154135   2.987550   5.273681   3.660640   5.594107
    26  H    5.408708   3.540264   5.853270   6.236422   6.653011
    27  H    3.786970   3.069243   3.734822   3.691716   5.710121
    28  H    5.220881   5.922627   3.301025   6.272774   6.232044
    29  H    3.910202   3.449988   2.925763   4.716219   5.632881
    30  H    4.925117   5.695327   3.472232   4.747556   6.547737
    31  H    4.796134   4.613284   6.009667   3.265249   6.012115
    32  H    4.637255   5.717786   5.198606   2.741092   5.657329
    33  H    3.669542   4.154836   3.196276   2.915678   5.519268
                    6          7          8          9         10
     6  Si   0.000000
     7  Si   4.629865   0.000000
     8  Si   4.074155   4.599796   0.000000
     9  Si   6.448706   6.169636   6.364038   0.000000
    10  O    6.911704   6.917140   7.645088   1.650923   0.000000
    11  O    7.252917   7.506357   6.768048   1.657402   2.628404
    12  O    7.301012   5.879608   6.718655   1.649865   2.678160
    13  O    3.902293   5.872651   1.641390   7.150666   8.308406
    14  O    3.877086   3.600902   1.674180   7.116441   8.257215
    15  O    5.711370   5.457930   1.639547   6.949873   8.415436
    16  O    1.648843   5.689648   5.714256   7.296390   7.412797
    17  O    1.650968   3.685031   3.717487   7.163329   7.789097
    18  O    1.663562   5.795734   3.701336   7.105737   7.744954
    19  O    3.813884   1.683116   5.057291   6.965782   7.470301
    20  O    6.085275   1.645346   6.152783   6.735651   7.313436
    21  O    5.239201   1.636955   4.002275   7.002868   8.013196
    22  H    8.192854   6.639853   7.669228   2.255421   2.841015
    23  H    7.151569   7.677427   8.056249   2.245454   0.963906
    24  H    7.215476   7.503672   6.250269   2.267925   3.513475
    25  H    3.128663   5.855300   2.256052   7.133136   8.133066
    26  H    6.244175   6.086102   2.249614   7.908453   9.370386
    27  H    3.135144   3.587153   2.256073   7.306334   8.294103
    28  H    6.848725   2.243965   6.403797   7.046881   7.736927
    29  H    4.792389   2.249214   3.116405   7.005176   8.103852
    30  H    4.538984   2.268305   5.827286   7.851132   8.295329
    31  H    2.262253   6.678891   4.528537   7.491449   8.013152
    32  H    2.250519   5.768115   6.264739   6.949466   6.872349
    33  H    2.275457   2.927513   4.173887   7.063356   7.627937
                   11         12         13         14         15
    11  O    0.000000
    12  O    2.778729   0.000000
    13  O    7.347476   7.804267   0.000000
    14  O    7.832755   7.292578   2.723280   0.000000
    15  O    7.167130   7.063404   2.700031   2.694046   0.000000
    16  O    8.142425   8.263426   5.389787   5.428213   7.353215
    17  O    8.107356   7.693166   3.896445   2.865182   5.259415
    18  O    7.577311   8.071414   2.880562   3.916927   5.263793
    19  O    8.306275   6.982767   5.957550   3.872034   6.240091
    20  O    8.211826   6.128774   7.494160   5.155880   6.830658
    21  O    8.135326   6.628060   5.409991   2.810523   4.509405
    22  H    3.146742   0.963570   8.758963   8.228110   7.957250
    23  H    2.663560   3.499523   8.554047   8.772259   8.863027
    24  H    0.963666   3.165524   6.810833   7.446175   6.500755
    25  H    7.401144   7.921503   0.974096   3.002628   3.586124
    26  H    8.084405   8.015311   2.926321   3.024612   0.963319
    27  H    8.093115   7.612332   2.847610   0.976676   3.552203
    28  H    8.472214   6.246566   7.852611   5.437959   6.858212
    29  H    7.992005   6.797607   4.494955   1.861073   3.668568
    30  H    9.229960   7.789876   6.702225   4.488268   6.947481
    31  H    7.848809   8.596640   3.510706   4.861779   6.032716
    32  H    7.872401   7.940277   6.076345   6.014378   7.887125
    33  H    8.171831   7.435370   4.653119   3.120071   5.618882
                   16         17         18         19         20
    16  O    0.000000
    17  O    2.782999   0.000000
    18  O    2.680924   2.575645   0.000000
    19  O    4.539538   2.744051   5.168838   0.000000
    20  O    6.937840   5.180701   7.370279   2.663917   0.000000
    21  O    6.526589   4.033241   6.029501   2.763832   2.657247
    22  H    9.083004   8.599032   8.996835   7.756237   6.712300
    23  H    7.544778   8.190812   7.872137   8.119916   8.165451
    24  H    8.247110   8.003788   7.367046   8.366219   8.319344
    25  H    4.516975   3.352335   1.930009   5.693258   7.497124
    26  H    7.859519   5.680001   5.648346   6.780801   7.451590
    27  H    4.597971   1.964239   3.283342   3.422584   5.184186
    28  H    7.802766   5.888882   8.033015   3.493525   0.963987
    29  H    6.203833   3.587489   5.355213   3.077516   3.553724
    30  H    5.078887   3.345794   5.874605   0.965363   2.778455
    31  H    2.741338   3.405938   0.963878   5.980818   8.223035
    32  H    0.963671   3.403878   3.457991   4.647790   6.867782
    33  H    3.175810   0.983797   3.492695   1.779693   4.313672
                   21         22         23         24         25
    21  O    0.000000
    22  H    7.421742   0.000000
    23  H    8.760556   3.623268   0.000000
    24  H    7.946060   3.642698   3.582091   0.000000
    25  H    5.616721   8.877624   8.329029   6.962683   0.000000
    26  H    4.976470   8.901698   9.803644   7.389256   3.861878
    27  H    3.119720   8.551870   8.770171   7.786092   2.805635
    28  H    2.724681   6.779632   8.625938   8.529119   7.965295
    29  H    0.980164   7.653430   8.782693   7.715631   4.755836
    30  H    3.141050   8.522704   8.960452   9.305628   6.435767
    31  H    6.981444   9.497967   8.028689   7.665121   2.545588
    32  H    6.806869   8.701797   6.985392   8.087439   5.239818
    33  H    3.507395   8.303678   8.116661   8.138339   4.211274
                   26         27         28         29         30
    26  H    0.000000
    27  H    3.855350   0.000000
    28  H    7.446834   5.616133   0.000000
    29  H    4.094517   2.306594   3.682739   0.000000
    30  H    7.412709   4.014721   3.565903   3.566159   0.000000
    31  H    6.391658   4.234625   8.916128   6.317694   6.665252
    32  H    8.470726   5.236789   7.767387   6.595299   5.190145
    33  H    6.090268   2.337944   5.070527   3.288797   2.384582
                   31         32         33
    31  H    0.000000
    32  H    3.484509   0.000000
    33  H    4.299953   3.584116   0.000000
 Stoichiometry    H12O16Si4Zr
 Framework group  C1[X(H12O16Si4Zr)]
 Deg. of freedom    93
 Full point group                 C1      NOp   1
 Largest Abelian subgroup         C1      NOp   1
 Largest concise Abelian subgroup C1      NOp   1
                         Standard orientation:                         
 ---------------------------------------------------------------------
 Center     Atomic      Atomic             Coordinates (Angstroms)
 Number     Number       Type             X           Y           Z
 ---------------------------------------------------------------------
      1         40           0        0.657803   -0.124944   -0.071980
      2          8           0       -0.222513   -0.907761    1.476328
      3          8           0        0.102818    1.747587   -0.121381
      4          8           0       -0.268426   -0.977310   -1.598094
      5          8           0        2.592103   -0.435959   -0.083790
      6         14           0       -1.831344   -1.330710   -1.954759
      7         14           0       -1.115812    2.841648   -0.079900
      8         14           0       -1.723293   -1.155238    2.114181
      9         14           0        4.216349   -0.260628    0.011492
     10          8           0        4.962219   -0.159288   -1.457846
     11          8           0        4.892749   -1.579853    0.752510
     12          8           0        4.447510    1.162285    0.813950
     13          8           0       -2.318689   -2.625962    1.693899
     14          8           0       -2.723971    0.063210    1.551236
     15          8           0       -1.596637   -1.023496    3.743511
     16          8           0       -2.001818   -1.556327   -3.579172
     17          8           0       -2.825259   -0.185795   -1.301307
     18          8           0       -2.344358   -2.713483   -1.185219
     19          8           0       -2.040944    2.440746   -1.427597
     20          8           0       -0.636162    4.400691   -0.295495
     21          8           0       -1.965591    2.759306    1.316781
     22          1           0        5.335665    1.535316    0.791647
     23          1           0        5.310457   -0.986138   -1.810218
     24          1           0        4.453588   -1.918723    1.540519
     25          1           0       -2.405349   -2.810532    0.741383
     26          1           0       -2.380566   -1.228766    4.264379
     27          1           0       -3.060224   -0.084057    0.646172
     28          1           0       -0.527763    4.926698    0.505029
     29          1           0       -2.269030    1.867458    1.587436
     30          1           0       -2.649142    3.128167   -1.726719
     31          1           0       -2.304387   -3.528105   -1.698886
     32          1           0       -1.271645   -1.259091   -4.133393
     33          1           0       -2.610567    0.755788   -1.488881
 ---------------------------------------------------------------------
 Rotational constants (GHZ):           0.2124062           0.1338475           0.1240651
 General basis read from cards:  (5D, 7F)
 ======================================================================================================
                                       Pseudopotential Parameters
 ======================================================================================================
  Center     Atomic      Valence      Angular      Power
  Number     Number     Electrons     Momentum     of R      Exponent        Coefficient   SO-Coeffient
 ======================================================================================================
    1         40           12
                                      G and up 
                                                     2        1.0000000        0.00000000    0.00000000
                                      S - G
                                                     2        8.6365280      150.24299400    0.00000000
                                                     2        3.7176390       18.78003600    0.00000000
                                      P - G
                                                     2        7.6267280       33.19279100    0.00000000
                                                     2        7.4532070       66.38903900    0.00000000
                                                     2        3.3583890        4.62072600    0.00000000
                                                     2        3.2297380        9.26027000    0.00000000
                                      D - G
                                                     2        5.9380860       13.99338300    0.00000000
                                                     2        5.8255440       20.99588200    0.00000000
                                                     2        2.2050190        2.28516600    0.00000000
                                                     2        2.2062920        3.44126000    0.00000000
                                      F - G
                                                     2        4.8002150       -5.23932000    0.00000000
                                                     2        4.7989920       -6.98742400    0.00000000
    2          8
                                   No pseudopotential on this center.
    3          8
                                   No pseudopotential on this center.
    4          8
                                   No pseudopotential on this center.
    5          8
                                   No pseudopotential on this center.
    6         14
                                   No pseudopotential on this center.
    7         14
                                   No pseudopotential on this center.
    8         14
                                   No pseudopotential on this center.
    9         14
                                   No pseudopotential on this center.
   10          8
                                   No pseudopotential on this center.
   11          8
                                   No pseudopotential on this center.
   12          8
                                   No pseudopotential on this center.
   13          8
                                   No pseudopotential on this center.
   14          8
                                   No pseudopotential on this center.
   15          8
                                   No pseudopotential on this center.
   16          8
                                   No pseudopotential on this center.
   17          8
                                   No pseudopotential on this center.
   18          8
                                   No pseudopotential on this center.
   19          8
                                   No pseudopotential on this center.
   20          8
                                   No pseudopotential on this center.
   21          8
                                   No pseudopotential on this center.
   22          1
                                   No pseudopotential on this center.
   23          1
                                   No pseudopotential on this center.
   24          1
                                   No pseudopotential on this center.
   25          1
                                   No pseudopotential on this center.
   26          1
                                   No pseudopotential on this center.
   27          1
                                   No pseudopotential on this center.
   28          1
                                   No pseudopotential on this center.
   29          1
                                   No pseudopotential on this center.
   30          1
                                   No pseudopotential on this center.
   31          1
                                   No pseudopotential on this center.
   32          1
                                   No pseudopotential on this center.
   33          1
                                   No pseudopotential on this center.
 ======================================================================================================
 There are   570 symmetry adapted cartesian basis functions of A   symmetry.
 There are   524 symmetry adapted basis functions of A   symmetry.
   524 basis functions,  1074 primitive gaussians,   570 cartesian basis functions
   104 alpha electrons      104 beta electrons
       nuclear repulsion energy      2832.9291772794 Hartrees.
 NAtoms=   33 NActive=   33 NUniq=   33 SFac= 1.00D+00 NAtFMM=   60 NAOKFM=F Big=F
 Integral buffers will be    131072 words long.
 Raffenetti 2 integral format.
 Two-electron integral symmetry is turned on.
 Nuclear repulsion after empirical dispersion term =     2832.8883701895 Hartrees.
 One-electron integrals computed using PRISM.
 PrsmSu:  requested number of processors reduced to:   4 ShMem   1 Linda.
   1 Symmetry operations used in ECPInt.
 ECPInt:  NShTT=   13203 NPrTT=   78401 LenC2=   11526 LenP2D=   44634.
 LDataN:  DoStor=T MaxTD1= 8 Len=  415
 Number of processors reduced to  13 by ecpmxn.
 NBasis=   524 RedAO= T EigKep=  3.16D-05  NBF=   524
 NBsUse=   524 1.00D-06 EigRej= -1.00D+00 NBFU=   524
 Defaulting to unpruned grid for atomic number  40.
 ExpMin= 1.01D-02 ExpMax= 1.61D+04 ExpMxC= 2.43D+03 IAcc=3 IRadAn=         5 AccDes= 0.00D+00
 Harris functional with IExCor=  402 and IRadAn=       5 diagonalized for initial guess.
 HarFok:  IExCor=  402 AccDes= 0.00D+00 IRadAn=         5 IDoV= 1 UseB2=F ITyADJ=14
 ICtDFT=  3500011 ScaDFX=  1.000000  1.000000  1.000000  1.000000
 Defaulting to unpruned grid for atomic number  40.
 FoFCou: FMM=F IPFlag=           0 FMFlag=      100000 FMFlg1=           0
         NFxFlg=           0 DoJE=T BraDBF=F KetDBF=T FulRan=T
         wScrn=  0.000000 ICntrl=       500 IOpCl=  0 I1Cent=   200000004 NGrid=           0
         NMat0=    1 NMatS0=      1 NMatT0=    0 NMatD0=    1 NMtDS0=    0 NMtDT0=    0
 Petite list used in FoFCou.
 Requested convergence on RMS density matrix=1.00D-08 within 128 cycles.
 Requested convergence on MAX density matrix=1.00D-06.
 Requested convergence on             energy=1.00D-06.
 No special actions if energy rises.
 Defaulting to unpruned grid for atomic number  40.
 Defaulting to unpruned grid for atomic number  40.
 Defaulting to unpruned grid for atomic number  40.
 Defaulting to unpruned grid for atomic number  40.
 Defaulting to unpruned grid for atomic number  40.
 Defaulting to unpruned grid for atomic number  40.
 Defaulting to unpruned grid for atomic number  40.
 Defaulting to unpruned grid for atomic number  40.
 Defaulting to unpruned grid for atomic number  40.
 Defaulting to unpruned grid for atomic number  40.
 Defaulting to unpruned grid for atomic number  40.
 Defaulting to unpruned grid for atomic number  40.
 Defaulting to unpruned grid for atomic number  40.
 Defaulting to unpruned grid for atomic number  40.
 Defaulting to unpruned grid for atomic number  40.
 Defaulting to unpruned grid for atomic number  40.
 SCF Done:  E(RB3LYP) =  -2416.94685489     A.U. after   14 cycles
            NFock= 14  Conv=0.25D-08     -V/T= 2.0185

 **********************************************************************

            Population analysis using the SCF Density.

 **********************************************************************

 Orbital symmetries:
       Occupied  (A) (A) (A) (A) (A) (A) (A) (A) (A) (A) (A) (A)
                 (A) (A) (A) (A) (A) (A) (A) (A) (A) (A) (A) (A)
                 (A) (A) (A) (A) (A) (A) (A) (A) (A) (A) (A) (A)
                 (A) (A) (A) (A) (A) (A) (A) (A) (A) (A) (A) (A)
                 (A) (A) (A) (A) (A) (A) (A) (A) (A) (A) (A) (A)
                 (A) (A) (A) (A) (A) (A) (A) (A) (A) (A) (A) (A)
                 (A) (A) (A) (A) (A) (A) (A) (A) (A) (A) (A) (A)
                 (A) (A) (A) (A) (A) (A) (A) (A) (A) (A) (A) (A)
                 (A) (A) (A) (A) (A) (A) (A) (A)
       Virtual   (A) (A) (A) (A) (A) (A) (A) (A) (A) (A) (A) (A)
                 (A) (A) (A) (A) (A) (A) (A) (A) (A) (A) (A) (A)
                 (A) (A) (A) (A) (A) (A) (A) (A) (A) (A) (A) (A)
                 (A) (A) (A) (A) (A) (A) (A) (A) (A) (A) (A) (A)
                 (A) (A) (A) (A) (A) (A) (A) (A) (A) (A) (A) (A)
                 (A) (A) (A) (A) (A) (A) (A) (A) (A) (A) (A) (A)
                 (A) (A) (A) (A) (A) (A) (A) (A) (A) (A) (A) (A)
                 (A) (A) (A) (A) (A) (A) (A) (A) (A) (A) (A) (A)
                 (A) (A) (A) (A) (A) (A) (A) (A) (A) (A) (A) (A)
                 (A) (A) (A) (A) (A) (A) (A) (A) (A) (A) (A) (A)
                 (A) (A) (A) (A) (A) (A) (A) (A) (A) (A) (A) (A)
                 (A) (A) (A) (A) (A) (A) (A) (A) (A) (A) (A) (A)
                 (A) (A) (A) (A) (A) (A) (A) (A) (A) (A) (A) (A)
                 (A) (A) (A) (A) (A) (A) (A) (A) (A) (A) (A) (A)
                 (A) (A) (A) (A) (A) (A) (A) (A) (A) (A) (A) (A)
                 (A) (A) (A) (A) (A) (A) (A) (A) (A) (A) (A) (A)
                 (A) (A) (A) (A) (A) (A) (A) (A) (A) (A) (A) (A)
                 (A) (A) (A) (A) (A) (A) (A) (A) (A) (A) (A) (A)
                 (A) (A) (A) (A) (A) (A) (A) (A) (A) (A) (A) (A)
                 (A) (A) (A) (A) (A) (A) (A) (A) (A) (A) (A) (A)
                 (A) (A) (A) (A) (A) (A) (A) (A) (A) (A) (A) (A)
                 (A) (A) (A) (A) (A) (A) (A) (A) (A) (A) (A) (A)
                 (A) (A) (A) (A) (A) (A) (A) (A) (A) (A) (A) (A)
                 (A) (A) (A) (A) (A) (A) (A) (A) (A) (A) (A) (A)
                 (A) (A) (A) (A) (A) (A) (A) (A) (A) (A) (A) (A)
                 (A) (A) (A) (A) (A) (A) (A) (A) (A) (A) (A) (A)
                 (A) (A) (A) (A) (A) (A) (A) (A) (A) (A) (A) (A)
                 (A) (A) (A) (A) (A) (A) (A) (A) (A) (A) (A) (A)
                 (A) (A) (A) (A) (A) (A) (A) (A) (A) (A) (A) (A)
                 (A) (A) (A) (A) (A) (A) (A) (A) (A) (A) (A) (A)
                 (A) (A) (A) (A) (A) (A) (A) (A) (A) (A) (A) (A)
                 (A) (A) (A) (A) (A) (A) (A) (A) (A) (A) (A) (A)
                 (A) (A) (A) (A) (A) (A) (A) (A) (A) (A) (A) (A)
                 (A) (A) (A) (A) (A) (A) (A) (A) (A) (A) (A) (A)
                 (A) (A) (A) (A) (A) (A) (A) (A) (A) (A) (A) (A)
 The electronic state is 1-A.
 Alpha  occ. eigenvalues --  -66.22803 -66.21756 -66.21490 -66.21043 -19.18588
 Alpha  occ. eigenvalues --  -19.18351 -19.17784 -19.17026 -19.16733 -19.16534
 Alpha  occ. eigenvalues --  -19.16438 -19.16224 -19.16188 -19.16011 -19.16006
 Alpha  occ. eigenvalues --  -19.15502 -19.15335 -19.15260 -19.14899 -19.14710
 Alpha  occ. eigenvalues --   -5.36863  -5.35837  -5.35566  -5.35103  -3.72847
 Alpha  occ. eigenvalues --   -3.72820  -3.72774  -3.71828  -3.71781  -3.71746
 Alpha  occ. eigenvalues --   -3.71535  -3.71526  -3.71487  -3.71068  -3.71060
 Alpha  occ. eigenvalues --   -3.71034  -2.13366  -1.29608  -1.29524  -1.29368
 Alpha  occ. eigenvalues --   -1.05679  -1.04776  -1.04151  -1.03502  -1.02563
 Alpha  occ. eigenvalues --   -1.02170  -1.01472  -1.00920  -1.00760  -1.00670
 Alpha  occ. eigenvalues --   -0.99836  -0.99308  -0.97371  -0.96282  -0.95727
 Alpha  occ. eigenvalues --   -0.95408  -0.60989  -0.59160  -0.58974  -0.58496
 Alpha  occ. eigenvalues --   -0.55539  -0.54532  -0.53865  -0.53043  -0.52988
 Alpha  occ. eigenvalues --   -0.52496  -0.52154  -0.51708  -0.48777  -0.47603
 Alpha  occ. eigenvalues --   -0.47203  -0.46726  -0.43376  -0.42654  -0.41861
 Alpha  occ. eigenvalues --   -0.41395  -0.41112  -0.40527  -0.39829  -0.39337
 Alpha  occ. eigenvalues --   -0.38803  -0.38677  -0.38652  -0.38146  -0.38022
 Alpha  occ. eigenvalues --   -0.37628  -0.37483  -0.37194  -0.36543  -0.36408
 Alpha  occ. eigenvalues --   -0.36076  -0.35625  -0.35478  -0.35094  -0.34895
 Alpha  occ. eigenvalues --   -0.34607  -0.34005  -0.33696  -0.33487  -0.33256
 Alpha  occ. eigenvalues --   -0.32821  -0.32177  -0.32056  -0.31305
 Alpha virt. eigenvalues --   -0.04326  -0.03163  -0.03041  -0.02752  -0.02092
 Alpha virt. eigenvalues --   -0.01173  -0.00555  -0.00125   0.00120   0.00286
 Alpha virt. eigenvalues --    0.00763   0.00925   0.01028   0.01949   0.02345
 Alpha virt. eigenvalues --    0.03251   0.03329   0.03853   0.03950   0.04061
 Alpha virt. eigenvalues --    0.04160   0.04693   0.05559   0.05852   0.06190
 Alpha virt. eigenvalues --    0.06473   0.07085   0.07471   0.07711   0.08663
 Alpha virt. eigenvalues --    0.08798   0.09056   0.09187   0.09677   0.09947
 Alpha virt. eigenvalues --    0.10354   0.10667   0.10867   0.11270   0.11688
 Alpha virt. eigenvalues --    0.11817   0.12562   0.13267   0.13335   0.13588
 Alpha virt. eigenvalues --    0.14028   0.14448   0.14883   0.15044   0.15268
 Alpha virt. eigenvalues --    0.15347   0.15739   0.16194   0.16712   0.16937
 Alpha virt. eigenvalues --    0.17374   0.17517   0.17703   0.18141   0.18455
 Alpha virt. eigenvalues --    0.18494   0.18784   0.19218   0.19704   0.19759
 Alpha virt. eigenvalues --    0.20138   0.20283   0.20632   0.20925   0.21209
 Alpha virt. eigenvalues --    0.21755   0.21993   0.22329   0.22411   0.22752
 Alpha virt. eigenvalues --    0.23317   0.23741   0.24050   0.24148   0.24490
 Alpha virt. eigenvalues --    0.24813   0.25076   0.25623   0.25829   0.26147
 Alpha virt. eigenvalues --    0.26622   0.26677   0.26922   0.27221   0.27471
 Alpha virt. eigenvalues --    0.27939   0.28290   0.28559   0.28796   0.29036
 Alpha virt. eigenvalues --    0.29457   0.29739   0.30088   0.30366   0.30667
 Alpha virt. eigenvalues --    0.30803   0.31359   0.31476   0.31626   0.32092
 Alpha virt. eigenvalues --    0.32351   0.32767   0.33078   0.33567   0.34035
 Alpha virt. eigenvalues --    0.34465   0.34662   0.35342   0.35683   0.36276
 Alpha virt. eigenvalues --    0.36951   0.37521   0.38020   0.38465   0.38794
 Alpha virt. eigenvalues --    0.39381   0.39912   0.40069   0.41093   0.41586
 Alpha virt. eigenvalues --    0.42801   0.43108   0.43896   0.44284   0.44897
 Alpha virt. eigenvalues --    0.45363   0.45611   0.45939   0.46619   0.47443
 Alpha virt. eigenvalues --    0.47919   0.48645   0.48815   0.49392   0.49544
 Alpha virt. eigenvalues --    0.50049   0.50896   0.51069   0.51332   0.53123
 Alpha virt. eigenvalues --    0.54134   0.54413   0.55153   0.56716   0.57290
 Alpha virt. eigenvalues --    0.58215   0.58668   0.59040   0.59309   0.60356
 Alpha virt. eigenvalues --    0.61198   0.61700   0.62146   0.64162   0.65873
 Alpha virt. eigenvalues --    0.66973   0.68023   0.68477   0.68691   0.69470
 Alpha virt. eigenvalues --    0.70022   0.70571   0.73016   0.74451   0.75114
 Alpha virt. eigenvalues --    0.75471   0.77342   0.78577   0.78985   0.80357
 Alpha virt. eigenvalues --    0.81130   0.81497   0.82587   0.84130   0.85379
 Alpha virt. eigenvalues --    0.86651   0.87676   0.89781   0.90565   0.91225
 Alpha virt. eigenvalues --    0.94412   0.95712   0.96257   0.96883   0.97485
 Alpha virt. eigenvalues --    0.98098   0.98758   0.99228   0.99768   1.00415
 Alpha virt. eigenvalues --    1.00775   1.01469   1.02153   1.03239   1.04065
 Alpha virt. eigenvalues --    1.04309   1.05540   1.06414   1.06702   1.07975
 Alpha virt. eigenvalues --    1.09766   1.12343   1.15240   1.16195   1.16466
 Alpha virt. eigenvalues --    1.18698   1.19073   1.19828   1.20601   1.20995
 Alpha virt. eigenvalues --    1.21390   1.21754   1.22370   1.22884   1.22954
 Alpha virt. eigenvalues --    1.23464   1.23938   1.24320   1.25201   1.25708
 Alpha virt. eigenvalues --    1.26063   1.27160   1.27471   1.28132   1.28457
 Alpha virt. eigenvalues --    1.28987   1.29815   1.30113   1.30846   1.31440
 Alpha virt. eigenvalues --    1.32462   1.32674   1.33009   1.33491   1.34478
 Alpha virt. eigenvalues --    1.35298   1.36020   1.36538   1.36890   1.37775
 Alpha virt. eigenvalues --    1.39161   1.39742   1.40226   1.41186   1.41482
 Alpha virt. eigenvalues --    1.42781   1.43714   1.44269   1.45291   1.46355
 Alpha virt. eigenvalues --    1.46970   1.48796   1.51019   1.51351   1.52763
 Alpha virt. eigenvalues --    1.56735   1.57201   1.57693   1.59283   1.59796
 Alpha virt. eigenvalues --    1.60077   1.61210   1.61910   1.62462   1.63086
 Alpha virt. eigenvalues --    1.63216   1.63835   1.65214   1.65394   1.66622
 Alpha virt. eigenvalues --    1.67197   1.67993   1.69309   1.69636   1.70119
 Alpha virt. eigenvalues --    1.71379   1.71457   1.71588   1.72598   1.73316
 Alpha virt. eigenvalues --    1.74117   1.74983   1.75607   1.76065   1.76700
 Alpha virt. eigenvalues --    1.77202   1.77406   1.78502   1.78706   1.79605
 Alpha virt. eigenvalues --    1.80589   1.81462   1.82228   1.82470   1.83049
 Alpha virt. eigenvalues --    1.83355   1.84820   1.85097   1.85925   1.86615
 Alpha virt. eigenvalues --    1.87172   1.88081   1.88597   1.89825   1.90478
 Alpha virt. eigenvalues --    1.91253   1.91365   1.92515   1.92814   1.93928
 Alpha virt. eigenvalues --    1.94759   1.94977   1.95896   1.97291   1.98371
 Alpha virt. eigenvalues --    1.98944   2.00521   2.01170   2.02865   2.03648
 Alpha virt. eigenvalues --    2.05913   2.06560   2.07719   2.09759   2.10412
 Alpha virt. eigenvalues --    2.11182   2.13032   2.14252   2.16154   2.16297
 Alpha virt. eigenvalues --    2.17803   2.18829   2.19051   2.20809   2.26408
 Alpha virt. eigenvalues --    2.32541   2.33477   2.35472   2.39478   2.40427
 Alpha virt. eigenvalues --    2.41181   2.41356   2.41738   2.42737   2.43732
 Alpha virt. eigenvalues --    2.44021   2.45731   2.46696   2.47631   2.48992
 Alpha virt. eigenvalues --    2.50217   2.50310   2.51675   2.52758   2.53343
 Alpha virt. eigenvalues --    2.55431   2.58298   2.59244   2.60071   2.60692
 Alpha virt. eigenvalues --    2.61119   2.61794   2.62066   2.62429   2.62793
 Alpha virt. eigenvalues --    2.63155   2.64032   2.64601   2.64986   2.65968
 Alpha virt. eigenvalues --    2.66308   2.66604   2.67331   2.67560   2.69379
 Alpha virt. eigenvalues --    2.69693   2.70309   2.71217   2.71674   2.72390
 Alpha virt. eigenvalues --    2.72851   2.74346   2.75561   2.76751   2.77474
 Alpha virt. eigenvalues --    2.78941   2.80537   2.81486   2.82461   2.83453
 Alpha virt. eigenvalues --    2.83732   2.84700   2.86668   2.87789   2.88138
 Alpha virt. eigenvalues --    3.14683   3.20252   3.35840   3.41096   3.46789
 Alpha virt. eigenvalues --    3.47867   3.48594   3.48657   3.51099   3.51108
 Alpha virt. eigenvalues --    3.52892   3.54206   3.60307   3.61077   3.62060
 Alpha virt. eigenvalues --    3.66200   4.31985   4.59091   7.88825  31.29217
          Condensed to atoms (all electrons):
               1          2          3          4          5          6
     1  Zr  15.087558  -0.131761  -0.001925  -0.138164  -0.191819  -0.585787
     2  O   -0.131761   9.068578   0.019387  -0.042589  -0.057113   0.090066
     3  O   -0.001925   0.019387   8.829320   0.015439  -0.043280  -0.004770
     4  O   -0.138164  -0.042589   0.015439   8.810969  -0.059994  -0.673838
     5  O   -0.191819  -0.057113  -0.043280  -0.059994   9.430422  -0.006581
     6  Si  -0.585787   0.090066  -0.004770  -0.673838  -0.006581  13.975139
     7  Si  -0.615269  -0.028112  -0.876528  -0.006526  -0.033686   0.084434
     8  Si  -0.576683  -1.001940  -0.020432   0.072780  -0.013897  -0.021837
     9  Si  -0.326753  -0.041032  -0.026918  -0.033539  -1.243964   0.038346
    10  O   -0.014171   0.001030  -0.002037   0.001049   0.131525  -0.002367
    11  O   -0.061182   0.003494   0.002938   0.001164   0.312514  -0.000917
    12  O    0.040064  -0.000024   0.004687   0.002116   0.158786  -0.002859
    13  O   -0.039548   0.187543   0.001663  -0.015608  -0.000655   0.036222
    14  O   -0.020067   0.264599  -0.017672  -0.008874   0.001942   0.029610
    15  O   -0.082227   0.292865  -0.000710   0.001243   0.000562  -0.000339
    16  O   -0.125964   0.004684  -0.000484   0.344671   0.003200  -0.422001
    17  O   -0.082661  -0.039855   0.007934   0.219162   0.001321  -0.453114
    18  O   -0.027235  -0.014408   0.003732   0.198706  -0.000590  -0.451331
    19  O   -0.000127   0.009033   0.264387   0.010255   0.002138  -0.007182
    20  O   -0.146223  -0.000573   0.164036  -0.000874   0.001469   0.009052
    21  O    0.035443   0.010379   0.146361   0.003407   0.000221  -0.011813
    22  H   -0.008907  -0.000019  -0.000020  -0.000009   0.005710   0.000085
    23  H   -0.007502  -0.000013  -0.000007  -0.000056  -0.025352   0.000078
    24  H   -0.004904  -0.000209  -0.000012   0.000001  -0.005594   0.000058
    25  H    0.017205  -0.020072  -0.000111  -0.000283   0.000019   0.002490
    26  H    0.007337   0.000564   0.000014  -0.000011  -0.000004  -0.000147
    27  H    0.004979  -0.019319   0.000856  -0.001700   0.000010   0.008596
    28  H    0.005111  -0.000011  -0.018439  -0.000014  -0.000015  -0.000284
    29  H    0.004407  -0.007084  -0.020299  -0.000141  -0.000073   0.000110
    30  H    0.000823  -0.000013   0.000077  -0.000453  -0.000008  -0.000696
    31  H   -0.000083   0.000172  -0.000019  -0.018431  -0.000009   0.063699
    32  H    0.002054  -0.000024   0.000039   0.010431   0.000001   0.022839
    33  H   -0.016160   0.001013  -0.010107  -0.009584  -0.000102   0.053395
               7          8          9         10         11         12
     1  Zr  -0.615269  -0.576683  -0.326753  -0.014171  -0.061182   0.040064
     2  O   -0.028112  -1.001940  -0.041032   0.001030   0.003494  -0.000024
     3  O   -0.876528  -0.020432  -0.026918  -0.002037   0.002938   0.004687
     4  O   -0.006526   0.072780  -0.033539   0.001049   0.001164   0.002116
     5  O   -0.033686  -0.013897  -1.243964   0.131525   0.312514   0.158786
     6  Si   0.084434  -0.021837   0.038346  -0.002367  -0.000917  -0.002859
     7  Si  13.795428   0.181710   0.020665  -0.000232  -0.000836   0.004032
     8  Si   0.181710  13.800579   0.025742  -0.000916   0.001169  -0.000674
     9  Si   0.020665   0.025742  14.289905  -0.072042  -0.182476  -0.218912
    10  O   -0.000232  -0.000916  -0.072042   8.526929   0.014722   0.031460
    11  O   -0.000836   0.001169  -0.182476   0.014722   8.515777  -0.049582
    12  O    0.004032  -0.000674  -0.218912   0.031460  -0.049582   8.601537
    13  O    0.007398  -0.095068   0.000260   0.000000   0.000019   0.000010
    14  O    0.009669  -0.369339  -0.001458  -0.000002   0.000001   0.000019
    15  O   -0.002720  -0.305346  -0.000650   0.000000  -0.000025  -0.000018
    16  O    0.003844  -0.010158  -0.001029   0.000004  -0.000002  -0.000001
    17  O   -0.000556   0.097015   0.002611  -0.000002   0.000001  -0.000005
    18  O   -0.000697   0.074424   0.004230  -0.000003  -0.000002  -0.000001
    19  O   -0.407678  -0.015795   0.001057   0.000006  -0.000002  -0.000018
    20  O   -0.108536   0.009644   0.003188   0.000001  -0.000003  -0.000021
    21  O    0.024132  -0.039850  -0.001862   0.000002   0.000001   0.000027
    22  H   -0.000201   0.000088   0.047164  -0.006495  -0.005125   0.219800
    23  H    0.000058   0.000062   0.081076   0.228536  -0.006216   0.005920
    24  H    0.000058  -0.000118   0.037182   0.007409   0.242408  -0.007489
    25  H   -0.000466   0.057450  -0.000211   0.000000  -0.000000  -0.000000
    26  H   -0.000381   0.046074  -0.000044  -0.000000   0.000000  -0.000000
    27  H    0.001240   0.068324  -0.000012   0.000000  -0.000000  -0.000000
    28  H    0.056648  -0.000075  -0.000133  -0.000000  -0.000000  -0.000004
    29  H    0.048140   0.021784  -0.000057   0.000000   0.000000  -0.000001
    30  H    0.040221   0.000099   0.000023   0.000000  -0.000000   0.000000
    31  H    0.000154  -0.001968  -0.000054   0.000000  -0.000000   0.000000
    32  H   -0.000659   0.000055   0.000006  -0.000000   0.000000   0.000000
    33  H    0.020630   0.000139   0.000079  -0.000000   0.000000   0.000000
              13         14         15         16         17         18
     1  Zr  -0.039548  -0.020067  -0.082227  -0.125964  -0.082661  -0.027235
     2  O    0.187543   0.264599   0.292865   0.004684  -0.039855  -0.014408
     3  O    0.001663  -0.017672  -0.000710  -0.000484   0.007934   0.003732
     4  O   -0.015608  -0.008874   0.001243   0.344671   0.219162   0.198706
     5  O   -0.000655   0.001942   0.000562   0.003200   0.001321  -0.000590
     6  Si   0.036222   0.029610  -0.000339  -0.422001  -0.453114  -0.451331
     7  Si   0.007398   0.009669  -0.002720   0.003844  -0.000556  -0.000697
     8  Si  -0.095068  -0.369339  -0.305346  -0.010158   0.097015   0.074424
     9  Si   0.000260  -0.001458  -0.000650  -0.001029   0.002611   0.004230
    10  O    0.000000  -0.000002   0.000000   0.000004  -0.000002  -0.000003
    11  O    0.000019   0.000001  -0.000025  -0.000002   0.000001  -0.000002
    12  O    0.000010   0.000019  -0.000018  -0.000001  -0.000005  -0.000001
    13  O    8.628983   0.087302  -0.090857   0.003726  -0.030869  -0.045491
    14  O    0.087302   8.675839   0.055478   0.003666  -0.035827  -0.026825
    15  O   -0.090857   0.055478   8.777220  -0.000175   0.003600   0.001671
    16  O    0.003726   0.003666  -0.000175   8.901602  -0.091540  -0.114981
    17  O   -0.030869  -0.035827   0.003600  -0.091540   8.935781   0.227681
    18  O   -0.045491  -0.026825   0.001671  -0.114981   0.227681   9.013597
    19  O    0.000185  -0.000385   0.000139  -0.001542  -0.029977   0.000169
    20  O    0.000008  -0.000235   0.000039   0.000065  -0.000985   0.000015
    21  O   -0.000246   0.016016  -0.000617  -0.000214  -0.005569   0.000476
    22  H   -0.000000   0.000000  -0.000000   0.000000   0.000000  -0.000000
    23  H    0.000000   0.000000  -0.000000  -0.000000   0.000000  -0.000000
    24  H   -0.000000   0.000000   0.000002   0.000000  -0.000000  -0.000000
    25  H    0.218316  -0.011982   0.008917  -0.000051   0.000631   0.014907
    26  H   -0.005131  -0.010068   0.217056   0.000000  -0.000003   0.000006
    27  H   -0.009773   0.219184   0.004627   0.000184   0.017911  -0.000264
    28  H   -0.000000  -0.000006  -0.000001  -0.000000   0.000004  -0.000000
    29  H    0.000794   0.017603  -0.002569  -0.000004  -0.000396   0.000006
    30  H    0.000001  -0.000001   0.000000   0.000116  -0.000397  -0.000007
    31  H    0.002357   0.000165  -0.000018   0.003798  -0.000764   0.218117
    32  H   -0.000008  -0.000006   0.000000   0.233454  -0.003636   0.003889
    33  H    0.000230   0.002078  -0.000035  -0.000113   0.230997   0.002104
              19         20         21         22         23         24
     1  Zr  -0.000127  -0.146223   0.035443  -0.008907  -0.007502  -0.004904
     2  O    0.009033  -0.000573   0.010379  -0.000019  -0.000013  -0.000209
     3  O    0.264387   0.164036   0.146361  -0.000020  -0.000007  -0.000012
     4  O    0.010255  -0.000874   0.003407  -0.000009  -0.000056   0.000001
     5  O    0.002138   0.001469   0.000221   0.005710  -0.025352  -0.005594
     6  Si  -0.007182   0.009052  -0.011813   0.000085   0.000078   0.000058
     7  Si  -0.407678  -0.108536   0.024132  -0.000201   0.000058   0.000058
     8  Si  -0.015795   0.009644  -0.039850   0.000088   0.000062  -0.000118
     9  Si   0.001057   0.003188  -0.001862   0.047164   0.081076   0.037182
    10  O    0.000006   0.000001   0.000002  -0.006495   0.228536   0.007409
    11  O   -0.000002  -0.000003   0.000001  -0.005125  -0.006216   0.242408
    12  O   -0.000018  -0.000021   0.000027   0.219800   0.005920  -0.007489
    13  O    0.000185   0.000008  -0.000246  -0.000000   0.000000  -0.000000
    14  O   -0.000385  -0.000235   0.016016   0.000000   0.000000   0.000000
    15  O    0.000139   0.000039  -0.000617  -0.000000  -0.000000   0.000002
    16  O   -0.001542   0.000065  -0.000214   0.000000  -0.000000   0.000000
    17  O   -0.029977  -0.000985  -0.005569   0.000000   0.000000  -0.000000
    18  O    0.000169   0.000015   0.000476  -0.000000  -0.000000  -0.000000
    19  O    8.872371   0.032109   0.023500  -0.000000   0.000000  -0.000000
    20  O    0.032109   8.656908  -0.050448   0.000000   0.000000  -0.000000
    21  O    0.023500  -0.050448   8.485939  -0.000000   0.000000   0.000000
    22  H   -0.000000   0.000000  -0.000000   0.361482   0.000055   0.000122
    23  H    0.000000   0.000000   0.000000   0.000055   0.350924   0.000013
    24  H   -0.000000  -0.000000   0.000000   0.000122   0.000013   0.365116
    25  H   -0.000024   0.000000  -0.000019   0.000000   0.000000   0.000000
    26  H    0.000001  -0.000000   0.000039  -0.000000  -0.000000  -0.000000
    27  H    0.000028   0.000192  -0.004019  -0.000000  -0.000000   0.000000
    28  H    0.004612   0.229584  -0.002076  -0.000000   0.000000  -0.000000
    29  H   -0.008570   0.007668   0.206464   0.000000   0.000000  -0.000000
    30  H    0.224217  -0.001484  -0.007146   0.000000   0.000000  -0.000000
    31  H    0.000004  -0.000000  -0.000000  -0.000000  -0.000000   0.000000
    32  H    0.000097  -0.000000   0.000001  -0.000000  -0.000000  -0.000000
    33  H    0.014832  -0.000081   0.001473  -0.000000  -0.000000  -0.000000
              25         26         27         28         29         30
     1  Zr   0.017205   0.007337   0.004979   0.005111   0.004407   0.000823
     2  O   -0.020072   0.000564  -0.019319  -0.000011  -0.007084  -0.000013
     3  O   -0.000111   0.000014   0.000856  -0.018439  -0.020299   0.000077
     4  O   -0.000283  -0.000011  -0.001700  -0.000014  -0.000141  -0.000453
     5  O    0.000019  -0.000004   0.000010  -0.000015  -0.000073  -0.000008
     6  Si   0.002490  -0.000147   0.008596  -0.000284   0.000110  -0.000696
     7  Si  -0.000466  -0.000381   0.001240   0.056648   0.048140   0.040221
     8  Si   0.057450   0.046074   0.068324  -0.000075   0.021784   0.000099
     9  Si  -0.000211  -0.000044  -0.000012  -0.000133  -0.000057   0.000023
    10  O    0.000000  -0.000000   0.000000  -0.000000   0.000000   0.000000
    11  O   -0.000000   0.000000  -0.000000  -0.000000   0.000000  -0.000000
    12  O   -0.000000  -0.000000  -0.000000  -0.000004  -0.000001   0.000000
    13  O    0.218316  -0.005131  -0.009773  -0.000000   0.000794   0.000001
    14  O   -0.011982  -0.010068   0.219184  -0.000006   0.017603  -0.000001
    15  O    0.008917   0.217056   0.004627  -0.000001  -0.002569   0.000000
    16  O   -0.000051   0.000000   0.000184  -0.000000  -0.000004   0.000116
    17  O    0.000631  -0.000003   0.017911   0.000004  -0.000396  -0.000397
    18  O    0.014907   0.000006  -0.000264  -0.000000   0.000006  -0.000007
    19  O   -0.000024   0.000001   0.000028   0.004612  -0.008570   0.224217
    20  O    0.000000  -0.000000   0.000192   0.229584   0.007668  -0.001484
    21  O   -0.000019   0.000039  -0.004019  -0.002076   0.206464  -0.007146
    22  H    0.000000  -0.000000  -0.000000  -0.000000   0.000000   0.000000
    23  H    0.000000  -0.000000  -0.000000   0.000000   0.000000   0.000000
    24  H    0.000000  -0.000000   0.000000  -0.000000  -0.000000  -0.000000
    25  H    0.298867  -0.000012   0.000115   0.000000   0.000001   0.000000
    26  H   -0.000012   0.365958   0.000036   0.000000   0.000021  -0.000000
    27  H    0.000115   0.000036   0.283349  -0.000000  -0.001498   0.000010
    28  H    0.000000   0.000000  -0.000000   0.349197  -0.000017  -0.000016
    29  H    0.000001   0.000021  -0.001498  -0.000017   0.285947   0.000155
    30  H    0.000000  -0.000000   0.000010  -0.000016   0.000155   0.334237
    31  H   -0.000493   0.000000   0.000013  -0.000000   0.000000  -0.000000
    32  H   -0.000001   0.000000  -0.000000   0.000000  -0.000000  -0.000000
    33  H    0.000006  -0.000000  -0.002409  -0.000002   0.000100  -0.001157
              31         32         33
     1  Zr  -0.000083   0.002054  -0.016160
     2  O    0.000172  -0.000024   0.001013
     3  O   -0.000019   0.000039  -0.010107
     4  O   -0.018431   0.010431  -0.009584
     5  O   -0.000009   0.000001  -0.000102
     6  Si   0.063699   0.022839   0.053395
     7  Si   0.000154  -0.000659   0.020630
     8  Si  -0.001968   0.000055   0.000139
     9  Si  -0.000054   0.000006   0.000079
    10  O    0.000000  -0.000000  -0.000000
    11  O   -0.000000   0.000000   0.000000
    12  O    0.000000   0.000000   0.000000
    13  O    0.002357  -0.000008   0.000230
    14  O    0.000165  -0.000006   0.002078
    15  O   -0.000018   0.000000  -0.000035
    16  O    0.003798   0.233454  -0.000113
    17  O   -0.000764  -0.003636   0.230997
    18  O    0.218117   0.003889   0.002104
    19  O    0.000004   0.000097   0.014832
    20  O   -0.000000  -0.000000  -0.000081
    21  O   -0.000000   0.000001   0.001473
    22  H   -0.000000  -0.000000  -0.000000
    23  H   -0.000000  -0.000000  -0.000000
    24  H    0.000000  -0.000000  -0.000000
    25  H   -0.000493  -0.000001   0.000006
    26  H    0.000000   0.000000  -0.000000
    27  H    0.000013  -0.000000  -0.002409
    28  H   -0.000000   0.000000  -0.000002
    29  H    0.000000  -0.000000   0.000100
    30  H   -0.000000  -0.000000  -0.001157
    31  H    0.331380   0.000000  -0.000038
    32  H    0.000000   0.349911   0.000157
    33  H   -0.000038   0.000157   0.269244
 Mulliken charges:
               1
     1  Zr   0.000142
     2  O   -0.549236
     3  O   -0.417099
     4  O   -0.680701
     5  O   -0.367100
     6  Si   2.231643
     7  Si   1.784624
     8  Si   2.016959
     9  Si   1.599611
    10  O   -0.844409
    11  O   -0.787838
    12  O   -0.788848
    13  O   -0.841764
    14  O   -0.880425
    15  O   -0.877113
    16  O   -0.734756
    17  O   -0.968494
    18  O   -1.081892
    19  O   -0.987843
    20  O   -0.804517
    21  O   -0.830001
    22  H    0.386269
    23  H    0.372423
    24  H    0.365956
    25  H    0.414800
    26  H    0.378693
    27  H    0.429342
    28  H    0.375938
    29  H    0.447508
    30  H    0.411399
    31  H    0.402019
    32  H    0.381399
    33  H    0.443312
 Sum of Mulliken charges =  -0.00000
 Mulliken charges with hydrogens summed into heavy atoms:
               1
     1  Zr   0.000142
     2  O   -0.549236
     3  O   -0.417099
     4  O   -0.680701
     5  O   -0.367100
     6  Si   2.231643
     7  Si   1.784624
     8  Si   2.016959
     9  Si   1.599611
    10  O   -0.471986
    11  O   -0.421883
    12  O   -0.402578
    13  O   -0.426964
    14  O   -0.451083
    15  O   -0.498420
    16  O   -0.353357
    17  O   -0.525182
    18  O   -0.679874
    19  O   -0.576444
    20  O   -0.428579
    21  O   -0.382493
 Electronic spatial extent (au):  <R**2>=           9869.0064
 Charge=             -0.0000 electrons
 Dipole moment (field-independent basis, Debye):
    X=              1.0712    Y=             -0.7523    Z=             -2.3571  Tot=              2.6962
 Quadrupole moment (field-independent basis, Debye-Ang):
   XX=           -160.2378   YY=           -154.6600   ZZ=           -157.8187
   XY=             -4.8355   XZ=              2.3454   YZ=              5.7703
 Traceless Quadrupole moment (field-independent basis, Debye-Ang):
   XX=             -2.6657   YY=              2.9122   ZZ=             -0.2465
   XY=             -4.8355   XZ=              2.3454   YZ=              5.7703
 Octapole moment (field-independent basis, Debye-Ang**2):
  XXX=             74.2521  YYY=              7.0160  ZZZ=            -17.0251  XYY=             -1.5880
  XXY=             20.3918  XXZ=             18.8678  XZZ=              4.5851  YZZ=            -17.2727
  YYZ=            -16.8108  XYZ=             28.3321
 Hexadecapole moment (field-independent basis, Debye-Ang**3):
 XXXX=          -6030.5085 YYYY=          -2837.7276 ZZZZ=          -2261.2029 XXXY=             56.5211
 XXXZ=            -29.5433 YYYX=              5.2193 YYYZ=            220.1751 ZZZX=           -176.2311
 ZZZY=            -56.8653 XXYY=          -1476.8566 XXZZ=          -1369.5003 YYZZ=           -923.4625
 XXYZ=             -6.0666 YYXZ=            124.2285 ZZXY=            -59.9812
 N-N= 2.832888370189D+03 E-N=-1.137837601146D+04  KE= 2.373154960264D+03
 PrsmSu:  requested number of processors reduced to:   2 ShMem   1 Linda.
 PrsmSu:  requested number of processors reduced to:  10 ShMem   1 Linda.
   1 Symmetry operations used in ECPInt.
 ECPInt:  NShTT=   13203 NPrTT=   78401 LenC2=   11526 LenP2D=   44634.
 LDataN:  DoStor=T MaxTD1= 9 Len=  602
 Number of processors reduced to  14 by ecpmxn.
 Calling FoFJK, ICntrl=      2127 FMM=F ISym2X=0 I1Cent= 0 IOpClX= 0 NMat=1 NMatS=1 NMatT=0.
 CoulSu:  requested number of processors reduced to:  10 ShMem   1 Linda.
 Defaulting to unpruned grid for atomic number  40.
 Defaulting to unpruned grid for atomic number  40.
 Defaulting to unpruned grid for atomic number  40.
 Defaulting to unpruned grid for atomic number  40.
 Defaulting to unpruned grid for atomic number  40.
 Defaulting to unpruned grid for atomic number  40.
 Defaulting to unpruned grid for atomic number  40.
 Defaulting to unpruned grid for atomic number  40.
 Defaulting to unpruned grid for atomic number  40.
 Defaulting to unpruned grid for atomic number  40.
 Defaulting to unpruned grid for atomic number  40.
 Defaulting to unpruned grid for atomic number  40.
 Defaulting to unpruned grid for atomic number  40.
 Defaulting to unpruned grid for atomic number  40.
 Defaulting to unpruned grid for atomic number  40.
 Defaulting to unpruned grid for atomic number  40.
 ***** Axes restored to original set *****
 -------------------------------------------------------------------
 Center     Atomic                   Forces (Hartrees/Bohr)
 Number     Number              X              Y              Z
 -------------------------------------------------------------------
      1       40          -0.000021094   -0.000011592   -0.000166431
      2        8           0.000014789    0.000008258    0.000052206
      3        8          -0.000004496   -0.000010322    0.000018645
      4        8           0.000002766    0.000006512    0.000032954
      5        8          -0.000012663    0.000023852    0.000104346
      6       14          -0.000003991    0.000000656   -0.000013309
      7       14           0.000022189    0.000001892   -0.000024365
      8       14          -0.000030683   -0.000016356   -0.000032075
      9       14           0.000006208   -0.000014906   -0.000084853
     10        8           0.000012414    0.000015562    0.000021185
     11        8           0.000010297    0.000000919    0.000008191
     12        8           0.000006256    0.000001583    0.000025642
     13        8           0.000002949    0.000014404    0.000019171
     14        8           0.000010235   -0.000004183    0.000012123
     15        8           0.000011061    0.000002818    0.000004877
     16        8          -0.000007112   -0.000001850    0.000011987
     17        8           0.000004123    0.000004532    0.000004163
     18        8          -0.000009740    0.000000317    0.000005765
     19        8           0.000003543   -0.000001063    0.000009464
     20        8          -0.000007964   -0.000003240    0.000004961
     21        8          -0.000006437   -0.000001729    0.000011937
     22        1           0.000002059   -0.000005291   -0.000000648
     23        1          -0.000016375   -0.000009398   -0.000004400
     24        1          -0.000001786   -0.000016360    0.000004919
     25        1           0.000000929   -0.000002940   -0.000013904
     26        1          -0.000003134    0.000002215    0.000004329
     27        1          -0.000000786    0.000001868   -0.000007503
     28        1           0.000005039    0.000000761   -0.000000648
     29        1           0.000000577    0.000003247   -0.000002288
     30        1          -0.000001972    0.000005626   -0.000002543
     31        1           0.000006352    0.000002060    0.000000871
     32        1           0.000007624    0.000003466   -0.000006929
     33        1          -0.000001177   -0.000001319    0.000002158
 -------------------------------------------------------------------
 Cartesian Forces:  Max     0.000166431 RMS     0.000024670

 GradGradGradGradGradGradGradGradGradGradGradGradGradGradGradGradGradGrad
 Berny optimization.
 FormGI is forming the generalized inverse of G from B-inverse, IUseBI=4.
 Internal  Forces:  Max     0.000089304 RMS     0.000014750
 Search for a local minimum.
 Step number   1 out of a maximum of  148
 All quantities printed in internal units (Hartrees-Bohrs-Radians)
 Mixed Optimization -- En-DIIS/RFO-DIIS
 Second derivative matrix not updated -- first step.
 ITU=  0
     Eigenvalues ---    0.00230   0.00230   0.00230   0.00230   0.03240
     Eigenvalues ---    0.03358   0.03498   0.03580   0.03665   0.03666
     Eigenvalues ---    0.03680   0.03686   0.03693   0.03739   0.03789
     Eigenvalues ---    0.03792   0.03816   0.03834   0.03850   0.03857
     Eigenvalues ---    0.08405   0.09407   0.11077   0.11224   0.11819
     Eigenvalues ---    0.11833   0.11884   0.12136   0.12177   0.12239
     Eigenvalues ---    0.12563   0.12783   0.12896   0.13099   0.13313
     Eigenvalues ---    0.16000   0.16000   0.16000   0.16000   0.16000
     Eigenvalues ---    0.16000   0.16000   0.16000   0.16000   0.16000
     Eigenvalues ---    0.16000   0.16000   0.19174   0.19893   0.20028
     Eigenvalues ---    0.20179   0.20203   0.20204   0.20208   0.20515
     Eigenvalues ---    0.20653   0.20795   0.20988   0.21175   0.21186
     Eigenvalues ---    0.21263   0.25000   0.25000   0.25000   0.38002
     Eigenvalues ---    0.39186   0.40659   0.41547   0.42503   0.42510
     Eigenvalues ---    0.42670   0.42744   0.42825   0.43362   0.43949
     Eigenvalues ---    0.43981   0.44273   0.44486   0.44688   0.44768
     Eigenvalues ---    0.50654   0.51353   0.52036   0.52549   0.54336
     Eigenvalues ---    0.54625   0.54642   0.54648   0.54691   0.54692
     Eigenvalues ---    0.54712   0.547661000.000001000.000001000.00000
     Eigenvalues --- 1000.000001000.000001000.000001000.000001000.00000
     Eigenvalues --- 1000.000001000.000001000.000001000.000001000.00000
     Eigenvalues --- 1000.000001000.000001000.000001000.000001000.00000
     Eigenvalues --- 1000.000001000.000001000.000001000.000001000.00000
     Eigenvalues --- 1000.000001000.000001000.000001000.000001000.00000
     Eigenvalues --- 1000.000001000.000001000.000001000.000001000.00000
     Eigenvalues --- 1000.000001000.000001000.000001000.000001000.00000
     Eigenvalues --- 1000.000001000.000001000.000001000.000001000.00000
     Eigenvalues --- 1000.000001000.000001000.00000
 RFO step:  Lambda=-1.08566365D-06 EMin= 2.30000000D-03
 Linear search not attempted -- first point.
 Iteration  1 RMS(Cart)=  0.00832815 RMS(Int)=  0.00002617
 Iteration  2 RMS(Cart)=  0.00004143 RMS(Int)=  0.00000002
 Iteration  3 RMS(Cart)=  0.00000000 RMS(Int)=  0.00000002
 Iteration  1 RMS(Cart)=  0.00000000 RMS(Int)=  0.00000000
 Variable       Old X    -DE/DX   Delta X   Delta X   Delta X     New X
                                 (Linear)    (Quad)   (Total)
    R1        3.67648   0.00003   0.00000   0.00013   0.00013   3.67661
    R2        3.69190  -0.00001   0.00000  -0.00004  -0.00004   3.69186
    R3        3.73834  -0.00003   0.00000  -0.00018  -0.00018   3.73816
    R4        3.70231   0.00000   0.00000   0.00002   0.00002   3.70234
    R5        3.11687   0.00000   0.00000   0.00000   0.00000   3.11687
    R6        3.09578  -0.00000   0.00000  -0.00001  -0.00001   3.09577
    R7        3.10215  -0.00000   0.00000  -0.00000  -0.00000   3.10215
    R8        3.09246   0.00002   0.00000   0.00004   0.00004   3.09249
    R9        3.11586  -0.00001   0.00000  -0.00001  -0.00001   3.11585
   R10        3.11988   0.00000   0.00000   0.00000   0.00000   3.11988
   R11        3.14368   0.00000   0.00000   0.00001   0.00001   3.14368
   R12        3.18063  -0.00001   0.00000  -0.00001  -0.00001   3.18061
   R13        3.10925  -0.00001   0.00000  -0.00001  -0.00001   3.10924
   R14        3.09340   0.00001   0.00000   0.00003   0.00003   3.09342
   R15        3.10178  -0.00001   0.00000  -0.00003  -0.00003   3.10175
   R16        3.16374  -0.00001   0.00000  -0.00003  -0.00003   3.16372
   R17        3.09829   0.00001   0.00000   0.00002   0.00002   3.09832
   R18        3.11979  -0.00002   0.00000  -0.00004  -0.00004   3.11976
   R19        3.13204   0.00002   0.00000   0.00005   0.00005   3.13208
   R20        3.11779   0.00001   0.00000   0.00003   0.00003   3.11783
   R21        1.82152   0.00000   0.00000   0.00000   0.00000   1.82152
   R22        1.82107   0.00001   0.00000   0.00002   0.00002   1.82108
   R23        1.82088   0.00000   0.00000   0.00000   0.00000   1.82088
   R24        1.84077   0.00001   0.00000   0.00003   0.00003   1.84080
   R25        1.84565   0.00001   0.00000   0.00001   0.00001   1.84566
   R26        1.82041   0.00000   0.00000   0.00001   0.00001   1.82042
   R27        1.82107   0.00001   0.00000   0.00002   0.00002   1.82109
   R28        1.85911  -0.00000   0.00000  -0.00001  -0.00001   1.85910
   R29        1.82147  -0.00000   0.00000  -0.00000  -0.00000   1.82146
   R30        1.82427   0.00001   0.00000   0.00001   0.00001   1.82428
   R31        1.82167   0.00000   0.00000   0.00000   0.00000   1.82167
   R32        1.85224  -0.00000   0.00000  -0.00001  -0.00001   1.85224
    A1        1.85172  -0.00001   0.00000  -0.00021  -0.00021   1.85151
    A2        1.80156   0.00000   0.00000   0.00001   0.00001   1.80157
    A3        1.96889  -0.00004   0.00000  -0.00039  -0.00039   1.96850
    A4        1.83430   0.00000   0.00000   0.00019   0.00019   1.83449
    A5        2.01802   0.00000   0.00000   0.00001   0.00001   2.01804
    A6        1.97057   0.00004   0.00000   0.00039   0.00039   1.97096
    A7        2.46524  -0.00001   0.00000  -0.00005  -0.00005   2.46519
    A8        2.58826   0.00001   0.00000   0.00003   0.00003   2.58829
    A9        2.35483  -0.00002   0.00000  -0.00010  -0.00010   2.35473
   A10        2.86714   0.00009   0.00000   0.00000   0.00000   2.86714
   A11        1.91978   0.00000   0.00000   0.00002   0.00002   1.91980
   A12        1.91546  -0.00000   0.00000  -0.00003  -0.00003   1.91544
   A13        1.95200  -0.00000   0.00000  -0.00004  -0.00004   1.95197
   A14        2.00709   0.00001   0.00000   0.00004   0.00004   2.00713
   A15        1.88611   0.00000   0.00000   0.00003   0.00003   1.88613
   A16        1.78001  -0.00000   0.00000  -0.00002  -0.00002   1.77998
   A17        1.80239   0.00000   0.00000   0.00003   0.00003   1.80242
   A18        1.99614   0.00001   0.00000   0.00004   0.00004   1.99618
[...]
 Alpha virt. eigenvalues --    3.52867   3.54112   3.60309   3.61081   3.62058
 Alpha virt. eigenvalues --    3.66194   4.32999   4.59476   7.89805  31.29258
          Condensed to atoms (all electrons):
               1          2          3          4          5          6
     1  Zr  15.081478  -0.122261  -0.001764  -0.134636  -0.190120  -0.598962
     2  O   -0.122261   9.063870   0.019364  -0.042668  -0.057176   0.088263
     3  O   -0.001764   0.019364   8.828564   0.015888  -0.043990  -0.004051
     4  O   -0.134636  -0.042668   0.015888   8.809305  -0.060522  -0.672871
     5  O   -0.190120  -0.057176  -0.043990  -0.060522   9.423131  -0.006975
     6  Si  -0.598962   0.088263  -0.004051  -0.672871  -0.006975  13.985950
     7  Si  -0.614034  -0.028590  -0.875761  -0.007045  -0.033950   0.084111
     8  Si  -0.590573  -1.001322  -0.020075   0.071525  -0.014289  -0.016599
     9  Si  -0.322958  -0.040571  -0.026661  -0.032727  -1.226941   0.038745
    10  O   -0.015317   0.001040  -0.002004   0.000946   0.130558  -0.002329
    11  O   -0.063405   0.003360   0.002966   0.001193   0.310887  -0.000844
    12  O    0.042712  -0.000027   0.004646   0.002062   0.153761  -0.002979
    13  O   -0.034832   0.186195   0.001638  -0.015575  -0.000660   0.035058
    14  O   -0.016440   0.263417  -0.017792  -0.008747   0.001888   0.028652
    15  O   -0.083778   0.293243  -0.000684   0.001230   0.000580   0.000047
    16  O   -0.124867   0.004694  -0.000506   0.344643   0.003208  -0.423048
    17  O   -0.082599  -0.039807   0.008159   0.217933   0.001331  -0.451933
    18  O   -0.026355  -0.014588   0.003741   0.198069  -0.000603  -0.450980
    19  O    0.001587   0.008933   0.265119   0.010312   0.002148  -0.007624
    20  O   -0.146072  -0.000578   0.163949  -0.000857   0.001484   0.009093
    21  O    0.036167   0.010207   0.146038   0.003430   0.000205  -0.011967
    22  H   -0.008948  -0.000018  -0.000015  -0.000009   0.005767   0.000087
    23  H   -0.007578  -0.000013  -0.000006  -0.000056  -0.025362   0.000084
    24  H   -0.005045  -0.000195  -0.000012   0.000003  -0.005608   0.000070
    25  H    0.016779  -0.019966  -0.000110  -0.000319   0.000019   0.002691
    26  H    0.007311   0.000615   0.000014  -0.000011  -0.000004  -0.000154
    27  H    0.004100  -0.019207   0.000852  -0.001690   0.000011   0.008820
    28  H    0.005066  -0.000011  -0.018403  -0.000014  -0.000015  -0.000283
    29  H    0.004163  -0.007057  -0.020282  -0.000141  -0.000074   0.000132
    30  H    0.000748  -0.000012   0.000050  -0.000454  -0.000008  -0.000665
    31  H   -0.000160   0.000173  -0.000020  -0.018449  -0.000010   0.063833
    32  H    0.002111  -0.000024   0.000040   0.010423   0.000001   0.022816
    33  H   -0.016014   0.001020  -0.010123  -0.009617  -0.000102   0.053312
               7          8          9         10         11         12
     1  Zr  -0.614034  -0.590573  -0.322958  -0.015317  -0.063405   0.042712
     2  O   -0.028590  -1.001322  -0.040571   0.001040   0.003360  -0.000027
     3  O   -0.875761  -0.020075  -0.026661  -0.002004   0.002966   0.004646
     4  O   -0.007045   0.071525  -0.032727   0.000946   0.001193   0.002062
     5  O   -0.033950  -0.014289  -1.226941   0.130558   0.310887   0.153761
     6  Si   0.084111  -0.016599   0.038745  -0.002329  -0.000844  -0.002979
     7  Si  13.795226   0.182315   0.020198  -0.000223  -0.000878   0.003933
     8  Si   0.182315  13.810003   0.026045  -0.000982   0.001208  -0.000860
     9  Si   0.020198   0.026045  14.251206  -0.068697  -0.177063  -0.212489
    10  O   -0.000223  -0.000982  -0.068697   8.525633   0.014392   0.031194
    11  O   -0.000878   0.001208  -0.177063   0.014392   8.514740  -0.050446
    12  O    0.003933  -0.000860  -0.212489   0.031194  -0.050446   8.600928
    13  O    0.007259  -0.095714   0.000196   0.000000   0.000019   0.000009
    14  O    0.009411  -0.369072  -0.001480  -0.000002   0.000001   0.000018
    15  O   -0.002598  -0.305034  -0.000608   0.000000  -0.000025  -0.000016
    16  O    0.003839  -0.010355  -0.001049   0.000005  -0.000002  -0.000001
    17  O   -0.000642   0.096798   0.002604  -0.000001   0.000002  -0.000005
    18  O   -0.000763   0.074753   0.004189  -0.000002  -0.000001  -0.000001
    19  O   -0.409335  -0.016063   0.001042   0.000006  -0.000002  -0.000022
    20  O   -0.108880   0.009615   0.003149   0.000003  -0.000003  -0.000026
    21  O    0.024506  -0.039929  -0.001807   0.000001   0.000001   0.000024
    22  H   -0.000186   0.000090   0.047224  -0.006482  -0.005105   0.219649
    23  H    0.000058   0.000062   0.081116   0.228657  -0.006207   0.005929
    24  H    0.000054  -0.000101   0.037300   0.007413   0.242451  -0.007483
    25  H   -0.000456   0.057425  -0.000209   0.000000  -0.000000  -0.000000
    26  H   -0.000383   0.046074  -0.000044  -0.000000   0.000000  -0.000000
    27  H    0.001329   0.068531  -0.000008   0.000000  -0.000000  -0.000000
    28  H    0.056635  -0.000066  -0.000135  -0.000000  -0.000000  -0.000004
    29  H    0.048189   0.021896  -0.000058   0.000000   0.000000  -0.000001
    30  H    0.040323   0.000108   0.000022  -0.000000   0.000000   0.000000
    31  H    0.000155  -0.001976  -0.000054   0.000000  -0.000000   0.000000
    32  H   -0.000663   0.000054   0.000009  -0.000000   0.000000  -0.000000
    33  H    0.020632   0.000115   0.000078  -0.000000   0.000000   0.000000
              13         14         15         16         17         18
     1  Zr  -0.034832  -0.016440  -0.083778  -0.124867  -0.082599  -0.026355
     2  O    0.186195   0.263417   0.293243   0.004694  -0.039807  -0.014588
     3  O    0.001638  -0.017792  -0.000684  -0.000506   0.008159   0.003741
     4  O   -0.015575  -0.008747   0.001230   0.344643   0.217933   0.198069
     5  O   -0.000660   0.001888   0.000580   0.003208   0.001331  -0.000603
     6  Si   0.035058   0.028652   0.000047  -0.423048  -0.451933  -0.450980
     7  Si   0.007259   0.009411  -0.002598   0.003839  -0.000642  -0.000763
     8  Si  -0.095714  -0.369072  -0.305034  -0.010355   0.096798   0.074753
     9  Si   0.000196  -0.001480  -0.000608  -0.001049   0.002604   0.004189
    10  O    0.000000  -0.000002   0.000000   0.000005  -0.000001  -0.000002
    11  O    0.000019   0.000001  -0.000025  -0.000002   0.000002  -0.000001
    12  O    0.000009   0.000018  -0.000016  -0.000001  -0.000005  -0.000001
    13  O    8.627646   0.087113  -0.090573   0.003738  -0.030893  -0.045631
    14  O    0.087113   8.674405   0.055600   0.003660  -0.035726  -0.026823
    15  O   -0.090573   0.055600   8.777343  -0.000175   0.003602   0.001676
    16  O    0.003738   0.003660  -0.000175   8.901930  -0.091851  -0.115162
    17  O   -0.030893  -0.035726   0.003602  -0.091851   8.936042   0.227823
    18  O   -0.045631  -0.026823   0.001676  -0.115162   0.227823   9.012872
    19  O    0.000178  -0.000469   0.000141  -0.001528  -0.029954   0.000162
    20  O    0.000008  -0.000246   0.000039   0.000065  -0.000979   0.000015
    21  O   -0.000249   0.015915  -0.000621  -0.000213  -0.005595   0.000477
    22  H   -0.000000  -0.000000   0.000000   0.000000   0.000000  -0.000000
    23  H    0.000000   0.000000  -0.000000  -0.000000   0.000000  -0.000000
    24  H   -0.000000   0.000000   0.000002   0.000000  -0.000000  -0.000000
    25  H    0.218488  -0.011962   0.008907  -0.000052   0.000625   0.014920
    26  H   -0.005116  -0.010081   0.217000   0.000000  -0.000003   0.000006
    27  H   -0.009725   0.219321   0.004633   0.000183   0.017928  -0.000251
    28  H    0.000000  -0.000006  -0.000001  -0.000000   0.000004  -0.000000
    29  H    0.000796   0.017607  -0.002570  -0.000004  -0.000396   0.000006
    30  H    0.000001   0.000001   0.000000   0.000115  -0.000401  -0.000007
    31  H    0.002356   0.000166  -0.000018   0.003739  -0.000742   0.218148
    32  H   -0.000008  -0.000006   0.000000   0.233419  -0.003644   0.003896
    33  H    0.000230   0.002087  -0.000035  -0.000092   0.230960   0.002095
              19         20         21         22         23         24
     1  Zr   0.001587  -0.146072   0.036167  -0.008948  -0.007578  -0.005045
     2  O    0.008933  -0.000578   0.010207  -0.000018  -0.000013  -0.000195
     3  O    0.265119   0.163949   0.146038  -0.000015  -0.000006  -0.000012
     4  O    0.010312  -0.000857   0.003430  -0.000009  -0.000056   0.000003
     5  O    0.002148   0.001484   0.000205   0.005767  -0.025362  -0.005608
     6  Si  -0.007624   0.009093  -0.011967   0.000087   0.000084   0.000070
     7  Si  -0.409335  -0.108880   0.024506  -0.000186   0.000058   0.000054
     8  Si  -0.016063   0.009615  -0.039929   0.000090   0.000062  -0.000101
     9  Si   0.001042   0.003149  -0.001807   0.047224   0.081116   0.037300
    10  O    0.000006   0.000003   0.000001  -0.006482   0.228657   0.007413
    11  O   -0.000002  -0.000003   0.000001  -0.005105  -0.006207   0.242451
    12  O   -0.000022  -0.000026   0.000024   0.219649   0.005929  -0.007483
    13  O    0.000178   0.000008  -0.000249  -0.000000   0.000000  -0.000000
    14  O   -0.000469  -0.000246   0.015915  -0.000000   0.000000   0.000000
    15  O    0.000141   0.000039  -0.000621   0.000000  -0.000000   0.000002
    16  O   -0.001528   0.000065  -0.000213   0.000000  -0.000000   0.000000
    17  O   -0.029954  -0.000979  -0.005595   0.000000   0.000000  -0.000000
    18  O    0.000162   0.000015   0.000477  -0.000000  -0.000000  -0.000000
    19  O    8.872578   0.032156   0.023348  -0.000000   0.000000  -0.000000
    20  O    0.032156   8.657210  -0.050403   0.000000   0.000000  -0.000000
    21  O    0.023348  -0.050403   8.485661  -0.000000   0.000000   0.000000
    22  H   -0.000000   0.000000  -0.000000   0.361592   0.000055   0.000124
    23  H    0.000000   0.000000   0.000000   0.000055   0.350946   0.000013
    24  H   -0.000000  -0.000000   0.000000   0.000124   0.000013   0.365218
    25  H   -0.000024   0.000000  -0.000019   0.000000   0.000000   0.000000
    26  H    0.000001  -0.000000   0.000039  -0.000000  -0.000000  -0.000000
    27  H    0.000036   0.000192  -0.004005  -0.000000  -0.000000   0.000000
    28  H    0.004619   0.229578  -0.002072  -0.000000   0.000000  -0.000000
    29  H   -0.008568   0.007667   0.206459   0.000000   0.000000  -0.000000
    30  H    0.224191  -0.001492  -0.007154   0.000000   0.000000  -0.000000
    31  H    0.000004  -0.000000  -0.000000  -0.000000  -0.000000   0.000000
    32  H    0.000097  -0.000000   0.000001  -0.000000  -0.000000  -0.000000
    33  H    0.014834  -0.000082   0.001477  -0.000000  -0.000000  -0.000000
              25         26         27         28         29         30
     1  Zr   0.016779   0.007311   0.004100   0.005066   0.004163   0.000748
     2  O   -0.019966   0.000615  -0.019207  -0.000011  -0.007057  -0.000012
     3  O   -0.000110   0.000014   0.000852  -0.018403  -0.020282   0.000050
     4  O   -0.000319  -0.000011  -0.001690  -0.000014  -0.000141  -0.000454
     5  O    0.000019  -0.000004   0.000011  -0.000015  -0.000074  -0.000008
     6  Si   0.002691  -0.000154   0.008820  -0.000283   0.000132  -0.000665
     7  Si  -0.000456  -0.000383   0.001329   0.056635   0.048189   0.040323
     8  Si   0.057425   0.046074   0.068531  -0.000066   0.021896   0.000108
     9  Si  -0.000209  -0.000044  -0.000008  -0.000135  -0.000058   0.000022
    10  O    0.000000  -0.000000   0.000000  -0.000000   0.000000  -0.000000
    11  O   -0.000000   0.000000  -0.000000  -0.000000   0.000000   0.000000
    12  O   -0.000000  -0.000000  -0.000000  -0.000004  -0.000001   0.000000
    13  O    0.218488  -0.005116  -0.009725   0.000000   0.000796   0.000001
    14  O   -0.011962  -0.010081   0.219321  -0.000006   0.017607   0.000001
    15  O    0.008907   0.217000   0.004633  -0.000001  -0.002570   0.000000
    16  O   -0.000052   0.000000   0.000183  -0.000000  -0.000004   0.000115
    17  O    0.000625  -0.000003   0.017928   0.000004  -0.000396  -0.000401
    18  O    0.014920   0.000006  -0.000251  -0.000000   0.000006  -0.000007
    19  O   -0.000024   0.000001   0.000036   0.004619  -0.008568   0.224191
    20  O    0.000000  -0.000000   0.000192   0.229578   0.007667  -0.001492
    21  O   -0.000019   0.000039  -0.004005  -0.002072   0.206459  -0.007154
    22  H    0.000000  -0.000000  -0.000000  -0.000000   0.000000   0.000000
    23  H    0.000000  -0.000000  -0.000000   0.000000   0.000000   0.000000
    24  H    0.000000  -0.000000   0.000000  -0.000000  -0.000000  -0.000000
    25  H    0.298899  -0.000012   0.000113   0.000000   0.000001   0.000000
    26  H   -0.000012   0.366000   0.000036   0.000000   0.000021  -0.000000
    27  H    0.000113   0.000036   0.283369  -0.000000  -0.001503   0.000009
    28  H    0.000000   0.000000  -0.000000   0.349180  -0.000017  -0.000016
    29  H    0.000001   0.000021  -0.001503  -0.000017   0.285939   0.000156
    30  H    0.000000  -0.000000   0.000009  -0.000016   0.000156   0.334261
    31  H   -0.000500   0.000000   0.000013  -0.000000   0.000000  -0.000000
    32  H   -0.000001   0.000000  -0.000000   0.000000  -0.000000  -0.000000
    33  H    0.000006  -0.000000  -0.002405  -0.000002   0.000099  -0.001161
              31         32         33
     1  Zr  -0.000160   0.002111  -0.016014
     2  O    0.000173  -0.000024   0.001020
     3  O   -0.000020   0.000040  -0.010123
     4  O   -0.018449   0.010423  -0.009617
     5  O   -0.000010   0.000001  -0.000102
     6  Si   0.063833   0.022816   0.053312
     7  Si   0.000155  -0.000663   0.020632
     8  Si  -0.001976   0.000054   0.000115
     9  Si  -0.000054   0.000009   0.000078
    10  O    0.000000  -0.000000  -0.000000
    11  O   -0.000000   0.000000   0.000000
    12  O    0.000000  -0.000000   0.000000
    13  O    0.002356  -0.000008   0.000230
    14  O    0.000166  -0.000006   0.002087
    15  O   -0.000018   0.000000  -0.000035
    16  O    0.003739   0.233419  -0.000092
    17  O   -0.000742  -0.003644   0.230960
    18  O    0.218148   0.003896   0.002095
    19  O    0.000004   0.000097   0.014834
    20  O   -0.000000  -0.000000  -0.000082
    21  O   -0.000000   0.000001   0.001477
    22  H   -0.000000  -0.000000  -0.000000
    23  H   -0.000000  -0.000000  -0.000000
    24  H    0.000000  -0.000000  -0.000000
    25  H   -0.000500  -0.000001   0.000006
    26  H    0.000000   0.000000  -0.000000
    27  H    0.000013  -0.000000  -0.002405
    28  H   -0.000000   0.000000  -0.000002
    29  H    0.000000  -0.000000   0.000099
    30  H   -0.000000  -0.000000  -0.001161
    31  H    0.331500   0.000001  -0.000038
    32  H    0.000001   0.349998   0.000157
    33  H   -0.000038   0.000157   0.269223
 Mulliken charges:
               1
     1  Zr   0.004494
     2  O   -0.550303
     3  O   -0.418768
     4  O   -0.680556
     5  O   -0.368570
     6  Si   2.230499
     7  Si   1.786212
     8  Si   2.016391
     9  Si   1.600434
    10  O   -0.843809
    11  O   -0.787242
    12  O   -0.790502
    13  O   -0.841951
    14  O   -0.880409
    15  O   -0.877307
    16  O   -0.734331
    17  O   -0.968640
    18  O   -1.081680
    19  O   -0.987902
    20  O   -0.804607
    21  O   -0.829924
    22  H    0.386174
    23  H    0.372300
    24  H    0.365799
    25  H    0.414758
    26  H    0.378690
    27  H    0.429319
    28  H    0.375962
    29  H    0.447538
    30  H    0.411386
    31  H    0.401880
    32  H    0.381322
    33  H    0.443345
 Sum of Mulliken charges =  -0.00000
 Mulliken charges with hydrogens summed into heavy atoms:
               1
     1  Zr   0.004494
     2  O   -0.550303
     3  O   -0.418768
     4  O   -0.680556
     5  O   -0.368570
     6  Si   2.230499
     7  Si   1.786212
     8  Si   2.016391
     9  Si   1.600434
    10  O   -0.471509
    11  O   -0.421444
    12  O   -0.404327
    13  O   -0.427193
    14  O   -0.451090
    15  O   -0.498617
    16  O   -0.353008
    17  O   -0.525295
    18  O   -0.679800
    19  O   -0.576516
    20  O   -0.428645
    21  O   -0.382386
 Electronic spatial extent (au):  <R**2>=           9868.4085
 Charge=              0.0000 electrons
 Dipole moment (field-independent basis, Debye):
    X=              1.0654    Y=             -0.7717    Z=             -2.4024  Tot=              2.7390
 Quadrupole moment (field-independent basis, Debye-Ang):
   XX=           -160.2426   YY=           -154.7094   ZZ=           -157.7353
   XY=             -4.9270   XZ=              2.2902   YZ=              5.7595
 Traceless Quadrupole moment (field-independent basis, Debye-Ang):
   XX=             -2.6802   YY=              2.8530   ZZ=             -0.1729
   XY=             -4.9270   XZ=              2.2902   YZ=              5.7595
 Octapole moment (field-independent basis, Debye-Ang**2):
  XXX=             74.2113  YYY=              6.7739  ZZZ=            -18.6639  XYY=             -2.3128
  XXY=             20.3953  XXZ=             19.2317  XZZ=              5.3587  YZZ=            -17.3331
  YYZ=            -15.6244  XYZ=             28.2265
 Hexadecapole moment (field-independent basis, Debye-Ang**3):
 XXXX=          -6032.2734 YYYY=          -2836.6308 ZZZZ=          -2258.3143 XXXY=             54.5756
 XXXZ=            -21.9226 YYYX=              4.9892 YYYZ=            218.3644 ZZZX=           -183.4808
 ZZZY=            -55.3017 XXYY=          -1482.8073 XXZZ=          -1362.9001 YYZZ=           -924.9553
 XXYZ=             -6.3228 YYXZ=            129.6875 ZZXY=            -59.4345
 N-N= 2.832898864699D+03 E-N=-1.137839774563D+04  KE= 2.373154928105D+03
 1\1\GINC-GRA1249\FOpt\RB3LYP\Gen\H12O16Si4Zr1\SARASHS\14-Aug-2020\0\\#
 n B3LYP/Gen Pseudo=cards EmpiricalDispersion=GD3 Opt=modredundant\\Tit
 le\\0,1\Zr,0.6571060721,-0.1293751526,-0.0550623707\O,-0.2127925867,-0
 .9699864553,1.468608506\O,0.0975418772,1.7423505337,-0.0333322233\O,-0
 .275355384,-0.9287155983,-1.605919182\O,2.5921023115,-0.4341404164,-0.
 0883911996\Si,-1.8396965515,-1.2727599693,-1.9656746492\Si,-1.12360191
 45,2.8307778112,0.055412094\Si,-1.7088996145,-1.2446275102,2.106287366
 1\Si,4.215985033,-0.2615783472,0.0177752877\O,4.9588024888,-0.04359530
 75,-1.4403208195\O,4.8979937695,-1.6323029051,0.6526635428\O,4.4442126
 776,1.0950054225,0.9286538488\O,-2.3031380446,-2.7007194126,1.63635189
 28\O,-2.7162120787,-0.0092819691,1.5943713332\O,-1.572300982,-1.171822
 8877,3.7385106891\O,-2.0196061452,-1.4394639624,-3.5961616314\O,-2.832
 1159902,-0.154941427,-1.2647639899\O,-2.3449044912,-2.6838847899,-1.24
 39296221\O,-2.0559321673,2.4767006584,-1.3004222247\O,-0.6492467767,4.
 3979632087,-0.1059911541\O,-1.9647313397,2.6952821987,1.4531831588\H,5
 .3313923977,1.4709739055,0.934849186\H,5.3058476303,-0.8397255127,-1.8
 584754368\H,4.4647163752,-2.0298038999,1.4161618968\H,-2.3945458153,-2
 .8508264571,0.6782315052\H,-2.3527024955,-1.3967770094,4.2565393751\H,
 -3.0571358015,-0.1242507645,0.6863840098\H,-0.5370774907,4.8946477885,
 0.7125406848\H,-2.2644955102,1.7934348187,1.6930476664\H,-2.66803078,3
 .1727093877,-1.5703255151\H,-2.30412302,-3.4795091074,-1.786504742\H,-
 1.2939025091,-1.1195974477,-4.143625907\H,-2.6211831439,0.7934405755,-
 1.4194213763\\Version=ES64L-G16RevB.01\State=1-A\HF=-2416.9468566\RMSD
 =6.306e-09\RMSF=5.558e-06\Dipole=0.417368,-0.2682543,-0.9566018\Quadru
 pole=-1.9707213,1.7929558,0.1777655,-3.7192768,1.5653551,4.3644368\PG=
 C01 [X(H12O16Si4Zr1)]\\@


 "ANNA, YOU MUSN'T SPEAK OF OXIDIZED MURIATIC ACID
 ANYMORE, FROM NOW ON YOU MUST SAY CHLORINE."
   -- JENS JACOB BERZELIUS, IN 1820, TO HIS COOK, WHO HAD
 COMPLAINED OF THE SMELL OF THE FLASK SHE WAS CLEANING.
 Job cpu time:       0 days 12 hours 24 minutes 51.8 seconds.
 Elapsed time:       0 days  0 hours 57 minutes 55.7 seconds.
 File lengths (MBytes):  RWF=    167 Int=      0 D2E=      0 Chk=     21 Scr=      1
 Normal termination of Gaussian 16 at Fri Aug 14 04:18:49 2020.
