 Entering Gaussian System, Link 0=g16
 Initial command:
 /opt/software/gaussian/g16.b01/l1.exe "/localscratch/sarashs.37242641.0/Gau-17278.inp" -scrdir="/localscratch/sarashs.37242641.0/"
 Entering Link 1 = /opt/software/gaussian/g16.b01/l1.exe PID=     17279.
  
 Copyright (c) 1988-2017, Gaussian, Inc.  All Rights Reserved.
  
 This is part of the Gaussian(R) 16 program.  It is based on
 the Gaussian(R) 09 system (copyright 2009, Gaussian, Inc.),
 the Gaussian(R) 03 system (copyright 2003, Gaussian, Inc.),
 the Gaussian(R) 98 system (copyright 1998, Gaussian, Inc.),
 the Gaussian(R) 94 system (copyright 1995, Gaussian, Inc.),
 the Gaussian 92(TM) system (copyright 1992, Gaussian, Inc.),
 the Gaussian 90(TM) system (copyright 1990, Gaussian, Inc.),
 the Gaussian 88(TM) system (copyright 1988, Gaussian, Inc.),
 the Gaussian 86(TM) system (copyright 1986, Carnegie Mellon
 University), and the Gaussian 82(TM) system (copyright 1983,
 Carnegie Mellon University). Gaussian is a federally registered
 trademark of Gaussian, Inc.
  
 This software contains proprietary and confidential information,
 including trade secrets, belonging to Gaussian, Inc.
  
 This software is provided under written license and may be
 used, copied, transmitted, or stored only in accord with that
 written license.
  
 The following legend is applicable only to US Government
 contracts under FAR:
  
                    RESTRICTED RIGHTS LEGEND
  
 Use, reproduction and disclosure by the US Government is
 subject to restrictions as set forth in subparagraphs (a)
 and (c) of the Commercial Computer Software - Restricted
 Rights clause in FAR 52.227-19.
  
 Gaussian, Inc.
 340 Quinnipiac St., Bldg. 40, Wallingford CT 06492
  
  
 ---------------------------------------------------------------
 Warning -- This program may not be used in any manner that
 competes with the business of Gaussian, Inc. or will provide
 assistance to any competitor of Gaussian, Inc.  The licensee
 of this program is prohibited from giving any competitor of
 Gaussian, Inc. access to this program.  By using this program,
 the user acknowledges that Gaussian, Inc. is engaged in the
 business of creating and licensing software in the field of
 computational chemistry and represents and warrants to the
 licensee that it is not a competitor of Gaussian, Inc. and that
 it will not use this program in any manner prohibited above.
 ---------------------------------------------------------------
  

 Cite this work as:
 Gaussian 16, Revision B.01,
 M. J. Frisch, G. W. Trucks, H. B. Schlegel, G. E. Scuseria, 
 M. A. Robb, J. R. Cheeseman, G. Scalmani, V. Barone, 
 G. A. Petersson, H. Nakatsuji, X. Li, M. Caricato, A. V. Marenich, 
 J. Bloino, B. G. Janesko, R. Gomperts, B. Mennucci, H. P. Hratchian, 
 J. V. Ortiz, A. F. Izmaylov, J. L. Sonnenberg, D. Williams-Young, 
 F. Ding, F. Lipparini, F. Egidi, J. Goings, B. Peng, A. Petrone, 
 T. Henderson, D. Ranasinghe, V. G. Zakrzewski, J. Gao, N. Rega, 
 G. Zheng, W. Liang, M. Hada, M. Ehara, K. Toyota, R. Fukuda, 
 J. Hasegawa, M. Ishida, T. Nakajima, Y. Honda, O. Kitao, H. Nakai, 
 T. Vreven, K. Throssell, J. A. Montgomery, Jr., J. E. Peralta, 
 F. Ogliaro, M. J. Bearpark, J. J. Heyd, E. N. Brothers, K. N. Kudin, 
 V. N. Staroverov, T. A. Keith, R. Kobayashi, J. Normand, 
 K. Raghavachari, A. P. Rendell, J. C. Burant, S. S. Iyengar, 
 J. Tomasi, M. Cossi, J. M. Millam, M. Klene, C. Adamo, R. Cammi, 
 J. W. Ochterski, R. L. Martin, K. Morokuma, O. Farkas, 
 J. B. Foresman, and D. J. Fox, Gaussian, Inc., Wallingford CT, 2016.
 
 ******************************************
 Gaussian 16:  ES64L-G16RevB.01 20-Dec-2017
                14-Aug-2020 
 ******************************************
 %NProcShared=16
 Will use up to   16 processors via shared memory.
 ------------------------------------------------------------------
 #n B3LYP/Gen Pseudo=cards EmpiricalDispersion=GD3 Opt=modredundant
 ------------------------------------------------------------------
 1/18=120,19=15,26=3,38=1/1,3;
 2/9=110,12=2,17=6,18=5,40=1/2;
 3/5=7,11=2,16=1,17=8,25=1,30=1,71=1,74=-5,124=31/1,2,3;
 4//1;
 5/5=2,38=5/2;
 6/7=2,8=2,9=2,10=2,28=1/1;
 7//1,2,3,16;
 1/18=20,19=15,26=3/3(2);
 2/9=110/2;
 99//99;
 2/9=110/2;
 3/5=7,6=1,11=2,16=1,17=8,25=1,30=1,71=1,74=-5,82=7,124=31/1,2,3;
 4/5=5,16=3,69=1/1;
 5/5=2,38=5/2;
 7//1,2,3,16;
 1/18=20,19=15,26=3/3(-5);
 2/9=110/2;
 6/7=2,8=2,9=2,10=2,19=2,28=1/1;
 99/9=1/99;
 -----
 Title
 -----
 Symbolic Z-matrix:
 Charge =  0 Multiplicity = 1
 Zr                    0.6625   -0.11063  -0.17835 
 O                    -0.26043  -0.55679   1.47517 
 O                     0.13509   1.71879  -0.6164 
 O                    -0.24405  -1.2441   -1.52255 
 O                     2.59206  -0.4363   -0.08284 
 Si                   -1.80412  -1.64703  -1.83662 
 Si                   -1.06861   2.81048  -0.82402 
 Si                   -1.77735  -0.65613   2.1151 
 Si                    4.21631  -0.26105   0.01252 
 O                     4.95566  -0.09972  -1.45475 
 O                     4.89877  -1.60704   0.69775 
 O                     4.44778   1.12944   0.86985 
 O                    -2.38463  -2.17556   1.98589 
 O                    -2.74898   0.43346   1.29557 
 O                    -1.68241  -0.19994   3.68704 
 O                    -1.94429  -2.19376  -3.38586 
 O                    -2.79505  -0.38436  -1.45002 
 O                    -2.35229  -2.84131  -0.81651 
 O                    -1.97136   2.15512  -2.08434 
 O                    -0.56271   4.28937  -1.33793 
 O                    -1.94802   3.01953   0.54073 
 H                     5.33501   1.50516   0.85865 
 H                     5.3042   -0.91111  -1.84112 
 H                     4.46373  -1.97795   1.47352 
 H                    -2.45427  -2.54748   1.08828 
 H                    -2.47971  -0.28844   4.22041 
 H                    -3.06857   0.11005   0.43118 
 H                    -0.4634    4.96485  -0.65739 
 H                    -2.2695    2.2035    0.97832 
 H                    -2.56354   2.77399  -2.52962 
 H                    -2.31324  -3.74309  -1.15463 
 H                    -1.19875  -2.02138  -3.97163 
 H                    -2.56329   0.49797  -1.8183 
 
 The following ModRedundant input section has been read:
 A       1       5       9 F                                                   
 

 GradGradGradGradGradGradGradGradGradGradGradGradGradGradGradGradGradGrad
 Berny optimization.
 Initialization pass.
                           ----------------------------
                           !    Initial Parameters    !
                           ! (Angstroms and Degrees)  !
 --------------------------                            --------------------------
 ! Name  Definition              Value          Derivative Info.                !
 --------------------------------------------------------------------------------
 ! R1    R(1,2)                  1.9455         estimate D2E/DX2                !
 ! R2    R(1,3)                  1.9537         estimate D2E/DX2                !
 ! R3    R(1,4)                  1.9782         estimate D2E/DX2                !
 ! R4    R(1,5)                  1.9592         estimate D2E/DX2                !
 ! R5    R(2,8)                  1.6494         estimate D2E/DX2                !
 ! R6    R(3,7)                  1.6382         estimate D2E/DX2                !
 ! R7    R(4,6)                  1.6416         estimate D2E/DX2                !
 ! R8    R(5,9)                  1.6365         estimate D2E/DX2                !
 ! R9    R(6,16)                 1.6488         estimate D2E/DX2                !
 ! R10   R(6,17)                 1.651          estimate D2E/DX2                !
 ! R11   R(6,18)                 1.6636         estimate D2E/DX2                !
 ! R12   R(7,19)                 1.6831         estimate D2E/DX2                !
 ! R13   R(7,20)                 1.6453         estimate D2E/DX2                !
 ! R14   R(7,21)                 1.637          estimate D2E/DX2                !
 ! R15   R(8,13)                 1.6414         estimate D2E/DX2                !
 ! R16   R(8,14)                 1.6742         estimate D2E/DX2                !
 ! R17   R(8,15)                 1.6395         estimate D2E/DX2                !
 ! R18   R(9,10)                 1.6509         estimate D2E/DX2                !
 ! R19   R(9,11)                 1.6574         estimate D2E/DX2                !
 ! R20   R(9,12)                 1.6499         estimate D2E/DX2                !
 ! R21   R(10,23)                0.9639         estimate D2E/DX2                !
 ! R22   R(11,24)                0.9637         estimate D2E/DX2                !
 ! R23   R(12,22)                0.9636         estimate D2E/DX2                !
 ! R24   R(13,25)                0.9741         estimate D2E/DX2                !
 ! R25   R(14,27)                0.9767         estimate D2E/DX2                !
 ! R26   R(15,26)                0.9633         estimate D2E/DX2                !
 ! R27   R(16,32)                0.9637         estimate D2E/DX2                !
 ! R28   R(17,33)                0.9838         estimate D2E/DX2                !
 ! R29   R(18,31)                0.9639         estimate D2E/DX2                !
 ! R30   R(19,30)                0.9654         estimate D2E/DX2                !
 ! R31   R(20,28)                0.964          estimate D2E/DX2                !
 ! R32   R(21,29)                0.9802         estimate D2E/DX2                !
 ! A1    A(2,1,3)              106.0959         estimate D2E/DX2                !
 ! A2    A(2,1,4)              103.2217         estimate D2E/DX2                !
 ! A3    A(2,1,5)              112.8093         estimate D2E/DX2                !
 ! A4    A(3,1,4)              105.0974         estimate D2E/DX2                !
 ! A5    A(3,1,5)              115.624          estimate D2E/DX2                !
 ! A6    A(4,1,5)              112.9056         estimate D2E/DX2                !
 ! A7    A(1,2,8)              141.248          estimate D2E/DX2                !
 ! A8    A(1,3,7)              148.296          estimate D2E/DX2                !
 ! A9    A(1,4,6)              134.9217         estimate D2E/DX2                !
 ! A10   A(1,5,9)              164.275          Frozen                          !
 ! A11   A(4,6,16)             109.9951         estimate D2E/DX2                !
 ! A12   A(4,6,17)             109.7478         estimate D2E/DX2                !
 ! A13   A(4,6,18)             111.8418         estimate D2E/DX2                !
 ! A14   A(16,6,17)            114.9981         estimate D2E/DX2                !
 ! A15   A(16,6,18)            108.0657         estimate D2E/DX2                !
 ! A16   A(17,6,18)            101.9868         estimate D2E/DX2                !
 ! A17   A(3,7,19)             103.2688         estimate D2E/DX2                !
 ! A18   A(3,7,20)             114.3705         estimate D2E/DX2                !
 ! A19   A(3,7,21)             111.9731         estimate D2E/DX2                !
 ! A20   A(19,7,20)            106.3208         estimate D2E/DX2                !
 ! A21   A(19,7,21)            112.6978         estimate D2E/DX2                !
 ! A22   A(20,7,21)            108.1074         estimate D2E/DX2                !
 ! A23   A(2,8,13)             111.4372         estimate D2E/DX2                !
 ! A24   A(2,8,14)             107.7362         estimate D2E/DX2                !
 ! A25   A(2,8,15)             107.576          estimate D2E/DX2                !
 ! A26   A(13,8,14)            110.4387         estimate D2E/DX2                !
 ! A27   A(13,8,15)            110.7607         estimate D2E/DX2                !
 ! A28   A(14,8,15)            108.7746         estimate D2E/DX2                !
 ! A29   A(5,9,10)             113.7768         estimate D2E/DX2                !
 ! A30   A(5,9,11)             110.2316         estimate D2E/DX2                !
 ! A31   A(5,9,12)             105.0573         estimate D2E/DX2                !
 ! A32   A(10,9,11)            105.2125         estimate D2E/DX2                !
 ! A33   A(10,9,12)            108.46           estimate D2E/DX2                !
 ! A34   A(11,9,12)            114.3199         estimate D2E/DX2                !
 ! A35   A(9,10,23)            115.8441         estimate D2E/DX2                !
 ! A36   A(9,11,24)            117.3556         estimate D2E/DX2                !
 ! A37   A(9,12,22)            116.857          estimate D2E/DX2                !
 ! A38   A(8,13,25)            116.8995         estimate D2E/DX2                !
 ! A39   A(8,14,27)            114.056          estimate D2E/DX2                !
 ! A40   A(8,15,26)            117.2165         estimate D2E/DX2                !
 ! A41   A(6,16,32)            116.4904         estimate D2E/DX2                !
 ! A42   A(6,17,33)            117.1852         estimate D2E/DX2                !
 ! A43   A(6,18,31)            116.3081         estimate D2E/DX2                !
 ! A44   A(7,19,30)            115.137          estimate D2E/DX2                !
 ! A45   A(7,20,28)            116.1677         estimate D2E/DX2                !
 ! A46   A(7,21,29)            116.237          estimate D2E/DX2                !
 ! D1    D(3,1,2,8)             57.7298         estimate D2E/DX2                !
 ! D2    D(4,1,2,8)            -52.5293         estimate D2E/DX2                !
 ! D3    D(5,1,2,8)           -174.7062         estimate D2E/DX2                !
 ! D4    D(2,1,3,7)            -50.0979         estimate D2E/DX2                !
 ! D5    D(4,1,3,7)             58.8317         estimate D2E/DX2                !
 ! D6    D(5,1,3,7)           -175.9641         estimate D2E/DX2                !
 ! D7    D(2,1,4,6)             42.7681         estimate D2E/DX2                !
 ! D8    D(3,1,4,6)            -68.2314         estimate D2E/DX2                !
 ! D9    D(5,1,4,6)            164.8805         estimate D2E/DX2                !
 ! D10   D(2,1,5,9)           -106.9249         estimate D2E/DX2                !
 ! D11   D(3,1,5,9)             15.4383         estimate D2E/DX2                !
 ! D12   D(4,1,5,9)            136.52           estimate D2E/DX2                !
 ! D13   D(1,2,8,13)            93.53           estimate D2E/DX2                !
 ! D14   D(1,2,8,14)           -27.7662         estimate D2E/DX2                !
 ! D15   D(1,2,8,15)          -144.8804         estimate D2E/DX2                !
 ! D16   D(1,3,7,19)           -61.1013         estimate D2E/DX2                !
 ! D17   D(1,3,7,20)          -176.1754         estimate D2E/DX2                !
 ! D18   D(1,3,7,21)            60.4092         estimate D2E/DX2                !
 ! D19   D(1,4,6,16)           160.1677         estimate D2E/DX2                !
 ! D20   D(1,4,6,17)            32.6922         estimate D2E/DX2                !
 ! D21   D(1,4,6,18)           -79.7418         estimate D2E/DX2                !
 ! D22   D(1,5,9,10)           -88.4782         estimate D2E/DX2                !
 ! D23   D(1,5,9,11)           153.6195         estimate D2E/DX2                !
 ! D24   D(1,5,9,12)            30.0007         estimate D2E/DX2                !
 ! D25   D(4,6,16,32)          -14.2012         estimate D2E/DX2                !
 ! D26   D(17,6,16,32)         110.2969         estimate D2E/DX2                !
 ! D27   D(18,6,16,32)        -136.554          estimate D2E/DX2                !
 ! D28   D(4,6,17,33)           51.0103         estimate D2E/DX2                !
 ! D29   D(16,6,17,33)         -73.6176         estimate D2E/DX2                !
 ! D30   D(18,6,17,33)         169.7168         estimate D2E/DX2                !
 ! D31   D(4,6,18,31)          -96.4423         estimate D2E/DX2                !
 ! D32   D(16,6,18,31)          24.7712         estimate D2E/DX2                !
 ! D33   D(17,6,18,31)         146.3495         estimate D2E/DX2                !
 ! D34   D(3,7,19,30)         -162.1839         estimate D2E/DX2                !
 ! D35   D(20,7,19,30)         -41.4665         estimate D2E/DX2                !
 ! D36   D(21,7,19,30)          76.7959         estimate D2E/DX2                !
 ! D37   D(3,7,20,28)          -98.427          estimate D2E/DX2                !
 ! D38   D(19,7,20,28)         148.2948         estimate D2E/DX2                !
 ! D39   D(21,7,20,28)          27.0449         estimate D2E/DX2                !
 ! D40   D(3,7,21,29)          -49.8996         estimate D2E/DX2                !
 ! D41   D(19,7,21,29)          66.0153         estimate D2E/DX2                !
 ! D42   D(20,7,21,29)        -176.775          estimate D2E/DX2                !
 ! D43   D(2,8,13,25)          -58.468          estimate D2E/DX2                !
 ! D44   D(14,8,13,25)          61.2405         estimate D2E/DX2                !
 ! D45   D(15,8,13,25)        -178.1895         estimate D2E/DX2                !
 ! D46   D(2,8,14,27)           80.2916         estimate D2E/DX2                !
 ! D47   D(13,8,14,27)         -41.6254         estimate D2E/DX2                !
 ! D48   D(15,8,14,27)        -163.3758         estimate D2E/DX2                !
 ! D49   D(2,8,15,26)         -174.1993         estimate D2E/DX2                !
 ! D50   D(13,8,15,26)         -52.1887         estimate D2E/DX2                !
 ! D51   D(14,8,15,26)          69.3655         estimate D2E/DX2                !
 ! D52   D(5,9,10,23)          -94.8502         estimate D2E/DX2                !
 ! D53   D(11,9,10,23)          25.9079         estimate D2E/DX2                !
 ! D54   D(12,9,10,23)         148.64           estimate D2E/DX2                !
 ! D55   D(5,9,11,24)          -43.8205         estimate D2E/DX2                !
 ! D56   D(10,9,11,24)        -166.8799         estimate D2E/DX2                !
 ! D57   D(12,9,11,24)          74.2393         estimate D2E/DX2                !
 ! D58   D(5,9,12,22)         -166.4771         estimate D2E/DX2                !
 ! D59   D(10,9,12,22)         -44.4742         estimate D2E/DX2                !
 ! D60   D(11,9,12,22)          72.5545         estimate D2E/DX2                !
 --------------------------------------------------------------------------------
 Trust Radius=3.00D-01 FncErr=1.00D-07 GrdErr=1.00D-06 EigMax=2.50D+02 EigMin=1.00D-04
 Number of steps in this run=    148 maximum allowed number of steps=    198.
 GradGradGradGradGradGradGradGradGradGradGradGradGradGradGradGradGradGrad

                          Input orientation:                          
 ---------------------------------------------------------------------
 Center     Atomic      Atomic             Coordinates (Angstroms)
 Number     Number       Type             X           Y           Z
 ---------------------------------------------------------------------
      1         40           0        0.662500   -0.110630   -0.178350
      2          8           0       -0.260430   -0.556790    1.475170
      3          8           0        0.135090    1.718790   -0.616400
      4          8           0       -0.244050   -1.244100   -1.522550
      5          8           0        2.592060   -0.436300   -0.082840
      6         14           0       -1.804120   -1.647030   -1.836620
      7         14           0       -1.068610    2.810480   -0.824020
      8         14           0       -1.777350   -0.656130    2.115100
      9         14           0        4.216310   -0.261050    0.012520
     10          8           0        4.955660   -0.099720   -1.454750
     11          8           0        4.898770   -1.607040    0.697750
     12          8           0        4.447780    1.129440    0.869850
     13          8           0       -2.384630   -2.175560    1.985890
     14          8           0       -2.748980    0.433460    1.295570
     15          8           0       -1.682410   -0.199940    3.687040
     16          8           0       -1.944290   -2.193760   -3.385860
     17          8           0       -2.795050   -0.384360   -1.450020
     18          8           0       -2.352290   -2.841310   -0.816510
     19          8           0       -1.971360    2.155120   -2.084340
     20          8           0       -0.562710    4.289370   -1.337930
     21          8           0       -1.948020    3.019530    0.540730
     22          1           0        5.335010    1.505160    0.858650
     23          1           0        5.304200   -0.911110   -1.841120
     24          1           0        4.463730   -1.977950    1.473520
     25          1           0       -2.454270   -2.547480    1.088280
     26          1           0       -2.479710   -0.288440    4.220410
     27          1           0       -3.068570    0.110050    0.431180
     28          1           0       -0.463400    4.964850   -0.657390
     29          1           0       -2.269500    2.203500    0.978320
     30          1           0       -2.563540    2.773990   -2.529620
     31          1           0       -2.313240   -3.743090   -1.154630
     32          1           0       -1.198750   -2.021380   -3.971630
     33          1           0       -2.563290    0.497970   -1.818300
 ---------------------------------------------------------------------
                    Distance matrix (angstroms):
                    1          2          3          4          5
     1  Zr   0.000000
     2  O    1.945504   0.000000
     3  O    1.953670   3.115985   0.000000
     4  O    1.978247   3.075547   3.121470   0.000000
     5  O    1.959180   3.252478   3.311465   3.281589   0.000000
     6  Si   3.345833   3.813077   4.071636   1.641588   4.885490
     7  Si   3.456373   4.156674   1.638227   4.196125   4.948882
     8  Si   3.392691   1.649371   4.093747   3.991142   4.896020
     9  Si   3.562109   4.718899   4.579483   4.818468   1.636458
    10  O    4.478899   6.000078   5.219933   5.324583   2.753548
    11  O    4.577420   5.322100   5.956575   5.613382   2.702011
    12  O    4.118840   5.037561   4.599518   5.776724   2.608229
    13  O    4.269997   2.719095   5.318540   4.214125   5.663225
    14  O    3.755885   2.684350   3.691282   4.126825   5.584192
    15  O    4.521926   2.653627   5.050191   5.504451   5.704293
    16  O    4.628488   5.398580   5.225110   2.695291   5.880228
    17  O    3.694147   3.874373   3.701876   2.692956   5.558132
    18  O    4.117380   3.853142   5.198232   2.737562   5.546976
    19  O    3.962782   4.790809   2.604297   3.854076   5.616606
    20  O    4.712299   5.611610   2.759604   5.545712   5.818916
    21  O    4.138815   4.063398   2.714815   5.033804   5.739680
    22  H    5.051584   5.995055   5.409305   6.659914   3.489906
    23  H    4.995093   6.487560   5.927564   5.567355   3.266909
    24  H    4.545867   4.933294   6.063891   5.628336   2.881335
    25  H    4.154136   2.987552   5.273687   3.660643   5.594108
    26  H    5.408714   3.540277   5.853280   6.236429   6.653020
    27  H    3.786966   3.069241   3.734823   3.691706   5.710118
    28  H    5.220884   5.922628   3.301027   6.272773   6.232043
    29  H    3.910206   3.449989   2.925770   4.716221   5.632883
    30  H    4.925123   5.695327   3.472242   4.747554   6.547740
    31  H    4.796136   4.613283   6.009671   3.265251   6.012118
    32  H    4.637261   5.717788   5.198612   2.741096   5.657332
    33  H    3.669544   4.154832   3.196282   2.915673   5.519268
                    6          7          8          9         10
     6  Si   0.000000
     7  Si   4.629874   0.000000
     8  Si   4.074149   4.599796   0.000000
     9  Si   6.448708   6.169641   6.364031   0.000000
    10  O    6.945115   6.720038   7.641129   1.650923   0.000000
    11  O    7.166126   7.578911   6.890841   1.657402   2.628404
    12  O    7.356631   6.010462   6.594782   1.649865   2.678160
    13  O    3.902297   5.872657   1.641387   7.150661   8.368212
    14  O    3.877088   3.600907   1.674187   7.116448   8.198172
    15  O    5.711366   5.457934   1.639548   6.949873   8.397144
    16  O    1.648850   5.689662   5.714257   7.296393   7.464817
    17  O    1.650981   3.685034   3.717479   7.163337   7.755936
    18  O    1.663556   5.795742   3.701338   7.105740   7.831334
    19  O    3.813880   1.683110   5.057278   6.965771   7.311928
    20  O    6.085280   1.645343   6.152783   6.735657   7.051962
    21  O    5.239206   1.636950   4.002280   7.002869   7.834058
    22  H    8.256389   6.748451   7.538933   2.255421   2.841015
    23  H    7.146315   7.449660   8.115728   2.245454   0.963906
    24  H    7.095948   7.669064   6.411701   2.267925   3.513475
    25  H    3.128665   5.855312   2.256055   7.133138   8.207655
    26  H    6.244181   6.086114   2.249630   7.908462   9.355628
    27  H    3.135136   3.587156   2.256073   7.306331   8.245544
    28  H    6.848728   2.243960   6.403794   7.046878   7.460018
    29  H    4.792395   2.249220   3.116402   7.005177   7.964144
    30  H    4.538985   2.268307   5.827284   7.851134   8.121079
    31  H    2.262251   6.678899   4.528536   7.491453   8.136407
    32  H    2.250528   5.768124   6.264740   6.949467   6.921288
    33  H    2.275456   2.927518   4.173881   7.063355   7.551424
                   11         12         13         14         15
    11  O    0.000000
    12  O    2.778729   0.000000
    13  O    7.418250   7.671401   0.000000
    14  O    7.937828   7.242857   2.723284   0.000000
    15  O    7.363947   6.876266   2.700018   2.694048   0.000000
    16  O    7.990468   8.367394   5.389799   5.428222   7.353218
    17  O    8.081010   7.754481   3.896450   2.865173   5.259407
    18  O    7.509612   8.053050   2.880575   3.916933   5.263795
    19  O    8.312193   7.140351   5.957546   3.872028   6.240082
    20  O    8.290923   6.321745   7.494164   5.155884   6.830663
    21  O    8.264886   6.677351   5.409998   2.810530   4.509413
    22  H    3.146742   0.963570   8.626193   8.166415   7.755729
    23  H    2.663560   3.499523   8.681183   8.746451   8.937507
    24  H    0.963666   3.165524   6.870343   7.607217   6.770231
    25  H    7.423216   7.823410   0.974104   3.002637   3.586121
    26  H    8.281896   7.824753   2.926319   3.024621   0.963329
    27  H    8.154628   7.597836   2.847615   0.976679   3.552205
    28  H    8.589471   6.415802   7.852612   5.437961   6.858215
    29  H    8.122994   6.803471   4.494955   1.861072   3.668564
    30  H    9.235552   7.963639   6.702230   4.488268   6.947482
    31  H    7.746426   8.576215   3.510714   4.861781   6.032713
    32  H    7.691199   8.077803   6.076358   6.014387   7.887129
    33  H    8.151314   7.535251   4.653122   3.120069   5.618879
                   16         17         18         19         20
    16  O    0.000000
    17  O    2.783019   0.000000
    18  O    2.680922   2.575650   0.000000
    19  O    4.539542   2.744046   5.168831   0.000000
    20  O    6.937849   5.180701   7.370283   2.663915   0.000000
    21  O    6.526601   4.033238   6.029509   2.763827   2.657243
    22  H    9.202504   8.660145   8.988467   7.903587   6.881852
    23  H    7.521437   8.125778   7.962244   7.899031   7.856133
    24  H    8.045052   7.986019   7.242082   8.435106   8.511677
    25  H    4.516982   3.352340   1.930016   5.693256   7.497134
    26  H    7.859533   5.680001   5.648358   6.780802   7.451602
    27  H    4.597971   1.964222   3.283339   3.422575   5.184188
    28  H    7.802774   5.888879   8.033017   3.493524   0.963987
    29  H    6.203848   3.587486   5.355220   3.077518   3.553730
    30  H    5.078893   3.345790   5.874604   0.965376   2.778457
    31  H    2.741338   3.405945   0.963876   5.980813   8.223039
    32  H    0.963676   3.403899   3.457994   4.647789   6.867786
    33  H    3.175817   0.983793   3.492692   1.779692   4.313675
                   21         22         23         24         25
    21  O    0.000000
    22  H    7.445597   0.000000
    23  H    8.585909   3.623268   0.000000
    24  H    8.182630   3.642698   3.582091   0.000000
    25  H    5.616734   8.783479   8.452985   6.952086   0.000000
    26  H    4.976485   8.694152   9.885298   7.655796   3.861884
    27  H    3.119729   8.529315   8.735525   7.885541   2.805639
    28  H    2.724676   6.920216   8.318253   8.776096   7.965302
    29  H    0.980173   7.637445   8.660887   7.941419   4.755843
    30  H    3.141051   8.687773   8.715235   9.380223   6.435774
    31  H    6.981451   9.491741   8.155781   7.479988   2.545588
    32  H    6.806877   8.857658   6.932541   7.855904   5.239828
    33  H    3.507399   8.400216   7.992711   8.145261   4.211278
                   26         27         28         29         30
    26  H    0.000000
    27  H    3.855362   0.000000
    28  H    7.446845   5.616136   0.000000
    29  H    4.094521   2.306601   3.682743   0.000000
    30  H    7.412719   4.014719   3.565908   3.566169   0.000000
    31  H    6.391664   4.234620   8.916130   6.317699   6.665252
    32  H    8.470741   5.236789   7.767389   6.595311   5.190146
    33  H    6.090275   2.337937   5.070529   3.288804   2.384585
                   31         32         33
    31  H    0.000000
    32  H    3.484518   0.000000
    33  H    4.299950   3.584121   0.000000
 Stoichiometry    H12O16Si4Zr
 Framework group  C1[X(H12O16Si4Zr)]
 Deg. of freedom    93
 Full point group                 C1      NOp   1
 Largest Abelian subgroup         C1      NOp   1
 Largest concise Abelian subgroup C1      NOp   1
                         Standard orientation:                         
 ---------------------------------------------------------------------
 Center     Atomic      Atomic             Coordinates (Angstroms)
 Number     Number       Type             X           Y           Z
 ---------------------------------------------------------------------
      1         40           0        0.657719   -0.125749   -0.070066
      2          8           0       -0.224543   -0.899615    1.481621
      3          8           0        0.104233    1.746922   -0.129936
      4          8           0       -0.267851   -0.985525   -1.592421
      5          8           0        2.591788   -0.438308   -0.078537
      6         14           0       -1.830732   -1.339622   -1.948555
      7         14           0       -1.113594    2.842134   -0.095352
      8         14           0       -1.726061   -1.142529    2.119478
      9         14           0        4.216085   -0.263719    0.017220
     10          8           0        4.921498    0.191928   -1.404161
     11          8           0        4.925629   -1.708804    0.411247
     12          8           0        4.453730    0.934612    1.126087
     13          8           0       -2.322228   -2.615016    1.706540
     14          8           0       -2.725320    0.073670    1.549177
     15          8           0       -1.600719   -1.002201    3.748194
     16          8           0       -1.999970   -1.573774   -3.571896
     17          8           0       -2.824333   -0.190467   -1.302076
     18          8           0       -2.345482   -2.717873   -1.172104
     19          8           0       -2.037858    2.434748   -1.441693
     20          8           0       -0.632552    4.399633   -0.318845
     21          8           0       -1.964641    2.767896    1.301005
     22          1           0        5.337055    1.316920    1.171313
     23          1           0        5.268803   -0.523278   -1.949116
     24          1           0        4.511135   -2.230338    1.107559
     25          1           0       -2.408213   -2.804604    0.754941
     26          1           0       -2.385262   -1.204087    4.269478
     27          1           0       -3.060893   -0.078169    0.644613
     28          1           0       -0.524432    4.929815    0.478956
     29          1           0       -2.269006    1.877732    1.576157
     30          1           0       -2.645275    3.121036   -1.745014
     31          1           0       -2.305699   -3.535255   -1.681379
     32          1           0       -1.269085   -1.280052   -4.127060
     33          1           0       -2.608740    0.749930   -1.494490
 ---------------------------------------------------------------------
 Rotational constants (GHZ):           0.2123886           0.1338174           0.1240954
 General basis read from cards:  (5D, 7F)
 ======================================================================================================
                                       Pseudopotential Parameters
 ======================================================================================================
  Center     Atomic      Valence      Angular      Power
  Number     Number     Electrons     Momentum     of R      Exponent        Coefficient   SO-Coeffient
 ======================================================================================================
    1         40           12
                                      G and up 
                                                     2        1.0000000        0.00000000    0.00000000
                                      S - G
                                                     2        8.6365280      150.24299400    0.00000000
                                                     2        3.7176390       18.78003600    0.00000000
                                      P - G
                                                     2        7.6267280       33.19279100    0.00000000
                                                     2        7.4532070       66.38903900    0.00000000
                                                     2        3.3583890        4.62072600    0.00000000
                                                     2        3.2297380        9.26027000    0.00000000
                                      D - G
                                                     2        5.9380860       13.99338300    0.00000000
                                                     2        5.8255440       20.99588200    0.00000000
                                                     2        2.2050190        2.28516600    0.00000000
                                                     2        2.2062920        3.44126000    0.00000000
                                      F - G
                                                     2        4.8002150       -5.23932000    0.00000000
                                                     2        4.7989920       -6.98742400    0.00000000
    2          8
                                   No pseudopotential on this center.
    3          8
                                   No pseudopotential on this center.
    4          8
                                   No pseudopotential on this center.
    5          8
                                   No pseudopotential on this center.
    6         14
                                   No pseudopotential on this center.
    7         14
                                   No pseudopotential on this center.
    8         14
                                   No pseudopotential on this center.
    9         14
                                   No pseudopotential on this center.
   10          8
                                   No pseudopotential on this center.
   11          8
                                   No pseudopotential on this center.
   12          8
                                   No pseudopotential on this center.
   13          8
                                   No pseudopotential on this center.
   14          8
                                   No pseudopotential on this center.
   15          8
                                   No pseudopotential on this center.
   16          8
                                   No pseudopotential on this center.
   17          8
                                   No pseudopotential on this center.
   18          8
                                   No pseudopotential on this center.
   19          8
                                   No pseudopotential on this center.
   20          8
                                   No pseudopotential on this center.
   21          8
                                   No pseudopotential on this center.
   22          1
                                   No pseudopotential on this center.
   23          1
                                   No pseudopotential on this center.
   24          1
                                   No pseudopotential on this center.
   25          1
                                   No pseudopotential on this center.
   26          1
                                   No pseudopotential on this center.
   27          1
                                   No pseudopotential on this center.
   28          1
                                   No pseudopotential on this center.
   29          1
                                   No pseudopotential on this center.
   30          1
                                   No pseudopotential on this center.
   31          1
                                   No pseudopotential on this center.
   32          1
                                   No pseudopotential on this center.
   33          1
                                   No pseudopotential on this center.
 ======================================================================================================
 There are   570 symmetry adapted cartesian basis functions of A   symmetry.
 There are   524 symmetry adapted basis functions of A   symmetry.
   524 basis functions,  1074 primitive gaussians,   570 cartesian basis functions
   104 alpha electrons      104 beta electrons
       nuclear repulsion energy      2832.7345071040 Hartrees.
 NAtoms=   33 NActive=   33 NUniq=   33 SFac= 1.00D+00 NAtFMM=   60 NAOKFM=F Big=F
 Integral buffers will be    131072 words long.
 Raffenetti 2 integral format.
 Two-electron integral symmetry is turned on.
 Nuclear repulsion after empirical dispersion term =     2832.6937196976 Hartrees.
 One-electron integrals computed using PRISM.
 PrsmSu:  requested number of processors reduced to:   4 ShMem   1 Linda.
   1 Symmetry operations used in ECPInt.
 ECPInt:  NShTT=   13203 NPrTT=   78401 LenC2=   11527 LenP2D=   44631.
 LDataN:  DoStor=T MaxTD1= 8 Len=  415
 Number of processors reduced to  13 by ecpmxn.
 NBasis=   524 RedAO= T EigKep=  3.19D-05  NBF=   524
 NBsUse=   524 1.00D-06 EigRej= -1.00D+00 NBFU=   524
 Defaulting to unpruned grid for atomic number  40.
 ExpMin= 1.01D-02 ExpMax= 1.61D+04 ExpMxC= 2.43D+03 IAcc=3 IRadAn=         5 AccDes= 0.00D+00
 Harris functional with IExCor=  402 and IRadAn=       5 diagonalized for initial guess.
 HarFok:  IExCor=  402 AccDes= 0.00D+00 IRadAn=         5 IDoV= 1 UseB2=F ITyADJ=14
 ICtDFT=  3500011 ScaDFX=  1.000000  1.000000  1.000000  1.000000
 Defaulting to unpruned grid for atomic number  40.
 FoFCou: FMM=F IPFlag=           0 FMFlag=      100000 FMFlg1=           0
         NFxFlg=           0 DoJE=T BraDBF=F KetDBF=T FulRan=T
         wScrn=  0.000000 ICntrl=       500 IOpCl=  0 I1Cent=   200000004 NGrid=           0
         NMat0=    1 NMatS0=      1 NMatT0=    0 NMatD0=    1 NMtDS0=    0 NMtDT0=    0
 Petite list used in FoFCou.
 Requested convergence on RMS density matrix=1.00D-08 within 128 cycles.
 Requested convergence on MAX density matrix=1.00D-06.
 Requested convergence on             energy=1.00D-06.
 No special actions if energy rises.
 Defaulting to unpruned grid for atomic number  40.
 Defaulting to unpruned grid for atomic number  40.
 Defaulting to unpruned grid for atomic number  40.
 Defaulting to unpruned grid for atomic number  40.
 Defaulting to unpruned grid for atomic number  40.
 Defaulting to unpruned grid for atomic number  40.
 Defaulting to unpruned grid for atomic number  40.
 Defaulting to unpruned grid for atomic number  40.
 Defaulting to unpruned grid for atomic number  40.
 Defaulting to unpruned grid for atomic number  40.
 Defaulting to unpruned grid for atomic number  40.
 Defaulting to unpruned grid for atomic number  40.
 Defaulting to unpruned grid for atomic number  40.
 Defaulting to unpruned grid for atomic number  40.
 Defaulting to unpruned grid for atomic number  40.
 Defaulting to unpruned grid for atomic number  40.
 SCF Done:  E(RB3LYP) =  -2416.94680314     A.U. after   14 cycles
            NFock= 14  Conv=0.26D-08     -V/T= 2.0185

 **********************************************************************

            Population analysis using the SCF Density.

 **********************************************************************

 Orbital symmetries:
       Occupied  (A) (A) (A) (A) (A) (A) (A) (A) (A) (A) (A) (A)
                 (A) (A) (A) (A) (A) (A) (A) (A) (A) (A) (A) (A)
                 (A) (A) (A) (A) (A) (A) (A) (A) (A) (A) (A) (A)
                 (A) (A) (A) (A) (A) (A) (A) (A) (A) (A) (A) (A)
                 (A) (A) (A) (A) (A) (A) (A) (A) (A) (A) (A) (A)
                 (A) (A) (A) (A) (A) (A) (A) (A) (A) (A) (A) (A)
                 (A) (A) (A) (A) (A) (A) (A) (A) (A) (A) (A) (A)
                 (A) (A) (A) (A) (A) (A) (A) (A) (A) (A) (A) (A)
                 (A) (A) (A) (A) (A) (A) (A) (A)
       Virtual   (A) (A) (A) (A) (A) (A) (A) (A) (A) (A) (A) (A)
                 (A) (A) (A) (A) (A) (A) (A) (A) (A) (A) (A) (A)
                 (A) (A) (A) (A) (A) (A) (A) (A) (A) (A) (A) (A)
                 (A) (A) (A) (A) (A) (A) (A) (A) (A) (A) (A) (A)
                 (A) (A) (A) (A) (A) (A) (A) (A) (A) (A) (A) (A)
                 (A) (A) (A) (A) (A) (A) (A) (A) (A) (A) (A) (A)
                 (A) (A) (A) (A) (A) (A) (A) (A) (A) (A) (A) (A)
                 (A) (A) (A) (A) (A) (A) (A) (A) (A) (A) (A) (A)
                 (A) (A) (A) (A) (A) (A) (A) (A) (A) (A) (A) (A)
                 (A) (A) (A) (A) (A) (A) (A) (A) (A) (A) (A) (A)
                 (A) (A) (A) (A) (A) (A) (A) (A) (A) (A) (A) (A)
                 (A) (A) (A) (A) (A) (A) (A) (A) (A) (A) (A) (A)
                 (A) (A) (A) (A) (A) (A) (A) (A) (A) (A) (A) (A)
                 (A) (A) (A) (A) (A) (A) (A) (A) (A) (A) (A) (A)
                 (A) (A) (A) (A) (A) (A) (A) (A) (A) (A) (A) (A)
                 (A) (A) (A) (A) (A) (A) (A) (A) (A) (A) (A) (A)
                 (A) (A) (A) (A) (A) (A) (A) (A) (A) (A) (A) (A)
                 (A) (A) (A) (A) (A) (A) (A) (A) (A) (A) (A) (A)
                 (A) (A) (A) (A) (A) (A) (A) (A) (A) (A) (A) (A)
                 (A) (A) (A) (A) (A) (A) (A) (A) (A) (A) (A) (A)
                 (A) (A) (A) (A) (A) (A) (A) (A) (A) (A) (A) (A)
                 (A) (A) (A) (A) (A) (A) (A) (A) (A) (A) (A) (A)
                 (A) (A) (A) (A) (A) (A) (A) (A) (A) (A) (A) (A)
                 (A) (A) (A) (A) (A) (A) (A) (A) (A) (A) (A) (A)
                 (A) (A) (A) (A) (A) (A) (A) (A) (A) (A) (A) (A)
                 (A) (A) (A) (A) (A) (A) (A) (A) (A) (A) (A) (A)
                 (A) (A) (A) (A) (A) (A) (A) (A) (A) (A) (A) (A)
                 (A) (A) (A) (A) (A) (A) (A) (A) (A) (A) (A) (A)
                 (A) (A) (A) (A) (A) (A) (A) (A) (A) (A) (A) (A)
                 (A) (A) (A) (A) (A) (A) (A) (A) (A) (A) (A) (A)
                 (A) (A) (A) (A) (A) (A) (A) (A) (A) (A) (A) (A)
                 (A) (A) (A) (A) (A) (A) (A) (A) (A) (A) (A) (A)
                 (A) (A) (A) (A) (A) (A) (A) (A) (A) (A) (A) (A)
                 (A) (A) (A) (A) (A) (A) (A) (A) (A) (A) (A) (A)
                 (A) (A) (A) (A) (A) (A) (A) (A) (A) (A) (A) (A)
 The electronic state is 1-A.
 Alpha  occ. eigenvalues --  -66.22817 -66.21757 -66.21494 -66.21007 -19.18599
 Alpha  occ. eigenvalues --  -19.18356 -19.17807 -19.17032 -19.16738 -19.16555
 Alpha  occ. eigenvalues --  -19.16455 -19.16204 -19.16164 -19.16023 -19.15952
 Alpha  occ. eigenvalues --  -19.15507 -19.15331 -19.15219 -19.14887 -19.14690
 Alpha  occ. eigenvalues --   -5.36877  -5.35837  -5.35569  -5.35067  -3.72861
 Alpha  occ. eigenvalues --   -3.72834  -3.72787  -3.71829  -3.71782  -3.71747
 Alpha  occ. eigenvalues --   -3.71538  -3.71529  -3.71489  -3.71032  -3.71023
 Alpha  occ. eigenvalues --   -3.70998  -2.13358  -1.29602  -1.29517  -1.29359
 Alpha  occ. eigenvalues --   -1.05691  -1.04780  -1.04159  -1.03470  -1.02579
 Alpha  occ. eigenvalues --   -1.02176  -1.01473  -1.00920  -1.00773  -1.00640
 Alpha  occ. eigenvalues --   -0.99816  -0.99291  -0.97374  -0.96288  -0.95721
 Alpha  occ. eigenvalues --   -0.95380  -0.61001  -0.59162  -0.58979  -0.58459
 Alpha  occ. eigenvalues --   -0.55555  -0.54535  -0.53873  -0.53033  -0.52994
 Alpha  occ. eigenvalues --   -0.52477  -0.52120  -0.51710  -0.48790  -0.47602
 Alpha  occ. eigenvalues --   -0.47205  -0.46689  -0.43379  -0.42637  -0.41869
 Alpha  occ. eigenvalues --   -0.41408  -0.41099  -0.40530  -0.39843  -0.39304
 Alpha  occ. eigenvalues --   -0.38832  -0.38693  -0.38636  -0.38135  -0.37998
 Alpha  occ. eigenvalues --   -0.37617  -0.37509  -0.37146  -0.36494  -0.36429
 Alpha  occ. eigenvalues --   -0.36130  -0.35660  -0.35431  -0.35070  -0.34919
 Alpha  occ. eigenvalues --   -0.34604  -0.33979  -0.33699  -0.33441  -0.33289
 Alpha  occ. eigenvalues --   -0.32781  -0.32185  -0.32045  -0.31287
 Alpha virt. eigenvalues --   -0.04340  -0.03149  -0.03023  -0.02762  -0.02100
 Alpha virt. eigenvalues --   -0.01166  -0.00571  -0.00172   0.00136   0.00310
 Alpha virt. eigenvalues --    0.00764   0.00943   0.01027   0.01946   0.02337
 Alpha virt. eigenvalues --    0.03192   0.03349   0.03813   0.03921   0.04073
 Alpha virt. eigenvalues --    0.04174   0.04854   0.05591   0.05835   0.06136
 Alpha virt. eigenvalues --    0.06487   0.07123   0.07397   0.07722   0.08655
 Alpha virt. eigenvalues --    0.08770   0.08996   0.09195   0.09683   0.10006
 Alpha virt. eigenvalues --    0.10434   0.10617   0.10799   0.11146   0.11720
 Alpha virt. eigenvalues --    0.11846   0.12528   0.13262   0.13331   0.13875
 Alpha virt. eigenvalues --    0.14064   0.14287   0.14854   0.15213   0.15433
 Alpha virt. eigenvalues --    0.15442   0.15755   0.16176   0.16729   0.16890
 Alpha virt. eigenvalues --    0.17426   0.17483   0.17644   0.18005   0.18280
 Alpha virt. eigenvalues --    0.18497   0.18865   0.19162   0.19549   0.19745
 Alpha virt. eigenvalues --    0.20072   0.20477   0.20639   0.21052   0.21294
 Alpha virt. eigenvalues --    0.21720   0.21752   0.22209   0.22558   0.22850
 Alpha virt. eigenvalues --    0.23381   0.23847   0.23998   0.24183   0.24521
 Alpha virt. eigenvalues --    0.25105   0.25221   0.25484   0.25780   0.26150
 Alpha virt. eigenvalues --    0.26420   0.26723   0.26892   0.27287   0.27337
 Alpha virt. eigenvalues --    0.27940   0.28107   0.28426   0.28865   0.29027
 Alpha virt. eigenvalues --    0.29510   0.29589   0.29839   0.30417   0.30601
 Alpha virt. eigenvalues --    0.30907   0.31282   0.31366   0.31588   0.32235
 Alpha virt. eigenvalues --    0.32459   0.32864   0.33197   0.33495   0.34048
 Alpha virt. eigenvalues --    0.34235   0.34839   0.35320   0.35781   0.36301
 Alpha virt. eigenvalues --    0.36916   0.37659   0.37955   0.38336   0.38990
 Alpha virt. eigenvalues --    0.39193   0.39792   0.40168   0.41183   0.41632
 Alpha virt. eigenvalues --    0.42260   0.43306   0.43820   0.44446   0.44710
 Alpha virt. eigenvalues --    0.45195   0.45904   0.46150   0.46860   0.47451
 Alpha virt. eigenvalues --    0.47768   0.48342   0.49081   0.49378   0.49628
 Alpha virt. eigenvalues --    0.49840   0.50562   0.51108   0.51377   0.53218
 Alpha virt. eigenvalues --    0.54030   0.54531   0.55170   0.56993   0.57294
 Alpha virt. eigenvalues --    0.58262   0.58865   0.59271   0.59624   0.60276
 Alpha virt. eigenvalues --    0.61339   0.61693   0.62055   0.63852   0.65943
 Alpha virt. eigenvalues --    0.66640   0.67685   0.68254   0.69202   0.69505
 Alpha virt. eigenvalues --    0.70389   0.70529   0.72824   0.74343   0.75136
 Alpha virt. eigenvalues --    0.75543   0.77573   0.78623   0.79020   0.80497
 Alpha virt. eigenvalues --    0.81085   0.81434   0.82620   0.84170   0.85535
 Alpha virt. eigenvalues --    0.86920   0.87669   0.89820   0.90685   0.91127
 Alpha virt. eigenvalues --    0.94162   0.95687   0.96392   0.96905   0.97511
 Alpha virt. eigenvalues --    0.98202   0.98918   0.99322   0.99866   1.00017
 Alpha virt. eigenvalues --    1.00655   1.01449   1.01837   1.03186   1.03994
 Alpha virt. eigenvalues --    1.04242   1.05576   1.06219   1.06723   1.07839
 Alpha virt. eigenvalues --    1.09743   1.12330   1.15220   1.16174   1.16442
 Alpha virt. eigenvalues --    1.18779   1.19057   1.20046   1.20596   1.20990
 Alpha virt. eigenvalues --    1.21453   1.21757   1.22202   1.22639   1.22961
 Alpha virt. eigenvalues --    1.23507   1.24073   1.24118   1.25253   1.25715
 Alpha virt. eigenvalues --    1.25918   1.27117   1.27607   1.28046   1.28479
 Alpha virt. eigenvalues --    1.28962   1.29773   1.30190   1.31066   1.31354
 Alpha virt. eigenvalues --    1.32350   1.32620   1.32973   1.33439   1.34458
 Alpha virt. eigenvalues --    1.35105   1.36186   1.36444   1.36884   1.37808
 Alpha virt. eigenvalues --    1.39133   1.39748   1.40150   1.41308   1.41626
 Alpha virt. eigenvalues --    1.42699   1.43519   1.44118   1.44916   1.46399
 Alpha virt. eigenvalues --    1.47125   1.49035   1.51302   1.51694   1.52895
 Alpha virt. eigenvalues --    1.56747   1.57543   1.58130   1.59349   1.59600
 Alpha virt. eigenvalues --    1.60054   1.61093   1.61979   1.62553   1.62914
 Alpha virt. eigenvalues --    1.63313   1.63770   1.65083   1.65420   1.66425
 Alpha virt. eigenvalues --    1.67650   1.68191   1.69185   1.69350   1.70006
 Alpha virt. eigenvalues --    1.71296   1.71570   1.71804   1.72775   1.73019
 Alpha virt. eigenvalues --    1.74039   1.75000   1.75671   1.76098   1.76404
 Alpha virt. eigenvalues --    1.77050   1.77283   1.78493   1.78962   1.79793
 Alpha virt. eigenvalues --    1.80460   1.81362   1.82123   1.82612   1.83066
 Alpha virt. eigenvalues --    1.83374   1.84816   1.85031   1.85837   1.86597
 Alpha virt. eigenvalues --    1.87314   1.88088   1.88840   1.89633   1.90478
 Alpha virt. eigenvalues --    1.91008   1.91597   1.92575   1.92672   1.93953
 Alpha virt. eigenvalues --    1.94524   1.95151   1.95948   1.97170   1.98380
 Alpha virt. eigenvalues --    1.98683   2.00352   2.01112   2.02564   2.03747
 Alpha virt. eigenvalues --    2.05793   2.06514   2.07532   2.09899   2.10426
 Alpha virt. eigenvalues --    2.11432   2.12975   2.14510   2.16124   2.16432
 Alpha virt. eigenvalues --    2.17645   2.18844   2.19278   2.20868   2.26730
 Alpha virt. eigenvalues --    2.32549   2.33426   2.35390   2.39463   2.40426
 Alpha virt. eigenvalues --    2.41119   2.41433   2.41603   2.42794   2.43769
 Alpha virt. eigenvalues --    2.43983   2.45547   2.46686   2.47542   2.49086
 Alpha virt. eigenvalues --    2.50207   2.50317   2.51659   2.52668   2.53283
 Alpha virt. eigenvalues --    2.55481   2.58419   2.59149   2.60052   2.60692
 Alpha virt. eigenvalues --    2.61110   2.61736   2.62111   2.62493   2.62786
 Alpha virt. eigenvalues --    2.63170   2.64047   2.64705   2.65002   2.65951
 Alpha virt. eigenvalues --    2.66250   2.66719   2.67327   2.67562   2.69371
 Alpha virt. eigenvalues --    2.69859   2.70305   2.71221   2.71661   2.72382
 Alpha virt. eigenvalues --    2.72945   2.74353   2.75554   2.76789   2.77480
 Alpha virt. eigenvalues --    2.78953   2.80623   2.81424   2.82449   2.83481
 Alpha virt. eigenvalues --    2.83816   2.84706   2.86703   2.87789   2.88144
 Alpha virt. eigenvalues --    3.14965   3.20824   3.35931   3.41138   3.46695
 Alpha virt. eigenvalues --    3.47803   3.48462   3.48629   3.51057   3.51102
 Alpha virt. eigenvalues --    3.52883   3.53732   3.60311   3.61068   3.62074
 Alpha virt. eigenvalues --    3.66187   4.35408   4.61472   7.95541  31.29316
          Condensed to atoms (all electrons):
               1          2          3          4          5          6
     1  Zr  15.087256  -0.098876  -0.003376  -0.124766  -0.197718  -0.642266
     2  O   -0.098876   9.046525   0.019906  -0.041349  -0.058800   0.080602
     3  O   -0.003376   0.019906   8.824845   0.017452  -0.046347  -0.001407
     4  O   -0.124766  -0.041349   0.017452   8.815900  -0.059940  -0.684211
     5  O   -0.197718  -0.058800  -0.046347  -0.059940   9.422563  -0.009541
     6  Si  -0.642266   0.080602  -0.001407  -0.684211  -0.009541  14.042925
     7  Si  -0.608963  -0.028851  -0.868876  -0.009821  -0.034518   0.082077
     8  Si  -0.650326  -0.989965  -0.018874   0.066826  -0.016051   0.004458
     9  Si  -0.292124  -0.039662  -0.025416  -0.032047  -1.189603   0.039207
    10  O   -0.014007   0.000997  -0.001570   0.000546   0.123066  -0.002306
    11  O   -0.078585   0.003123   0.003151   0.001638   0.322100  -0.000228
    12  O    0.050677   0.000385   0.004489   0.001914   0.131788  -0.003228
    13  O   -0.025355   0.181922   0.001623  -0.015374  -0.000736   0.032835
    14  O   -0.007182   0.258263  -0.017520  -0.008463   0.001730   0.026132
    15  O   -0.085133   0.291691  -0.000625   0.001215   0.000647   0.000562
    16  O   -0.122881   0.004672  -0.000546   0.347954   0.003266  -0.430986
    17  O   -0.074507  -0.039794   0.008706   0.214836   0.001316  -0.452183
    18  O   -0.026356  -0.014439   0.003764   0.196528  -0.000728  -0.449686
    19  O    0.005884   0.008800   0.266623   0.010273   0.002076  -0.008121
    20  O   -0.144143  -0.000581   0.162259  -0.000787   0.001507   0.009059
    21  O    0.037033   0.010070   0.146828   0.003453   0.000184  -0.011901
    22  H   -0.009151  -0.000011   0.000012  -0.000006   0.006265   0.000087
    23  H   -0.008601  -0.000011  -0.000002  -0.000049  -0.024670   0.000128
    24  H   -0.006585  -0.000109  -0.000010   0.000008  -0.004344   0.000131
    25  H    0.016518  -0.019757  -0.000111  -0.000408   0.000018   0.003037
    26  H    0.006956   0.000838   0.000014  -0.000011  -0.000003  -0.000140
    27  H    0.001404  -0.018652   0.000778  -0.001810   0.000015   0.009827
    28  H    0.004943  -0.000011  -0.018373  -0.000014  -0.000014  -0.000269
    29  H    0.003288  -0.007013  -0.020236  -0.000137  -0.000072   0.000264
    30  H    0.000406  -0.000011   0.000061  -0.000458  -0.000008  -0.000568
    31  H    0.000041   0.000182  -0.000020  -0.018435  -0.000010   0.063676
    32  H    0.002203  -0.000024   0.000042   0.010430   0.000002   0.022713
    33  H   -0.015271   0.001033  -0.010074  -0.009608  -0.000096   0.052608
               7          8          9         10         11         12
     1  Zr  -0.608963  -0.650326  -0.292124  -0.014007  -0.078585   0.050677
     2  O   -0.028851  -0.989965  -0.039662   0.000997   0.003123   0.000385
     3  O   -0.868876  -0.018874  -0.025416  -0.001570   0.003151   0.004489
     4  O   -0.009821   0.066826  -0.032047   0.000546   0.001638   0.001914
     5  O   -0.034518  -0.016051  -1.189603   0.123066   0.322100   0.131788
     6  Si   0.082077   0.004458   0.039207  -0.002306  -0.000228  -0.003228
     7  Si  13.789362   0.184437   0.016385  -0.000042  -0.000999   0.003631
     8  Si   0.184437  13.831572   0.028848  -0.001290   0.001270  -0.001487
     9  Si   0.016385   0.028848  14.141314  -0.058382  -0.184895  -0.177122
    10  O   -0.000042  -0.001290  -0.058382   8.514984   0.017259   0.031653
    11  O   -0.000999   0.001270  -0.184895   0.017259   8.525292  -0.055395
    12  O    0.003631  -0.001487  -0.177122   0.031653  -0.055395   8.593627
    13  O    0.007017  -0.096022   0.000215   0.000000   0.000015   0.000002
    14  O    0.008338  -0.363301  -0.001632  -0.000003   0.000004   0.000008
    15  O   -0.002239  -0.303907  -0.000603  -0.000000  -0.000018  -0.000001
    16  O    0.003652  -0.010777  -0.000960   0.000005  -0.000007  -0.000001
    17  O   -0.001955   0.095797   0.002221   0.000000   0.000004  -0.000006
    18  O   -0.000705   0.076873   0.003914  -0.000000   0.000005  -0.000000
    19  O   -0.414669  -0.016503   0.001031   0.000009  -0.000001  -0.000034
    20  O   -0.109340   0.009887   0.003002   0.000011  -0.000002  -0.000048
    21  O    0.025451  -0.041258  -0.001561  -0.000001   0.000001   0.000011
    22  H   -0.000111   0.000094   0.047150  -0.006732  -0.004881   0.219779
    23  H    0.000066   0.000061   0.080856   0.229055  -0.005777   0.005646
    24  H    0.000041   0.000046   0.036341   0.007102   0.243373  -0.007180
    25  H   -0.000454   0.057010  -0.000210   0.000000  -0.000000  -0.000000
    26  H   -0.000371   0.046324  -0.000041  -0.000000   0.000000  -0.000000
    27  H    0.001750   0.068610   0.000009   0.000000  -0.000000  -0.000000
    28  H    0.056616  -0.000035  -0.000146  -0.000000  -0.000000  -0.000002
    29  H    0.048148   0.022449  -0.000055   0.000000  -0.000000  -0.000001
    30  H    0.040503   0.000133   0.000019  -0.000000   0.000000   0.000000
    31  H    0.000153  -0.002098  -0.000044   0.000000  -0.000000   0.000000
    32  H   -0.000672   0.000055   0.000019  -0.000000   0.000000  -0.000000
    33  H    0.020617  -0.000030   0.000071  -0.000000   0.000000   0.000000
              13         14         15         16         17         18
     1  Zr  -0.025355  -0.007182  -0.085133  -0.122881  -0.074507  -0.026356
     2  O    0.181922   0.258263   0.291691   0.004672  -0.039794  -0.014439
     3  O    0.001623  -0.017520  -0.000625  -0.000546   0.008706   0.003764
     4  O   -0.015374  -0.008463   0.001215   0.347954   0.214836   0.196528
     5  O   -0.000736   0.001730   0.000647   0.003266   0.001316  -0.000728
     6  Si   0.032835   0.026132   0.000562  -0.430986  -0.452183  -0.449686
     7  Si   0.007017   0.008338  -0.002239   0.003652  -0.001955  -0.000705
     8  Si  -0.096022  -0.363301  -0.303907  -0.010777   0.095797   0.076873
     9  Si   0.000215  -0.001632  -0.000603  -0.000960   0.002221   0.003914
    10  O    0.000000  -0.000003  -0.000000   0.000005   0.000000  -0.000000
    11  O    0.000015   0.000004  -0.000018  -0.000007   0.000004   0.000005
    12  O    0.000002   0.000008  -0.000001  -0.000001  -0.000006  -0.000000
    13  O    8.626262   0.086159  -0.090124   0.003759  -0.030904  -0.045647
    14  O    0.086159   8.669392   0.055568   0.003668  -0.036012  -0.026999
    15  O   -0.090124   0.055568   8.777677  -0.000174   0.003592   0.001679
    16  O    0.003759   0.003668  -0.000174   8.905150  -0.091950  -0.114835
    17  O   -0.030904  -0.036012   0.003592  -0.091950   8.934569   0.226711
    18  O   -0.045647  -0.026999   0.001679  -0.114835   0.226711   9.011716
    19  O    0.000171  -0.000589   0.000141  -0.001545  -0.030232   0.000145
    20  O    0.000009  -0.000289   0.000036   0.000066  -0.000974   0.000014
    21  O   -0.000276   0.015947  -0.000594  -0.000213  -0.005539   0.000479
    22  H   -0.000000  -0.000000   0.000000   0.000000   0.000000  -0.000000
    23  H    0.000000   0.000000   0.000000  -0.000000   0.000000   0.000000
    24  H   -0.000000   0.000000   0.000001   0.000000  -0.000000  -0.000000
    25  H    0.218540  -0.011826   0.008903  -0.000060   0.000624   0.014950
    26  H   -0.005085  -0.010143   0.216815   0.000000  -0.000002   0.000006
    27  H   -0.009586   0.219879   0.004652   0.000180   0.017966  -0.000221
    28  H    0.000000  -0.000005  -0.000001  -0.000000   0.000004  -0.000000
    29  H    0.000809   0.017519  -0.002583  -0.000004  -0.000391   0.000007
    30  H    0.000001   0.000006   0.000000   0.000112  -0.000407  -0.000007
    31  H    0.002357   0.000172  -0.000018   0.003730  -0.000719   0.218138
    32  H   -0.000008  -0.000006   0.000000   0.233371  -0.003642   0.003864
    33  H    0.000226   0.002106  -0.000034  -0.000091   0.231020   0.002107
              19         20         21         22         23         24
     1  Zr   0.005884  -0.144143   0.037033  -0.009151  -0.008601  -0.006585
     2  O    0.008800  -0.000581   0.010070  -0.000011  -0.000011  -0.000109
     3  O    0.266623   0.162259   0.146828   0.000012  -0.000002  -0.000010
     4  O    0.010273  -0.000787   0.003453  -0.000006  -0.000049   0.000008
     5  O    0.002076   0.001507   0.000184   0.006265  -0.024670  -0.004344
     6  Si  -0.008121   0.009059  -0.011901   0.000087   0.000128   0.000131
     7  Si  -0.414669  -0.109340   0.025451  -0.000111   0.000066   0.000041
     8  Si  -0.016503   0.009887  -0.041258   0.000094   0.000061   0.000046
     9  Si   0.001031   0.003002  -0.001561   0.047150   0.080856   0.036341
    10  O    0.000009   0.000011  -0.000001  -0.006732   0.229055   0.007102
    11  O   -0.000001  -0.000002   0.000001  -0.004881  -0.005777   0.243373
    12  O   -0.000034  -0.000048   0.000011   0.219779   0.005646  -0.007180
    13  O    0.000171   0.000009  -0.000276  -0.000000   0.000000  -0.000000
    14  O   -0.000589  -0.000289   0.015947  -0.000000   0.000000   0.000000
    15  O    0.000141   0.000036  -0.000594   0.000000   0.000000   0.000001
    16  O   -0.001545   0.000066  -0.000213   0.000000  -0.000000   0.000000
    17  O   -0.030232  -0.000974  -0.005539   0.000000   0.000000  -0.000000
    18  O    0.000145   0.000014   0.000479  -0.000000   0.000000  -0.000000
    19  O    8.874709   0.032250   0.023366  -0.000000   0.000000  -0.000000
    20  O    0.032250   8.657683  -0.050507   0.000000   0.000000  -0.000000
    21  O    0.023366  -0.050507   8.484506  -0.000000   0.000000   0.000000
    22  H   -0.000000   0.000000  -0.000000   0.362921   0.000066   0.000122
    23  H    0.000000   0.000000   0.000000   0.000066   0.351344   0.000019
    24  H   -0.000000  -0.000000   0.000000   0.000122   0.000019   0.365334
    25  H   -0.000024   0.000000  -0.000019   0.000000   0.000000   0.000000
    26  H    0.000001  -0.000000   0.000040  -0.000000  -0.000000  -0.000000
    27  H    0.000039   0.000193  -0.004019  -0.000000  -0.000000   0.000000
    28  H    0.004631   0.229623  -0.002028  -0.000000   0.000000  -0.000000
    29  H   -0.008566   0.007676   0.206448   0.000000  -0.000000  -0.000000
    30  H    0.224101  -0.001452  -0.007144   0.000000  -0.000000  -0.000000
    31  H    0.000004  -0.000000  -0.000000  -0.000000  -0.000000   0.000000
    32  H    0.000097  -0.000000   0.000001  -0.000000  -0.000000  -0.000000
    33  H    0.014780  -0.000079   0.001469  -0.000000  -0.000000  -0.000000
              25         26         27         28         29         30
     1  Zr   0.016518   0.006956   0.001404   0.004943   0.003288   0.000406
     2  O   -0.019757   0.000838  -0.018652  -0.000011  -0.007013  -0.000011
     3  O   -0.000111   0.000014   0.000778  -0.018373  -0.020236   0.000061
     4  O   -0.000408  -0.000011  -0.001810  -0.000014  -0.000137  -0.000458
     5  O    0.000018  -0.000003   0.000015  -0.000014  -0.000072  -0.000008
     6  Si   0.003037  -0.000140   0.009827  -0.000269   0.000264  -0.000568
     7  Si  -0.000454  -0.000371   0.001750   0.056616   0.048148   0.040503
     8  Si   0.057010   0.046324   0.068610  -0.000035   0.022449   0.000133
     9  Si  -0.000210  -0.000041   0.000009  -0.000146  -0.000055   0.000019
    10  O    0.000000  -0.000000   0.000000  -0.000000   0.000000  -0.000000
    11  O   -0.000000   0.000000  -0.000000  -0.000000  -0.000000   0.000000
    12  O   -0.000000  -0.000000  -0.000000  -0.000002  -0.000001   0.000000
    13  O    0.218540  -0.005085  -0.009586   0.000000   0.000809   0.000001
    14  O   -0.011826  -0.010143   0.219879  -0.000005   0.017519   0.000006
    15  O    0.008903   0.216815   0.004652  -0.000001  -0.002583   0.000000
    16  O   -0.000060   0.000000   0.000180  -0.000000  -0.000004   0.000112
    17  O    0.000624  -0.000002   0.017966   0.000004  -0.000391  -0.000407
    18  O    0.014950   0.000006  -0.000221  -0.000000   0.000007  -0.000007
    19  O   -0.000024   0.000001   0.000039   0.004631  -0.008566   0.224101
    20  O    0.000000  -0.000000   0.000193   0.229623   0.007676  -0.001452
    21  O   -0.000019   0.000040  -0.004019  -0.002028   0.206448  -0.007144
    22  H    0.000000  -0.000000  -0.000000  -0.000000   0.000000   0.000000
    23  H    0.000000  -0.000000  -0.000000   0.000000  -0.000000  -0.000000
    24  H    0.000000  -0.000000   0.000000  -0.000000  -0.000000  -0.000000
    25  H    0.298996  -0.000011   0.000104   0.000000   0.000001   0.000000
    26  H   -0.000011   0.366201   0.000034   0.000000   0.000021  -0.000000
    27  H    0.000104   0.000034   0.283432  -0.000000  -0.001490   0.000009
    28  H    0.000000   0.000000  -0.000000   0.349069  -0.000017  -0.000016
    29  H    0.000001   0.000021  -0.001490  -0.000017   0.285890   0.000156
    30  H    0.000000  -0.000000   0.000009  -0.000016   0.000156   0.334304
    31  H   -0.000495   0.000000   0.000012  -0.000000   0.000000  -0.000000
    32  H   -0.000001   0.000000  -0.000000   0.000000  -0.000000  -0.000000
    33  H    0.000006  -0.000000  -0.002412  -0.000002   0.000098  -0.001160
              31         32         33
     1  Zr   0.000041   0.002203  -0.015271
     2  O    0.000182  -0.000024   0.001033
     3  O   -0.000020   0.000042  -0.010074
     4  O   -0.018435   0.010430  -0.009608
     5  O   -0.000010   0.000002  -0.000096
     6  Si   0.063676   0.022713   0.052608
     7  Si   0.000153  -0.000672   0.020617
     8  Si  -0.002098   0.000055  -0.000030
     9  Si  -0.000044   0.000019   0.000071
    10  O    0.000000  -0.000000  -0.000000
    11  O   -0.000000   0.000000   0.000000
    12  O    0.000000  -0.000000   0.000000
    13  O    0.002357  -0.000008   0.000226
    14  O    0.000172  -0.000006   0.002106
    15  O   -0.000018   0.000000  -0.000034
    16  O    0.003730   0.233371  -0.000091
    17  O   -0.000719  -0.003642   0.231020
    18  O    0.218138   0.003864   0.002107
    19  O    0.000004   0.000097   0.014780
    20  O   -0.000000  -0.000000  -0.000079
    21  O   -0.000000   0.000001   0.001469
    22  H   -0.000000  -0.000000  -0.000000
    23  H   -0.000000  -0.000000  -0.000000
    24  H    0.000000  -0.000000  -0.000000
    25  H   -0.000495  -0.000001   0.000006
    26  H    0.000000   0.000000  -0.000000
    27  H    0.000012  -0.000000  -0.002412
    28  H   -0.000000   0.000000  -0.000002
    29  H    0.000000  -0.000000   0.000098
    30  H   -0.000000  -0.000000  -0.001160
    31  H    0.331513   0.000002  -0.000038
    32  H    0.000002   0.350209   0.000156
    33  H   -0.000038   0.000156   0.269376
 Mulliken charges:
               1
     1  Zr   0.019562
     2  O   -0.551094
     3  O   -0.427171
     4  O   -0.681278
     5  O   -0.373339
     6  Si   2.226713
     7  Si   1.794345
     8  Si   2.017177
     9  Si   1.603900
    10  O   -0.840352
    11  O   -0.786447
    12  O   -0.799102
    13  O   -0.842807
    14  O   -0.880919
    15  O   -0.877121
    16  O   -0.734552
    17  O   -0.968151
    18  O   -1.081277
    19  O   -0.988847
    20  O   -0.805072
    21  O   -0.830228
    22  H    0.384398
    23  H    0.371869
    24  H    0.365710
    25  H    0.414668
    26  H    0.378557
    27  H    0.429296
    28  H    0.376046
    29  H    0.447790
    30  H    0.411418
    31  H    0.401897
    32  H    0.381189
    33  H    0.443222
 Sum of Mulliken charges =  -0.00000
 Mulliken charges with hydrogens summed into heavy atoms:
               1
     1  Zr   0.019562
     2  O   -0.551094
     3  O   -0.427171
     4  O   -0.681278
     5  O   -0.373339
     6  Si   2.226713
     7  Si   1.794345
     8  Si   2.017177
     9  Si   1.603900
    10  O   -0.468483
    11  O   -0.420737
    12  O   -0.414704
    13  O   -0.428139
    14  O   -0.451623
    15  O   -0.498565
    16  O   -0.353364
    17  O   -0.524929
    18  O   -0.679380
    19  O   -0.577429
    20  O   -0.429025
    21  O   -0.382438
 Electronic spatial extent (au):  <R**2>=           9869.1758
 Charge=              0.0000 electrons
 Dipole moment (field-independent basis, Debye):
    X=              1.1068    Y=             -0.8715    Z=             -2.6821  Tot=              3.0296
 Quadrupole moment (field-independent basis, Debye-Ang):
   XX=           -160.0746   YY=           -154.5673   ZZ=           -157.7782
   XY=             -5.2729   XZ=              1.6294   YZ=              5.4985
 Traceless Quadrupole moment (field-independent basis, Debye-Ang):
   XX=             -2.6013   YY=              2.9061   ZZ=             -0.3048
   XY=             -5.2729   XZ=              1.6294   YZ=              5.4985
 Octapole moment (field-independent basis, Debye-Ang**2):
  XXX=             74.6146  YYY=              3.3179  ZZZ=            -26.0629  XYY=             -4.3321
  XXY=             19.1638  XXZ=             20.2451  XZZ=              8.4060  YZZ=            -14.8711
  YYZ=            -10.8381  XYZ=             26.2850
 Hexadecapole moment (field-independent basis, Debye-Ang**3):
 XXXX=          -6034.8536 YYYY=          -2818.1143 ZZZZ=          -2261.1716 XXXY=             56.1771
 XXXZ=              1.7931 YYYX=             -9.0208 YYYZ=            208.1159 ZZZX=           -218.4283
 ZZZY=            -48.2661 XXYY=          -1508.2880 XXZZ=          -1332.4323 YYZZ=           -932.8227
 XXYZ=            -20.0415 YYXZ=            156.0203 ZZXY=            -50.2389
 N-N= 2.832693719698D+03 E-N=-1.137799622762D+04  KE= 2.373155131882D+03
 PrsmSu:  requested number of processors reduced to:   2 ShMem   1 Linda.
 PrsmSu:  requested number of processors reduced to:  10 ShMem   1 Linda.
   1 Symmetry operations used in ECPInt.
 ECPInt:  NShTT=   13203 NPrTT=   78401 LenC2=   11527 LenP2D=   44631.
 LDataN:  DoStor=T MaxTD1= 9 Len=  602
 Number of processors reduced to  14 by ecpmxn.
 Calling FoFJK, ICntrl=      2127 FMM=F ISym2X=0 I1Cent= 0 IOpClX= 0 NMat=1 NMatS=1 NMatT=0.
 CoulSu:  requested number of processors reduced to:  10 ShMem   1 Linda.
 Defaulting to unpruned grid for atomic number  40.
 Defaulting to unpruned grid for atomic number  40.
 Defaulting to unpruned grid for atomic number  40.
 Defaulting to unpruned grid for atomic number  40.
 Defaulting to unpruned grid for atomic number  40.
 Defaulting to unpruned grid for atomic number  40.
 Defaulting to unpruned grid for atomic number  40.
 Defaulting to unpruned grid for atomic number  40.
 Defaulting to unpruned grid for atomic number  40.
 Defaulting to unpruned grid for atomic number  40.
 Defaulting to unpruned grid for atomic number  40.
 Defaulting to unpruned grid for atomic number  40.
 Defaulting to unpruned grid for atomic number  40.
 Defaulting to unpruned grid for atomic number  40.
 Defaulting to unpruned grid for atomic number  40.
 Defaulting to unpruned grid for atomic number  40.
 ***** Axes restored to original set *****
 -------------------------------------------------------------------
 Center     Atomic                   Forces (Hartrees/Bohr)
 Number     Number              X              Y              Z
 -------------------------------------------------------------------
      1       40          -0.000013319    0.000088760    0.000833796
      2        8          -0.000074934   -0.000059504   -0.000309175
      3        8           0.000089865    0.000064164   -0.000096442
      4        8           0.000008224   -0.000098798   -0.000128509
      5        8           0.000103910   -0.000147281   -0.000543946
      6       14          -0.000062096    0.000066656    0.000091580
      7       14          -0.000069269    0.000009561    0.000109637
      8       14           0.000145876    0.000101865    0.000184350
      9       14          -0.000103519    0.000257123    0.000454818
     10        8           0.000001299   -0.000069737   -0.000110492
     11        8          -0.000003199   -0.000152883   -0.000039132
     12        8          -0.000041060   -0.000061532   -0.000143339
     13        8          -0.000037339   -0.000076674   -0.000057363
     14        8          -0.000048094    0.000011588   -0.000070974
     15        8          -0.000072625   -0.000035730   -0.000076150
     16        8           0.000021999   -0.000019542   -0.000043840
     17        8           0.000036703   -0.000038559   -0.000050353
     18        8           0.000012225   -0.000014364   -0.000030066
     19        8           0.000004409    0.000000391   -0.000031143
     20        8           0.000037577   -0.000004233   -0.000014948
     21        8           0.000009424    0.000001188   -0.000072979
     22        1           0.000009896    0.000001766   -0.000001429
     23        1           0.000045410    0.000006321    0.000000200
     24        1           0.000014824    0.000116170    0.000009063
     25        1           0.000000244    0.000023120    0.000033362
     26        1           0.000015926    0.000007620    0.000000200
     27        1           0.000000063    0.000009801    0.000037741
     28        1          -0.000011816    0.000007478    0.000009440
     29        1           0.000014747   -0.000007524    0.000025423
     30        1           0.000003581   -0.000002963    0.000009961
     31        1          -0.000007139    0.000001811    0.000000755
     32        1          -0.000026814    0.000003825    0.000007899
     33        1          -0.000004976    0.000010116    0.000012057
 -------------------------------------------------------------------
 Cartesian Forces:  Max     0.000833796 RMS     0.000131232

 GradGradGradGradGradGradGradGradGradGradGradGradGradGradGradGradGradGrad
 Berny optimization.
 FormGI is forming the generalized inverse of G from B-inverse, IUseBI=4.
 Internal  Forces:  Max     0.000349381 RMS     0.000074857
 Search for a local minimum.
 Step number   1 out of a maximum of  148
 All quantities printed in internal units (Hartrees-Bohrs-Radians)
 Mixed Optimization -- En-DIIS/RFO-DIIS
 Second derivative matrix not updated -- first step.
 ITU=  0
     Eigenvalues ---    0.00230   0.00230   0.00230   0.00230   0.03240
     Eigenvalues ---    0.03358   0.03498   0.03580   0.03665   0.03666
     Eigenvalues ---    0.03680   0.03686   0.03693   0.03739   0.03789
     Eigenvalues ---    0.03792   0.03816   0.03834   0.03850   0.03857
     Eigenvalues ---    0.08405   0.09407   0.11077   0.11224   0.11819
     Eigenvalues ---    0.11833   0.11884   0.12136   0.12177   0.12239
     Eigenvalues ---    0.12563   0.12783   0.12895   0.13099   0.13313
     Eigenvalues ---    0.16000   0.16000   0.16000   0.16000   0.16000
     Eigenvalues ---    0.16000   0.16000   0.16000   0.16000   0.16000
     Eigenvalues ---    0.16000   0.16000   0.19174   0.19893   0.20028
     Eigenvalues ---    0.20179   0.20203   0.20204   0.20208   0.20515
     Eigenvalues ---    0.20653   0.20795   0.20989   0.21175   0.21186
     Eigenvalues ---    0.21263   0.25000   0.25000   0.25000   0.38002
     Eigenvalues ---    0.39185   0.40660   0.41547   0.42501   0.42510
     Eigenvalues ---    0.42670   0.42745   0.42824   0.43363   0.43949
     Eigenvalues ---    0.43981   0.44273   0.44484   0.44689   0.44768
     Eigenvalues ---    0.50655   0.51351   0.52035   0.52547   0.54333
     Eigenvalues ---    0.54625   0.54642   0.54648   0.54690   0.54692
     Eigenvalues ---    0.54712   0.547631000.000001000.000001000.00000
     Eigenvalues --- 1000.000001000.000001000.000001000.000001000.00000
     Eigenvalues --- 1000.000001000.000001000.000001000.000001000.00000
     Eigenvalues --- 1000.000001000.000001000.000001000.000001000.00000
     Eigenvalues --- 1000.000001000.000001000.000001000.000001000.00000
     Eigenvalues --- 1000.000001000.000001000.000001000.000001000.00000
     Eigenvalues --- 1000.000001000.000001000.000001000.000001000.00000
     Eigenvalues --- 1000.000001000.000001000.000001000.000001000.00000
     Eigenvalues --- 1000.000001000.000001000.000001000.000001000.00000
     Eigenvalues --- 1000.000001000.000001000.00000
 RFO step:  Lambda=-3.10779635D-05 EMin= 2.30000000D-03
 Linear search not attempted -- first point.
 Iteration  1 RMS(Cart)=  0.04457133 RMS(Int)=  0.00078325
 Iteration  2 RMS(Cart)=  0.00127561 RMS(Int)=  0.00000046
 Iteration  3 RMS(Cart)=  0.00000076 RMS(Int)=  0.00000034
 Iteration  1 RMS(Cart)=  0.00000000 RMS(Int)=  0.00000000
 Variable       Old X    -DE/DX   Delta X   Delta X   Delta X     New X
                                 (Linear)    (Quad)   (Total)
    R1        3.67647  -0.00018   0.00000  -0.00086  -0.00086   3.67561
    R2        3.69190   0.00006   0.00000   0.00027   0.00027   3.69217
    R3        3.73834   0.00016   0.00000   0.00082   0.00082   3.73916
    R4        3.70231   0.00002   0.00000   0.00008   0.00008   3.70239
    R5        3.11686   0.00001   0.00000   0.00003   0.00003   3.11689
    R6        3.09580   0.00001   0.00000   0.00002   0.00002   3.09582
    R7        3.10215   0.00003   0.00000   0.00006   0.00006   3.10221
    R8        3.09246  -0.00005   0.00000  -0.00012  -0.00012   3.09234
    R9        3.11587   0.00004   0.00000   0.00009   0.00009   3.11597
   R10        3.11990  -0.00005   0.00000  -0.00012  -0.00012   3.11978
   R11        3.14367  -0.00001   0.00000  -0.00002  -0.00002   3.14364
   R12        3.18062   0.00001   0.00000   0.00004   0.00004   3.18066
   R13        3.10925   0.00001   0.00000   0.00003   0.00003   3.10927
   R14        3.09339  -0.00005   0.00000  -0.00012  -0.00012   3.09327
   R15        3.10177   0.00007   0.00000   0.00015   0.00015   3.10192
   R16        3.16375   0.00006   0.00000   0.00014   0.00014   3.16390
   R17        3.09830  -0.00008   0.00000  -0.00019  -0.00019   3.09811
   R18        3.11979   0.00011   0.00000   0.00027   0.00027   3.12006
   R19        3.13204   0.00002   0.00000   0.00005   0.00005   3.13208
   R20        3.11779  -0.00013   0.00000  -0.00030  -0.00030   3.11750
   R21        1.82152   0.00001   0.00000   0.00002   0.00002   1.82154
   R22        1.82107  -0.00005   0.00000  -0.00008  -0.00008   1.82098
   R23        1.82088   0.00001   0.00000   0.00002   0.00002   1.82090
   R24        1.84079  -0.00004   0.00000  -0.00008  -0.00008   1.84071
   R25        1.84566  -0.00004   0.00000  -0.00007  -0.00007   1.84559
   R26        1.82043  -0.00001   0.00000  -0.00003  -0.00003   1.82040
   R27        1.82108  -0.00002   0.00000  -0.00005  -0.00005   1.82104
   R28        1.85910   0.00000   0.00000   0.00000   0.00000   1.85910
   R29        1.82146  -0.00000   0.00000  -0.00000  -0.00000   1.82146
   R30        1.82430  -0.00001   0.00000  -0.00002  -0.00002   1.82428
   R31        1.82167   0.00001   0.00000   0.00002   0.00002   1.82169
   R32        1.85226   0.00001   0.00000   0.00003   0.00003   1.85229
    A1        1.85172   0.00002   0.00000   0.00075   0.00074   1.85247
    A2        1.80156  -0.00010   0.00000  -0.00036  -0.00036   1.80120
    A3        1.96889   0.00034   0.00000   0.00247   0.00247   1.97136
    A4        1.83430   0.00007   0.00000  -0.00049  -0.00049   1.83381
    A5        2.01802  -0.00017   0.00000  -0.00098  -0.00098   2.01704
    A6        1.97057  -0.00016   0.00000  -0.00140  -0.00140   1.96917
    A7        2.46524   0.00003   0.00000   0.00012   0.00012   2.46536
    A8        2.58825  -0.00005   0.00000  -0.00022  -0.00022   2.58803
    A9        2.35483   0.00005   0.00000   0.00019   0.00019   2.35501
   A10        2.86714  -0.00035   0.00000   0.00000   0.00000   2.86714
   A11        1.91978  -0.00001   0.00000  -0.00008  -0.00008   1.91970
   A12        1.91546   0.00001   0.00000   0.00009   0.00009   1.91555
   A13        1.95201   0.00001   0.00000   0.00007   0.00007   1.95208
   A14        2.00710  -0.00001   0.00000  -0.00010  -0.00010   2.00700
   A15        1.88610  -0.00002   0.00000  -0.00015  -0.00015   1.88595
   A16        1.78000   0.00003   0.00000   0.00018   0.00018   1.78018
   A17        1.80238  -0.00002   0.00000  -0.00010  -0.00010   1.80228
   A18        1.99614  -0.00001   0.00000  -0.00011  -0.00011   1.99604
[...]
 Alpha virt. eigenvalues --    3.52877   3.54118   3.60300   3.61079   3.62061
 Alpha virt. eigenvalues --    3.66200   4.32559   4.59738   7.90032  31.29242
          Condensed to atoms (all electrons):
               1          2          3          4          5          6
     1  Zr  15.086613  -0.126110  -0.001747  -0.134787  -0.193064  -0.597876
     2  O   -0.126110   9.064095   0.019610  -0.042563  -0.057488   0.088910
     3  O   -0.001747   0.019610   8.828283   0.015729  -0.043940  -0.004111
     4  O   -0.134787  -0.042563   0.015729   8.809265  -0.060033  -0.672175
     5  O   -0.193064  -0.057488  -0.043940  -0.060033   9.429233  -0.006979
     6  Si  -0.597876   0.088910  -0.004111  -0.672175  -0.006979  13.982067
     7  Si  -0.614521  -0.028147  -0.875662  -0.007054  -0.033876   0.084202
     8  Si  -0.587555  -0.999370  -0.020257   0.071381  -0.014219  -0.017343
     9  Si  -0.321225  -0.040623  -0.026527  -0.033208  -1.233990   0.038785
    10  O   -0.013985   0.001024  -0.002032   0.000960   0.130226  -0.002426
    11  O   -0.064572   0.003433   0.002990   0.001229   0.314476  -0.000807
    12  O    0.042533  -0.000011   0.004697   0.002085   0.154425  -0.002972
    13  O   -0.036738   0.186558   0.001651  -0.015666  -0.000674   0.035611
    14  O   -0.018262   0.263466  -0.017614  -0.008732   0.001905   0.029045
    15  O   -0.083397   0.292769  -0.000696   0.001234   0.000581  -0.000066
    16  O   -0.125181   0.004683  -0.000504   0.344221   0.003211  -0.421708
    17  O   -0.080886  -0.039981   0.007999   0.218456   0.001299  -0.453166
    18  O   -0.027148  -0.014456   0.003739   0.198097  -0.000609  -0.449946
    19  O    0.001210   0.008994   0.265005   0.010160   0.002127  -0.007445
    20  O   -0.145822  -0.000576   0.163893  -0.000859   0.001476   0.009047
    21  O    0.035930   0.010351   0.146383   0.003402   0.000212  -0.011852
    22  H   -0.008963  -0.000018  -0.000013  -0.000009   0.005762   0.000086
    23  H   -0.007668  -0.000013  -0.000006  -0.000056  -0.025282   0.000086
    24  H   -0.005237  -0.000191  -0.000011   0.000003  -0.005354   0.000071
    25  H    0.017104  -0.020013  -0.000111  -0.000311   0.000019   0.002607
    26  H    0.007277   0.000623   0.000014  -0.000011  -0.000004  -0.000149
    27  H    0.004334  -0.019216   0.000840  -0.001701   0.000010   0.008743
    28  H    0.005077  -0.000011  -0.018418  -0.000014  -0.000015  -0.000281
    29  H    0.004234  -0.007072  -0.020298  -0.000141  -0.000073   0.000135
    30  H    0.000714  -0.000012   0.000053  -0.000453  -0.000008  -0.000656
    31  H   -0.000207   0.000172  -0.000020  -0.018458  -0.000009   0.063883
    32  H    0.002085  -0.000024   0.000040   0.010316   0.000001   0.023009
    33  H   -0.016070   0.001026  -0.010108  -0.009613  -0.000101   0.053310
               7          8          9         10         11         12
     1  Zr  -0.614521  -0.587555  -0.321225  -0.013985  -0.064572   0.042533
     2  O   -0.028147  -0.999370  -0.040623   0.001024   0.003433  -0.000011
     3  O   -0.875662  -0.020257  -0.026527  -0.002032   0.002990   0.004697
     4  O   -0.007054   0.071381  -0.033208   0.000960   0.001229   0.002085
     5  O   -0.033876  -0.014219  -1.233990   0.130226   0.314476   0.154425
     6  Si   0.084202  -0.017343   0.038785  -0.002426  -0.000807  -0.002972
     7  Si  13.795157   0.182095   0.020020  -0.000250  -0.000871   0.004007
     8  Si   0.182095  13.803827   0.026109  -0.000990   0.001189  -0.000823
     9  Si   0.020020   0.026109  14.263580  -0.069322  -0.182695  -0.213652
    10  O   -0.000250  -0.000990  -0.069322   8.524825   0.014576   0.031858
    11  O   -0.000871   0.001189  -0.182695   0.014576   8.517693  -0.050556
    12  O    0.004007  -0.000823  -0.213652   0.031858  -0.050556   8.601214
    13  O    0.007333  -0.095394   0.000233   0.000000   0.000018   0.000009
    14  O    0.009496  -0.368050  -0.001475  -0.000002   0.000001   0.000017
    15  O   -0.002560  -0.304452  -0.000639   0.000000  -0.000024  -0.000016
    16  O    0.003784  -0.010283  -0.001023   0.000005  -0.000003  -0.000001
    17  O   -0.000733   0.096759   0.002547  -0.000002   0.000002  -0.000006
    18  O   -0.000699   0.074692   0.004193  -0.000002  -0.000001  -0.000001
    19  O   -0.409171  -0.016051   0.001045   0.000007  -0.000002  -0.000022
    20  O   -0.108851   0.009660   0.003162   0.000002  -0.000003  -0.000029
    21  O    0.024508  -0.040183  -0.001809   0.000001   0.000001   0.000024
    22  H   -0.000185   0.000089   0.047316  -0.006542  -0.005067   0.219712
    23  H    0.000060   0.000062   0.081052   0.228635  -0.006165   0.005908
    24  H    0.000054  -0.000089   0.037174   0.007353   0.242416  -0.007434
    25  H   -0.000462   0.057382  -0.000212   0.000000  -0.000000  -0.000000
    26  H   -0.000381   0.046077  -0.000043  -0.000000   0.000000  -0.000000
    27  H    0.001323   0.068420  -0.000008   0.000000  -0.000000  -0.000000
    28  H    0.056605  -0.000069  -0.000136  -0.000000  -0.000000  -0.000004
    29  H    0.048151   0.021903  -0.000058   0.000000   0.000000  -0.000001
    30  H    0.040301   0.000111   0.000023  -0.000000   0.000000   0.000000
    31  H    0.000155  -0.001971  -0.000052   0.000000  -0.000000   0.000000
    32  H   -0.000664   0.000054   0.000009  -0.000000   0.000000  -0.000000
    33  H    0.020638   0.000114   0.000077  -0.000000   0.000000   0.000000
              13         14         15         16         17         18
     1  Zr  -0.036738  -0.018262  -0.083397  -0.125181  -0.080886  -0.027148
     2  O    0.186558   0.263466   0.292769   0.004683  -0.039981  -0.014456
     3  O    0.001651  -0.017614  -0.000696  -0.000504   0.007999   0.003739
     4  O   -0.015666  -0.008732   0.001234   0.344221   0.218456   0.198097
     5  O   -0.000674   0.001905   0.000581   0.003211   0.001299  -0.000609
     6  Si   0.035611   0.029045  -0.000066  -0.421708  -0.453166  -0.449946
     7  Si   0.007333   0.009496  -0.002560   0.003784  -0.000733  -0.000699
     8  Si  -0.095394  -0.368050  -0.304452  -0.010283   0.096759   0.074692
     9  Si   0.000233  -0.001475  -0.000639  -0.001023   0.002547   0.004193
    10  O    0.000000  -0.000002   0.000000   0.000005  -0.000002  -0.000002
    11  O    0.000018   0.000001  -0.000024  -0.000003   0.000002  -0.000001
    12  O    0.000009   0.000017  -0.000016  -0.000001  -0.000006  -0.000001
    13  O    8.628267   0.087161  -0.090662   0.003735  -0.030912  -0.045621
    14  O    0.087161   8.674573   0.055540   0.003664  -0.035819  -0.026841
    15  O   -0.090662   0.055540   8.776910  -0.000175   0.003599   0.001675
    16  O    0.003735   0.003664  -0.000175   8.901413  -0.092125  -0.115194
    17  O   -0.030912  -0.035819   0.003599  -0.092125   8.936130   0.227940
    18  O   -0.045621  -0.026841   0.001675  -0.115194   0.227940   9.012098
    19  O    0.000183  -0.000416   0.000139  -0.001552  -0.030075   0.000167
    20  O    0.000008  -0.000253   0.000039   0.000065  -0.000977   0.000015
    21  O   -0.000252   0.016029  -0.000616  -0.000213  -0.005579   0.000476
    22  H   -0.000000  -0.000000  -0.000000   0.000000   0.000000  -0.000000
    23  H    0.000000   0.000000  -0.000000  -0.000000   0.000000  -0.000000
    24  H   -0.000000   0.000000   0.000002   0.000000  -0.000000  -0.000000
    25  H    0.218369  -0.011970   0.008904  -0.000050   0.000623   0.014862
    26  H   -0.005130  -0.010090   0.217064   0.000000  -0.000003   0.000006
    27  H   -0.009725   0.219322   0.004635   0.000183   0.017925  -0.000252
    28  H   -0.000000  -0.000005  -0.000001  -0.000000   0.000003  -0.000000
    29  H    0.000795   0.017578  -0.002571  -0.000004  -0.000396   0.000006
    30  H    0.000001   0.000000   0.000000   0.000115  -0.000397  -0.000007
    31  H    0.002351   0.000165  -0.000018   0.003694  -0.000723   0.218210
    32  H   -0.000008  -0.000006   0.000000   0.233334  -0.003674   0.003926
    33  H    0.000231   0.002092  -0.000035  -0.000097   0.230978   0.002091
              19         20         21         22         23         24
     1  Zr   0.001210  -0.145822   0.035930  -0.008963  -0.007668  -0.005237
     2  O    0.008994  -0.000576   0.010351  -0.000018  -0.000013  -0.000191
     3  O    0.265005   0.163893   0.146383  -0.000013  -0.000006  -0.000011
     4  O    0.010160  -0.000859   0.003402  -0.000009  -0.000056   0.000003
     5  O    0.002127   0.001476   0.000212   0.005762  -0.025282  -0.005354
     6  Si  -0.007445   0.009047  -0.011852   0.000086   0.000086   0.000071
     7  Si  -0.409171  -0.108851   0.024508  -0.000185   0.000060   0.000054
     8  Si  -0.016051   0.009660  -0.040183   0.000089   0.000062  -0.000089
     9  Si   0.001045   0.003162  -0.001809   0.047316   0.081052   0.037174
    10  O    0.000007   0.000002   0.000001  -0.006542   0.228635   0.007353
    11  O   -0.000002  -0.000003   0.000001  -0.005067  -0.006165   0.242416
    12  O   -0.000022  -0.000029   0.000024   0.219712   0.005908  -0.007434
    13  O    0.000183   0.000008  -0.000252  -0.000000   0.000000  -0.000000
    14  O   -0.000416  -0.000253   0.016029  -0.000000   0.000000   0.000000
    15  O    0.000139   0.000039  -0.000616  -0.000000  -0.000000   0.000002
    16  O   -0.001552   0.000065  -0.000213   0.000000  -0.000000   0.000000
    17  O   -0.030075  -0.000977  -0.005579   0.000000   0.000000  -0.000000
    18  O    0.000167   0.000015   0.000476  -0.000000  -0.000000  -0.000000
    19  O    8.872833   0.032356   0.023437  -0.000000   0.000000  -0.000000
    20  O    0.032356   8.656871  -0.050504   0.000000   0.000000  -0.000000
    21  O    0.023437  -0.050504   8.485451  -0.000000   0.000000   0.000000
    22  H   -0.000000   0.000000  -0.000000   0.361702   0.000056   0.000122
    23  H    0.000000   0.000000   0.000000   0.000056   0.351040   0.000014
    24  H   -0.000000  -0.000000   0.000000   0.000122   0.000014   0.365235
    25  H   -0.000024   0.000000  -0.000019   0.000000   0.000000   0.000000
    26  H    0.000001  -0.000000   0.000039  -0.000000  -0.000000  -0.000000
    27  H    0.000032   0.000192  -0.004014  -0.000000  -0.000000   0.000000
    28  H    0.004634   0.229636  -0.002087  -0.000000   0.000000  -0.000000
    29  H   -0.008570   0.007669   0.206444   0.000000   0.000000  -0.000000
    30  H    0.224187  -0.001487  -0.007144   0.000000   0.000000  -0.000000
    31  H    0.000004  -0.000000  -0.000000  -0.000000  -0.000000   0.000000
    32  H    0.000097   0.000000   0.000001  -0.000000  -0.000000  -0.000000
    33  H    0.014847  -0.000083   0.001470  -0.000000  -0.000000  -0.000000
              25         26         27         28         29         30
     1  Zr   0.017104   0.007277   0.004334   0.005077   0.004234   0.000714
     2  O   -0.020013   0.000623  -0.019216  -0.000011  -0.007072  -0.000012
     3  O   -0.000111   0.000014   0.000840  -0.018418  -0.020298   0.000053
     4  O   -0.000311  -0.000011  -0.001701  -0.000014  -0.000141  -0.000453
     5  O    0.000019  -0.000004   0.000010  -0.000015  -0.000073  -0.000008
     6  Si   0.002607  -0.000149   0.008743  -0.000281   0.000135  -0.000656
     7  Si  -0.000462  -0.000381   0.001323   0.056605   0.048151   0.040301
     8  Si   0.057382   0.046077   0.068420  -0.000069   0.021903   0.000111
     9  Si  -0.000212  -0.000043  -0.000008  -0.000136  -0.000058   0.000023
    10  O    0.000000  -0.000000   0.000000  -0.000000   0.000000  -0.000000
    11  O   -0.000000   0.000000  -0.000000  -0.000000   0.000000   0.000000
    12  O   -0.000000  -0.000000  -0.000000  -0.000004  -0.000001   0.000000
    13  O    0.218369  -0.005130  -0.009725  -0.000000   0.000795   0.000001
    14  O   -0.011970  -0.010090   0.219322  -0.000005   0.017578   0.000000
    15  O    0.008904   0.217064   0.004635  -0.000001  -0.002571   0.000000
    16  O   -0.000050   0.000000   0.000183  -0.000000  -0.000004   0.000115
    17  O    0.000623  -0.000003   0.017925   0.000003  -0.000396  -0.000397
    18  O    0.014862   0.000006  -0.000252  -0.000000   0.000006  -0.000007
    19  O   -0.000024   0.000001   0.000032   0.004634  -0.008570   0.224187
    20  O    0.000000  -0.000000   0.000192   0.229636   0.007669  -0.001487
    21  O   -0.000019   0.000039  -0.004014  -0.002087   0.206444  -0.007144
    22  H    0.000000  -0.000000  -0.000000  -0.000000   0.000000   0.000000
    23  H    0.000000  -0.000000  -0.000000   0.000000   0.000000   0.000000
    24  H    0.000000  -0.000000   0.000000  -0.000000  -0.000000  -0.000000
    25  H    0.298973  -0.000012   0.000112   0.000000   0.000001   0.000000
    26  H   -0.000012   0.365991   0.000036   0.000000   0.000021  -0.000000
    27  H    0.000112   0.000036   0.283392  -0.000000  -0.001494   0.000010
    28  H    0.000000   0.000000  -0.000000   0.349165  -0.000017  -0.000017
    29  H    0.000001   0.000021  -0.001494  -0.000017   0.285952   0.000155
    30  H    0.000000  -0.000000   0.000010  -0.000017   0.000155   0.334235
    31  H   -0.000508   0.000000   0.000013  -0.000000   0.000000  -0.000000
    32  H   -0.000001   0.000000  -0.000000   0.000000  -0.000000  -0.000000
    33  H    0.000006  -0.000000  -0.002407  -0.000002   0.000099  -0.001156
              31         32         33
     1  Zr  -0.000207   0.002085  -0.016070
     2  O    0.000172  -0.000024   0.001026
     3  O   -0.000020   0.000040  -0.010108
     4  O   -0.018458   0.010316  -0.009613
     5  O   -0.000009   0.000001  -0.000101
     6  Si   0.063883   0.023009   0.053310
     7  Si   0.000155  -0.000664   0.020638
     8  Si  -0.001971   0.000054   0.000114
     9  Si  -0.000052   0.000009   0.000077
    10  O    0.000000  -0.000000  -0.000000
    11  O   -0.000000   0.000000   0.000000
    12  O    0.000000  -0.000000   0.000000
    13  O    0.002351  -0.000008   0.000231
    14  O    0.000165  -0.000006   0.002092
    15  O   -0.000018   0.000000  -0.000035
    16  O    0.003694   0.233334  -0.000097
    17  O   -0.000723  -0.003674   0.230978
    18  O    0.218210   0.003926   0.002091
    19  O    0.000004   0.000097   0.014847
    20  O   -0.000000   0.000000  -0.000083
    21  O   -0.000000   0.000001   0.001470
    22  H   -0.000000  -0.000000  -0.000000
    23  H   -0.000000  -0.000000  -0.000000
    24  H    0.000000  -0.000000  -0.000000
    25  H   -0.000508  -0.000001   0.000006
    26  H    0.000000   0.000000  -0.000000
    27  H    0.000013  -0.000000  -0.002407
    28  H   -0.000000   0.000000  -0.000002
    29  H    0.000000  -0.000000   0.000099
    30  H   -0.000000  -0.000000  -0.001156
    31  H    0.331627   0.000001  -0.000038
    32  H    0.000001   0.350129   0.000158
    33  H   -0.000038   0.000158   0.269233
 Mulliken charges:
               1
     1  Zr   0.003909
     2  O   -0.549820
     3  O   -0.418852
     4  O   -0.680691
     5  O   -0.369244
     6  Si   2.230363
     7  Si   1.786198
     8  Si   2.017177
     9  Si   1.601373
    10  O   -0.843918
    11  O   -0.787260
    12  O   -0.790963
    13  O   -0.841733
    14  O   -0.880520
    15  O   -0.877164
    16  O   -0.733993
    17  O   -0.968807
    18  O   -1.081413
    19  O   -0.988135
    20  O   -0.804648
    21  O   -0.829887
    22  H    0.385951
    23  H    0.372276
    24  H    0.365874
    25  H    0.414732
    26  H    0.378673
    27  H    0.429296
    28  H    0.375955
    29  H    0.447550
    30  H    0.411432
    31  H    0.401731
    32  H    0.381219
    33  H    0.443341
 Sum of Mulliken charges =  -0.00000
 Mulliken charges with hydrogens summed into heavy atoms:
               1
     1  Zr   0.003909
     2  O   -0.549820
     3  O   -0.418852
     4  O   -0.680691
     5  O   -0.369244
     6  Si   2.230363
     7  Si   1.786198
     8  Si   2.017177
     9  Si   1.601373
    10  O   -0.471642
    11  O   -0.421386
    12  O   -0.405012
    13  O   -0.427001
    14  O   -0.451224
    15  O   -0.498491
    16  O   -0.352774
    17  O   -0.525466
    18  O   -0.679682
    19  O   -0.576703
    20  O   -0.428693
    21  O   -0.382337
 Electronic spatial extent (au):  <R**2>=           9868.9235
 Charge=              0.0000 electrons
 Dipole moment (field-independent basis, Debye):
    X=              1.0790    Y=             -0.7703    Z=             -2.4088  Tot=              2.7495
 Quadrupole moment (field-independent basis, Debye-Ang):
   XX=           -160.2877   YY=           -154.6591   ZZ=           -157.7983
   XY=             -4.9483   XZ=              2.2151   YZ=              5.7125
 Traceless Quadrupole moment (field-independent basis, Debye-Ang):
   XX=             -2.7060   YY=              2.9226   ZZ=             -0.2165
   XY=             -4.9483   XZ=              2.2151   YZ=              5.7125
 Octapole moment (field-independent basis, Debye-Ang**2):
  XXX=             73.9193  YYY=              6.6477  ZZZ=            -18.6040  XYY=             -1.8514
  XXY=             20.4327  XXZ=             19.1860  XZZ=              5.3012  YZZ=            -16.9916
  YYZ=            -15.7399  XYZ=             28.1580
 Hexadecapole moment (field-independent basis, Debye-Ang**3):
 XXXX=          -6034.9006 YYYY=          -2834.4255 ZZZZ=          -2261.1995 XXXY=             56.9886
 XXXZ=            -24.7977 YYYX=              4.7930 YYYZ=            217.1202 ZZZX=           -183.9255
 ZZZY=            -54.9484 XXYY=          -1483.6056 XXZZ=          -1362.1606 YYZZ=           -925.4107
 XXYZ=             -7.3163 YYXZ=            130.1582 ZZXY=            -61.1155
 N-N= 2.832861450546D+03 E-N=-1.137832175087D+04  KE= 2.373154964360D+03
 1\1\GINC-GRA363\FOpt\RB3LYP\Gen\H12O16Si4Zr1\SARASHS\14-Aug-2020\0\\#n
  B3LYP/Gen Pseudo=cards EmpiricalDispersion=GD3 Opt=modredundant\\Titl
 e\\0,1\Zr,0.6628046185,-0.1135325702,-0.1876639903\O,-0.2565654178,-0.
 588816998,1.4597454394\O,0.1345029652,1.723184125,-0.5926645737\O,-0.2
 465291885,-1.2234150639,-1.5495653379\O,2.592767839,-0.4400252371,-0.1
 032009444\Si,-1.8075546689,-1.6205988883,-1.8665299721\Si,-1.069344157
 2,2.8187515447,-0.7778131964\Si,-1.7718613547,-0.6986080682,2.10178710
 09\Si,4.2172605281,-0.2657571612,-0.0100035505\O,4.9839922973,-0.38233
 8049,-1.4674153477\O,4.8701229226,-1.4703226458,0.9226876916\O,4.45209
 82587,1.2556969566,0.5833151413\O,-2.3802409033,-2.2152308927,1.947341
 4263\O,-2.745177681,0.4056151056,1.3041166251\O,-1.6725573066,-0.26991
 4199,3.68116675\O,-1.9514951161,-2.1405897686,-3.4245821592\O,-2.79720
 55429,-0.3647789352,-1.4552551079\O,-2.3536775593,-2.8323694844,-0.866
 1417295\O,-1.9757723961,2.1857539303,-2.0468571322\O,-0.5644557011,4.3
 06244115,-1.2672484446\O,-1.9448147868,3.0041518955,0.5928831652\H,5.3
 441231411,1.6145852994,0.5203814587\H,5.3259280083,-1.2546758402,-1.69
 37591478\H,4.416667412,-1.6887751032,1.7444668498\H,-2.451438328,-2.57
 13601943,1.0434657955\H,-2.4691282278,-0.3645654008,4.2145444054\H,-3.
 0673184282,0.0973693254,0.4351754009\H,-0.4616486443,4.9693940779,-0.5
 752006716\H,-2.2656409646,2.1806460194,1.0167242125\H,-2.5688803154,2.
 8124178678,-2.4798089834\H,-2.3109276917,-3.7285834738,-1.2183610981\H
 ,-1.208943517,-1.9549413365,-4.0100974945\H,-2.5665500933,0.523929048,
 -1.8085325804\\Version=ES64L-G16RevB.01\State=1-A\HF=-2416.946857\RMSD
 =9.942e-09\RMSF=8.197e-06\Dipole=0.4371152,-0.4752167,-0.8679081\Quadr
 upole=-2.1658557,3.6842546,-1.5183989,-3.3299474,2.3144181,3.4571834\P
 G=C01 [X(H12O16Si4Zr1)]\\@


 NOTHING WILL BE ATTEMPTED IF ALL POSSIBLE OBJECTIONS
 MUST FIRST BE OVERCOME.

                               -- THE GOLDEN PRINCIPLE,
                    PAUL DICKSON'S "THE OFFICIAL RULES"
 Job cpu time:       1 days  5 hours  8 minutes 51.5 seconds.
 Elapsed time:       0 days  2 hours 11 minutes 50.3 seconds.
 File lengths (MBytes):  RWF=    167 Int=      0 D2E=      0 Chk=     21 Scr=      1
 Normal termination of Gaussian 16 at Fri Aug 14 05:23:46 2020.
