 Entering Gaussian System, Link 0=g16
 Initial command:
 /opt/software/gaussian/g16.b01/l1.exe "/localscratch/sarashs.37148547.0/Gau-8919.inp" -scrdir="/localscratch/sarashs.37148547.0/"
 Entering Link 1 = /opt/software/gaussian/g16.b01/l1.exe PID=      8922.
  
 Copyright (c) 1988-2017, Gaussian, Inc.  All Rights Reserved.
  
 This is part of the Gaussian(R) 16 program.  It is based on
 the Gaussian(R) 09 system (copyright 2009, Gaussian, Inc.),
 the Gaussian(R) 03 system (copyright 2003, Gaussian, Inc.),
 the Gaussian(R) 98 system (copyright 1998, Gaussian, Inc.),
 the Gaussian(R) 94 system (copyright 1995, Gaussian, Inc.),
 the Gaussian 92(TM) system (copyright 1992, Gaussian, Inc.),
 the Gaussian 90(TM) system (copyright 1990, Gaussian, Inc.),
 the Gaussian 88(TM) system (copyright 1988, Gaussian, Inc.),
 the Gaussian 86(TM) system (copyright 1986, Carnegie Mellon
 University), and the Gaussian 82(TM) system (copyright 1983,
 Carnegie Mellon University). Gaussian is a federally registered
 trademark of Gaussian, Inc.
  
 This software contains proprietary and confidential information,
 including trade secrets, belonging to Gaussian, Inc.
  
 This software is provided under written license and may be
 used, copied, transmitted, or stored only in accord with that
 written license.
  
 The following legend is applicable only to US Government
 contracts under FAR:
  
                    RESTRICTED RIGHTS LEGEND
  
 Use, reproduction and disclosure by the US Government is
 subject to restrictions as set forth in subparagraphs (a)
 and (c) of the Commercial Computer Software - Restricted
 Rights clause in FAR 52.227-19.
  
 Gaussian, Inc.
 340 Quinnipiac St., Bldg. 40, Wallingford CT 06492
  
  
 ---------------------------------------------------------------
 Warning -- This program may not be used in any manner that
 competes with the business of Gaussian, Inc. or will provide
 assistance to any competitor of Gaussian, Inc.  The licensee
 of this program is prohibited from giving any competitor of
 Gaussian, Inc. access to this program.  By using this program,
 the user acknowledges that Gaussian, Inc. is engaged in the
 business of creating and licensing software in the field of
 computational chemistry and represents and warrants to the
 licensee that it is not a competitor of Gaussian, Inc. and that
 it will not use this program in any manner prohibited above.
 ---------------------------------------------------------------
  

 Cite this work as:
 Gaussian 16, Revision B.01,
 M. J. Frisch, G. W. Trucks, H. B. Schlegel, G. E. Scuseria, 
 M. A. Robb, J. R. Cheeseman, G. Scalmani, V. Barone, 
 G. A. Petersson, H. Nakatsuji, X. Li, M. Caricato, A. V. Marenich, 
 J. Bloino, B. G. Janesko, R. Gomperts, B. Mennucci, H. P. Hratchian, 
 J. V. Ortiz, A. F. Izmaylov, J. L. Sonnenberg, D. Williams-Young, 
 F. Ding, F. Lipparini, F. Egidi, J. Goings, B. Peng, A. Petrone, 
 T. Henderson, D. Ranasinghe, V. G. Zakrzewski, J. Gao, N. Rega, 
 G. Zheng, W. Liang, M. Hada, M. Ehara, K. Toyota, R. Fukuda, 
 J. Hasegawa, M. Ishida, T. Nakajima, Y. Honda, O. Kitao, H. Nakai, 
 T. Vreven, K. Throssell, J. A. Montgomery, Jr., J. E. Peralta, 
 F. Ogliaro, M. J. Bearpark, J. J. Heyd, E. N. Brothers, K. N. Kudin, 
 V. N. Staroverov, T. A. Keith, R. Kobayashi, J. Normand, 
 K. Raghavachari, A. P. Rendell, J. C. Burant, S. S. Iyengar, 
 J. Tomasi, M. Cossi, J. M. Millam, M. Klene, C. Adamo, R. Cammi, 
 J. W. Ochterski, R. L. Martin, K. Morokuma, O. Farkas, 
 J. B. Foresman, and D. J. Fox, Gaussian, Inc., Wallingford CT, 2016.
 
 ******************************************
 Gaussian 16:  ES64L-G16RevB.01 20-Dec-2017
                11-Aug-2020 
 ******************************************
 %NProcShared=16
 Will use up to   16 processors via shared memory.
 ------------------------------------------------------------------
 #n B3LYP/Gen Pseudo=cards EmpiricalDispersion=GD3 Opt=modredundant
 ------------------------------------------------------------------
 1/18=120,19=15,26=3,38=1/1,3;
 2/9=110,12=2,17=6,18=5,40=1/2;
 3/5=7,11=2,16=1,17=8,25=1,30=1,71=1,74=-5,124=31/1,2,3;
 4//1;
 5/5=2,38=5/2;
 6/7=2,8=2,9=2,10=2,28=1/1;
 7//1,2,3,16;
 1/18=20,19=15,26=3/3(2);
 2/9=110/2;
 99//99;
 2/9=110/2;
 3/5=7,6=1,11=2,16=1,17=8,25=1,30=1,71=1,74=-5,82=7,124=31/1,2,3;
 4/5=5,16=3,69=1/1;
 5/5=2,38=5/2;
 7//1,2,3,16;
 1/18=20,19=15,26=3/3(-5);
 2/9=110/2;
 6/7=2,8=2,9=2,10=2,19=2,28=1/1;
 99/9=1/99;
 -----
 Title
 -----
 Symbolic Z-matrix:
 Charge =  0 Multiplicity = 1
 Zr                    0.65779  -0.12506  -0.07164 
 O                    -0.22285  -0.90624   1.4773 
 O                     0.10302   1.74748  -0.12299 
 O                    -0.2683   -0.97885  -1.59705 
 O                     2.59206  -0.4363   -0.08284 
 Si                   -1.83119  -1.33244  -1.9536 
 Si                   -1.1155    2.84172  -0.08279 
 Si                   -1.72376  -1.15291   2.11517 
 Si                    4.22377  -0.55845  -0.0586 
 O                     4.91653  -0.5189   -1.55663 
 O                     4.68007  -2.01234   0.59332 
 O                     4.73962   0.75874   0.79047 
 O                    -2.31924  -2.624     1.69627 
 O                    -2.72422   0.06508   1.55086 
 O                    -1.59734  -1.01957   3.74439 
 O                    -2.00144  -1.55965  -3.57782 
 O                    -2.82509  -0.18676  -1.30145 
 O                    -2.34448  -2.71439  -1.18277 
 O                    -2.04046   2.43957  -1.43023 
 O                    -0.63565   4.40049  -0.29987 
 O                    -1.96551   2.76086   1.31383 
 H                     5.6789    0.96801   0.74104 
 H                     5.09557  -1.37606  -1.95954 
 H                     4.21874  -2.30617   1.38672 
 H                    -2.40577  -2.80951   0.74392 
 H                    -2.38137  -1.22423   4.26535 
 H                    -3.06034  -0.08306   0.64589 
 H                    -0.52731   4.92728   0.50015 
 H                    -2.26909   1.86932   1.58533 
 H                    -2.64854   3.12676  -1.73014 
 H                    -2.30452  -3.52952  -1.69562 
 H                    -1.27114  -1.26305  -4.13223 
 H                    -2.61026   0.75461  -1.48993 
 
 The following ModRedundant input section has been read:
 A       1       5       9 F                                                   
 

 GradGradGradGradGradGradGradGradGradGradGradGradGradGradGradGradGradGrad
 Berny optimization.
 Initialization pass.
                           ----------------------------
                           !    Initial Parameters    !
                           ! (Angstroms and Degrees)  !
 --------------------------                            --------------------------
 ! Name  Definition              Value          Derivative Info.                !
 --------------------------------------------------------------------------------
 ! R1    R(1,2)                  1.9455         estimate D2E/DX2                !
 ! R2    R(1,3)                  1.9537         estimate D2E/DX2                !
 ! R3    R(1,4)                  1.9783         estimate D2E/DX2                !
 ! R4    R(1,5)                  1.9592         estimate D2E/DX2                !
 ! R5    R(2,8)                  1.6494         estimate D2E/DX2                !
 ! R6    R(3,7)                  1.6382         estimate D2E/DX2                !
 ! R7    R(4,6)                  1.6416         estimate D2E/DX2                !
 ! R8    R(5,9)                  1.6365         estimate D2E/DX2                !
 ! R9    R(6,16)                 1.6488         estimate D2E/DX2                !
 ! R10   R(6,17)                 1.651          estimate D2E/DX2                !
 ! R11   R(6,18)                 1.6636         estimate D2E/DX2                !
 ! R12   R(7,19)                 1.6831         estimate D2E/DX2                !
 ! R13   R(7,20)                 1.6453         estimate D2E/DX2                !
 ! R14   R(7,21)                 1.6369         estimate D2E/DX2                !
 ! R15   R(8,13)                 1.6414         estimate D2E/DX2                !
 ! R16   R(8,14)                 1.6742         estimate D2E/DX2                !
 ! R17   R(8,15)                 1.6395         estimate D2E/DX2                !
 ! R18   R(9,10)                 1.6509         estimate D2E/DX2                !
 ! R19   R(9,11)                 1.6574         estimate D2E/DX2                !
 ! R20   R(9,12)                 1.6499         estimate D2E/DX2                !
 ! R21   R(10,23)                0.9639         estimate D2E/DX2                !
 ! R22   R(11,24)                0.9637         estimate D2E/DX2                !
 ! R23   R(12,22)                0.9636         estimate D2E/DX2                !
 ! R24   R(13,25)                0.9741         estimate D2E/DX2                !
 ! R25   R(14,27)                0.9767         estimate D2E/DX2                !
 ! R26   R(15,26)                0.9633         estimate D2E/DX2                !
 ! R27   R(16,32)                0.9637         estimate D2E/DX2                !
 ! R28   R(17,33)                0.9838         estimate D2E/DX2                !
 ! R29   R(18,31)                0.9639         estimate D2E/DX2                !
 ! R30   R(19,30)                0.9654         estimate D2E/DX2                !
 ! R31   R(20,28)                0.964          estimate D2E/DX2                !
 ! R32   R(21,29)                0.9802         estimate D2E/DX2                !
 ! A1    A(2,1,3)              106.0959         estimate D2E/DX2                !
 ! A2    A(2,1,4)              103.2214         estimate D2E/DX2                !
 ! A3    A(2,1,5)              112.8091         estimate D2E/DX2                !
 ! A4    A(3,1,4)              105.0977         estimate D2E/DX2                !
 ! A5    A(3,1,5)              115.6243         estimate D2E/DX2                !
 ! A6    A(4,1,5)              112.9055         estimate D2E/DX2                !
 ! A7    A(1,2,8)              141.2479         estimate D2E/DX2                !
 ! A8    A(1,3,7)              148.2962         estimate D2E/DX2                !
 ! A9    A(1,4,6)              134.9216         estimate D2E/DX2                !
 ! A10   A(1,5,9)              175.0            Frozen                          !
 ! A11   A(4,6,16)             109.9952         estimate D2E/DX2                !
 ! A12   A(4,6,17)             109.7479         estimate D2E/DX2                !
 ! A13   A(4,6,18)             111.8422         estimate D2E/DX2                !
 ! A14   A(16,6,17)            114.9972         estimate D2E/DX2                !
 ! A15   A(16,6,18)            108.0658         estimate D2E/DX2                !
 ! A16   A(17,6,18)            101.9869         estimate D2E/DX2                !
 ! A17   A(3,7,19)             103.269          estimate D2E/DX2                !
 ! A18   A(3,7,20)             114.3706         estimate D2E/DX2                !
 ! A19   A(3,7,21)             111.9733         estimate D2E/DX2                !
 ! A20   A(19,7,20)            106.3205         estimate D2E/DX2                !
 ! A21   A(19,7,21)            112.6973         estimate D2E/DX2                !
 ! A22   A(20,7,21)            108.1076         estimate D2E/DX2                !
 ! A23   A(2,8,13)             111.4365         estimate D2E/DX2                !
 ! A24   A(2,8,14)             107.7362         estimate D2E/DX2                !
 ! A25   A(2,8,15)             107.5759         estimate D2E/DX2                !
 ! A26   A(13,8,14)            110.4391         estimate D2E/DX2                !
 ! A27   A(13,8,15)            110.7606         estimate D2E/DX2                !
 ! A28   A(14,8,15)            108.7751         estimate D2E/DX2                !
 ! A29   A(5,9,10)             113.7766         estimate D2E/DX2                !
 ! A30   A(5,9,11)             110.2315         estimate D2E/DX2                !
 ! A31   A(5,9,12)             105.0575         estimate D2E/DX2                !
 ! A32   A(10,9,11)            105.2124         estimate D2E/DX2                !
 ! A33   A(10,9,12)            108.4602         estimate D2E/DX2                !
 ! A34   A(11,9,12)            114.3199         estimate D2E/DX2                !
 ! A35   A(9,10,23)            115.844          estimate D2E/DX2                !
 ! A36   A(9,11,24)            117.3556         estimate D2E/DX2                !
 ! A37   A(9,12,22)            116.8573         estimate D2E/DX2                !
 ! A38   A(8,13,25)            116.8991         estimate D2E/DX2                !
 ! A39   A(8,14,27)            114.056          estimate D2E/DX2                !
 ! A40   A(8,15,26)            117.2166         estimate D2E/DX2                !
 ! A41   A(6,16,32)            116.4907         estimate D2E/DX2                !
 ! A42   A(6,17,33)            117.1859         estimate D2E/DX2                !
 ! A43   A(6,18,31)            116.3076         estimate D2E/DX2                !
 ! A44   A(7,19,30)            115.1373         estimate D2E/DX2                !
 ! A45   A(7,20,28)            116.1676         estimate D2E/DX2                !
 ! A46   A(7,21,29)            116.2372         estimate D2E/DX2                !
 ! D1    D(3,1,2,8)             57.7292         estimate D2E/DX2                !
 ! D2    D(4,1,2,8)            -52.5301         estimate D2E/DX2                !
 ! D3    D(5,1,2,8)           -174.7067         estimate D2E/DX2                !
 ! D4    D(2,1,3,7)            -50.098          estimate D2E/DX2                !
 ! D5    D(4,1,3,7)             58.8315         estimate D2E/DX2                !
 ! D6    D(5,1,3,7)           -175.9641         estimate D2E/DX2                !
 ! D7    D(2,1,4,6)             42.7683         estimate D2E/DX2                !
 ! D8    D(3,1,4,6)            -68.2312         estimate D2E/DX2                !
 ! D9    D(5,1,4,6)            164.8802         estimate D2E/DX2                !
 ! D10   D(2,1,9,10)           155.0747         estimate D2E/DX2                !
 ! D11   D(2,1,9,11)            35.3167         estimate D2E/DX2                !
 ! D12   D(2,1,9,12)           -87.8518         estimate D2E/DX2                !
 ! D13   D(3,1,9,10)           -83.7685         estimate D2E/DX2                !
 ! D14   D(3,1,9,11)           156.4735         estimate D2E/DX2                !
 ! D15   D(3,1,9,12)            33.305          estimate D2E/DX2                !
 ! D16   D(4,1,9,10)            36.8951         estimate D2E/DX2                !
 ! D17   D(4,1,9,11)           -82.8629         estimate D2E/DX2                !
 ! D18   D(4,1,9,12)           153.9686         estimate D2E/DX2                !
 ! D19   D(1,2,8,13)            93.5308         estimate D2E/DX2                !
 ! D20   D(1,2,8,14)           -27.7655         estimate D2E/DX2                !
 ! D21   D(1,2,8,15)          -144.8802         estimate D2E/DX2                !
 ! D22   D(1,3,7,19)           -61.1012         estimate D2E/DX2                !
 ! D23   D(1,3,7,20)          -176.1751         estimate D2E/DX2                !
 ! D24   D(1,3,7,21)            60.409          estimate D2E/DX2                !
 ! D25   D(1,4,6,16)           160.167          estimate D2E/DX2                !
 ! D26   D(1,4,6,17)            32.6925         estimate D2E/DX2                !
 ! D27   D(1,4,6,18)           -79.742          estimate D2E/DX2                !
 ! D28   D(4,6,16,32)          -14.1998         estimate D2E/DX2                !
 ! D29   D(17,6,16,32)         110.2979         estimate D2E/DX2                !
 ! D30   D(18,6,16,32)        -136.5531         estimate D2E/DX2                !
 ! D31   D(4,6,17,33)           51.0095         estimate D2E/DX2                !
 ! D32   D(16,6,17,33)         -73.6179         estimate D2E/DX2                !
 ! D33   D(18,6,17,33)         169.7166         estimate D2E/DX2                !
 ! D34   D(4,6,18,31)          -96.4424         estimate D2E/DX2                !
 ! D35   D(16,6,18,31)          24.7715         estimate D2E/DX2                !
 ! D36   D(17,6,18,31)         146.349          estimate D2E/DX2                !
 ! D37   D(3,7,19,30)         -162.1837         estimate D2E/DX2                !
 ! D38   D(20,7,19,30)         -41.4662         estimate D2E/DX2                !
 ! D39   D(21,7,19,30)          76.796          estimate D2E/DX2                !
 ! D40   D(3,7,20,28)          -98.427          estimate D2E/DX2                !
 ! D41   D(19,7,20,28)         148.2947         estimate D2E/DX2                !
 ! D42   D(21,7,20,28)          27.0455         estimate D2E/DX2                !
 ! D43   D(3,7,21,29)          -49.8995         estimate D2E/DX2                !
 ! D44   D(19,7,21,29)          66.0156         estimate D2E/DX2                !
 ! D45   D(20,7,21,29)        -176.7753         estimate D2E/DX2                !
 ! D46   D(2,8,13,25)          -58.468          estimate D2E/DX2                !
 ! D47   D(14,8,13,25)          61.2404         estimate D2E/DX2                !
 ! D48   D(15,8,13,25)        -178.1888         estimate D2E/DX2                !
 ! D49   D(2,8,14,27)           80.2918         estimate D2E/DX2                !
 ! D50   D(13,8,14,27)         -41.6247         estimate D2E/DX2                !
 ! D51   D(15,8,14,27)        -163.3756         estimate D2E/DX2                !
 ! D52   D(2,8,15,26)         -174.1994         estimate D2E/DX2                !
 ! D53   D(13,8,15,26)         -52.1897         estimate D2E/DX2                !
 ! D54   D(14,8,15,26)          69.3652         estimate D2E/DX2                !
 ! D55   D(5,9,10,23)          -94.8504         estimate D2E/DX2                !
 ! D56   D(11,9,10,23)          25.9075         estimate D2E/DX2                !
 ! D57   D(12,9,10,23)         148.6396         estimate D2E/DX2                !
 ! D58   D(5,9,11,24)          -43.8206         estimate D2E/DX2                !
 ! D59   D(10,9,11,24)        -166.8797         estimate D2E/DX2                !
 ! D60   D(12,9,11,24)          74.2393         estimate D2E/DX2                !
 ! D61   D(5,9,12,22)         -166.4774         estimate D2E/DX2                !
 ! D62   D(10,9,12,22)         -44.4745         estimate D2E/DX2                !
 ! D63   D(11,9,12,22)          72.5542         estimate D2E/DX2                !
 --------------------------------------------------------------------------------
 Trust Radius=3.00D-01 FncErr=1.00D-07 GrdErr=1.00D-06 EigMax=2.50D+02 EigMin=1.00D-04
 Number of steps in this run=    151 maximum allowed number of steps=    198.
 GradGradGradGradGradGradGradGradGradGradGradGradGradGradGradGradGradGrad

                          Input orientation:                          
 ---------------------------------------------------------------------
 Center     Atomic      Atomic             Coordinates (Angstroms)
 Number     Number       Type             X           Y           Z
 ---------------------------------------------------------------------
      1         40           0        0.657790   -0.125060   -0.071640
      2          8           0       -0.222850   -0.906240    1.477300
      3          8           0        0.103020    1.747480   -0.122990
      4          8           0       -0.268300   -0.978850   -1.597050
      5          8           0        2.592060   -0.436300   -0.082840
      6         14           0       -1.831190   -1.332440   -1.953600
      7         14           0       -1.115500    2.841720   -0.082790
      8         14           0       -1.723760   -1.152910    2.115170
      9         14           0        4.223770   -0.558450   -0.058600
     10          8           0        4.916530   -0.518900   -1.556630
     11          8           0        4.680070   -2.012340    0.593320
     12          8           0        4.739620    0.758740    0.790470
     13          8           0       -2.319240   -2.624000    1.696270
     14          8           0       -2.724220    0.065080    1.550860
     15          8           0       -1.597340   -1.019570    3.744390
     16          8           0       -2.001440   -1.559650   -3.577820
     17          8           0       -2.825090   -0.186760   -1.301450
     18          8           0       -2.344480   -2.714390   -1.182770
     19          8           0       -2.040460    2.439570   -1.430230
     20          8           0       -0.635650    4.400490   -0.299870
     21          8           0       -1.965510    2.760860    1.313830
     22          1           0        5.678900    0.968010    0.741040
     23          1           0        5.095570   -1.376060   -1.959540
     24          1           0        4.218740   -2.306170    1.386720
     25          1           0       -2.405770   -2.809510    0.743920
     26          1           0       -2.381370   -1.224230    4.265350
     27          1           0       -3.060340   -0.083060    0.645890
     28          1           0       -0.527310    4.927280    0.500150
     29          1           0       -2.269090    1.869320    1.585330
     30          1           0       -2.648540    3.126760   -1.730140
     31          1           0       -2.304520   -3.529520   -1.695620
     32          1           0       -1.271140   -1.263050   -4.132230
     33          1           0       -2.610260    0.754610   -1.489930
 ---------------------------------------------------------------------
                    Distance matrix (angstroms):
                    1          2          3          4          5
     1  Zr   0.000000
     2  O    1.945504   0.000000
     3  O    1.953666   3.115983   0.000000
     4  O    1.978251   3.075543   3.121475   0.000000
     5  O    1.959183   3.252476   3.311469   3.281593   0.000000
     6  Si   3.345827   3.813067   4.071635   1.641578   4.885484
     7  Si   3.456366   4.156670   1.638221   4.196128   4.948880
     8  Si   3.392697   1.649380   4.093745   3.991145   4.896027
     9  Si   3.592243   4.717242   4.722504   4.766787   1.636455
    10  O    4.527380   5.980635   5.510143   5.205348   2.753551
    11  O    4.492520   5.103283   5.966467   5.509282   2.702014
    12  O    4.264466   5.279205   4.828051   5.813668   2.608219
    13  O    4.270002   2.719099   5.318542   4.214123   5.663226
    14  O    3.755882   2.684348   3.691278   4.126823   5.584191
    15  O    4.521929   2.653632   5.050190   5.504452   5.704294
    16  O    4.628483   5.398571   5.225104   2.695283   5.880225
    17  O    3.694143   3.874372   3.701875   2.692947   5.558129
    18  O    4.117386   3.853141   5.198238   2.737563   5.546978
    19  O    3.962783   4.790812   2.604299   3.854086   5.616612
    20  O    4.712290   5.611606   2.759598   5.545712   5.818913
    21  O    4.138812   4.063399   2.714813   5.033803   5.739683
    22  H    5.202576   6.235828   5.696013   6.680278   3.489906
    23  H    4.982274   6.349661   6.168871   5.390758   3.266912
    24  H    4.423169   4.657868   5.970800   5.549612   2.881338
    25  H    4.154132   2.987545   5.273682   3.660633   5.594101
    26  H    5.408711   3.540275   5.853271   6.236426   6.653014
    27  H    3.786965   3.069237   3.734823   3.691708   5.710118
    28  H    5.220876   5.922624   3.301022   6.272775   6.232041
    29  H    3.910208   3.450000   2.925766   4.716225   5.632890
    30  H    4.925117   5.695325   3.472237   4.747556   6.547739
    31  H    4.796138   4.613282   6.009671   3.265245   6.012118
    32  H    4.637260   5.717784   5.198616   2.741094   5.657331
    33  H    3.669539   4.154829   3.196280   2.915671   5.519266
                    6          7          8          9         10
     6  Si   0.000000
     7  Si   4.629876   0.000000
     8  Si   4.074145   4.599791   0.000000
     9  Si   6.391606   6.330051   6.360171   0.000000
    10  O    6.808168   7.060549   7.614298   1.650931   0.000000
    11  O    7.024640   7.589971   6.638048   1.657409   2.628414
    12  O    7.421489   6.275653   6.869099   1.649852   2.678160
    13  O    3.902290   5.872660   1.641396   7.082164   8.207873
    14  O    3.877087   3.600906   1.674176   7.159170   8.269135
    15  O    5.711363   5.457933   1.639549   6.968550   8.413203
    16  O    1.648848   5.689656   5.714252   7.220841   7.281942
    17  O    1.650975   3.685040   3.717481   7.167235   7.752942
    18  O    1.663560   5.795749   3.701340   7.003838   7.594881
    19  O    3.813892   1.683113   5.057279   7.078847   7.560968
    20  O    6.085279   1.645340   6.152776   6.947176   7.523732
    21  O    5.239203   1.636949   4.002272   7.156016   8.146094
    22  H    8.303891   7.096010   7.822142   2.255417   2.841020
    23  H    6.926900   7.738814   7.947095   2.245461   0.963906
    24  H    6.979079   7.557403   6.097045   2.267929   3.513482
    25  H    3.128657   5.855309   2.256056   7.047135   8.009713
    26  H    6.244177   6.086107   2.249625   7.922606   9.362280
    27  H    3.135141   3.587160   2.256060   7.333523   8.286827
    28  H    6.848729   2.243958   6.403787   7.278612   7.970358
    29  H    4.792395   2.249212   3.116406   7.124170   8.198088
    30  H    4.538993   2.268308   5.827281   7.975178   8.399478
    31  H    2.262246   6.678899   4.528540   7.357014   7.824750
    32  H    2.250533   5.768130   6.264743   6.876406   6.743496
    33  H    2.275460   2.927521   4.173878   7.104703   7.634058
                   11         12         13         14         15
    11  O    0.000000
    12  O    2.778722   0.000000
    13  O    7.112030   7.879778   0.000000
    14  O    7.749585   7.534472   2.723289   0.000000
    15  O    7.093709   7.214228   2.700024   2.694049   0.000000
    16  O    7.889608   8.360549   5.389792   5.428215   7.353213
    17  O    7.953007   7.905374   3.896453   2.865182   5.259415
    18  O    7.279538   8.132698   2.880569   3.916936   5.263795
    19  O    8.311425   7.329815   5.957555   3.872032   6.240088
    20  O    8.377294   6.583670   7.494165   5.155881   6.830662
    21  O    8.213788   7.017204   5.410000   2.810526   4.509415
    22  H    3.146739   0.963579   8.819594   8.490201   8.118759
    23  H    2.663567   3.499518   8.360724   8.691887   8.800963
    24  H    0.963662   3.165518   6.553016   7.338560   6.406304
    25  H    7.132131   7.986938   0.974101   3.002637   3.586121
    26  H    7.998053   8.167953   2.926327   3.024619   0.963321
    27  H    7.977395   7.846586   2.847614   0.976674   3.552200
    28  H    8.676625   6.723211   7.852614   5.437959   6.858213
    29  H    8.021359   7.140533   4.494969   1.861079   3.668579
    30  H    9.247559   8.157567   6.702236   4.488271   6.947485
    31  H    7.505037   8.613346   3.510712   4.861783   6.032716
    32  H    7.636043   8.028066   6.076357   6.014390   7.887131
    33  H    8.071236   7.695517   4.653125   3.120071   5.618881
                   16         17         18         19         20
    16  O    0.000000
    17  O    2.783000   0.000000
    18  O    2.680926   2.575652   0.000000
    19  O    4.539540   2.744055   5.168846   0.000000
    20  O    6.937839   5.180702   7.370287   2.663909   0.000000
    21  O    6.526587   4.033241   6.029510   2.763822   2.657243
    22  H    9.166746   8.821740   9.035250   8.152817   7.262159
    23  H    7.281489   8.036440   7.599266   8.109385   8.304813
    24  H    7.993409   7.831583   7.060084   8.344749   8.449200
    25  H    4.516976   3.352340   1.930010   5.693261   7.497128
    26  H    7.859527   5.680008   5.648358   6.780802   7.451594
    27  H    4.597968   1.964238   3.283344   3.422586   5.184188
    28  H    7.802766   5.888884   8.033022   3.493521   0.963990
    29  H    6.203837   3.587492   5.355227   3.077509   3.553720
    30  H    5.078888   3.345797   5.874615   0.965369   2.778450
    31  H    2.741336   3.405937   0.963872   5.980819   8.223035
    32  H    0.963680   3.403891   3.458000   4.647801   6.867788
    33  H    3.175806   0.983796   3.492699   1.779698   4.313672
                   21         22         23         24         25
    21  O    0.000000
    22  H    7.872700   0.000000
    23  H    8.814074   3.623268   0.000000
    24  H    7.995315   3.642695   3.582093   0.000000
    25  H    5.616729   8.923651   8.101455   6.674629   0.000000
    26  H    4.976480   9.066125   9.730208   7.281384   3.861888
    27  H    3.119724   8.802734   8.659041   7.646964   2.805637
    28  H    2.724678   7.365520   8.797667   8.696769   7.965297
    29  H    0.980162   8.043366   8.794135   7.717908   4.755849
    30  H    3.141045   8.950597   8.960985   9.294680   6.435776
    31  H    6.981447   9.481565   7.711574   7.317809   2.545589
    32  H    6.806877   8.776642   6.728176   7.854024   5.239825
    33  H    3.507394   8.586789   8.008752   8.017402   4.211277
                   26         27         28         29         30
    26  H    0.000000
    27  H    3.855355   0.000000
    28  H    7.446835   5.616136   0.000000
    29  H    4.094529   2.306602   3.682734   0.000000
    30  H    7.412718   4.014728   3.565906   3.566157   0.000000
    31  H    6.391669   4.234622   8.916129   6.317702   6.665254
    32  H    8.470742   5.236797   7.767394   6.595312   5.190154
    33  H    6.090275   2.337946   5.070530   3.288799   2.384588
                   31         32         33
    31  H    0.000000
    32  H    3.484513   0.000000
    33  H    4.299948   3.584124   0.000000
 Stoichiometry    H12O16Si4Zr
 Framework group  C1[X(H12O16Si4Zr)]
 Deg. of freedom    93
 Full point group                 C1      NOp   1
 Largest Abelian subgroup         C1      NOp   1
 Largest concise Abelian subgroup C1      NOp   1
                         Standard orientation:                         
 ---------------------------------------------------------------------
 Center     Atomic      Atomic             Coordinates (Angstroms)
 Number     Number       Type             X           Y           Z
 ---------------------------------------------------------------------
      1         40           0        0.660377   -0.003558   -0.044975
      2          8           0       -0.174826   -0.851957    1.493738
      3          8           0       -0.055737    1.812700   -0.117090
      4          8           0       -0.160714   -0.942512   -1.580439
      5          8           0        2.614412   -0.143587   -0.021835
      6         14           0       -1.680130   -1.433784   -1.960971
      7         14           0       -1.366161    2.795749   -0.104030
      8         14           0       -1.659045   -1.226672    2.107852
      9         14           0        4.249883   -0.121696    0.030508
     10          8           0        4.962216   -0.028328   -1.455910
     11          8           0        4.820801   -1.526806    0.698881
     12          8           0        4.633343    1.239662    0.880023
     13          8           0       -2.115715   -2.746342    1.688046
     14          8           0       -2.752731   -0.103981    1.519396
     15          8           0       -1.572932   -1.075194    3.738115
     16          8           0       -1.801740   -1.682598   -3.586395
     17          8           0       -2.781904   -0.376914   -1.332608
     18          8           0       -2.083280   -2.851926   -1.190404
     19          8           0       -2.228860    2.307604   -1.464301
     20          8           0       -1.021394    4.389649   -0.322579
     21          8           0       -2.229737    2.646938    1.278610
     22          1           0        5.551326    1.530469    0.845067
     23          1           0        5.222764   -0.868284   -1.850503
     24          1           0        4.373449   -1.856381    1.486220
     25          1           0       -2.169187   -2.943147    0.735534
     26          1           0       -2.344822   -1.345577    4.247100
     27          1           0       -3.058890   -0.285285    0.609842
     28          1           0       -0.973546    4.927621    0.475903
     29          1           0       -2.458480    1.733427    1.550439
     30          1           0       -2.889682    2.937277   -1.778568
     31          1           0       -1.963050   -3.662752   -1.697509
     32          1           0       -1.090862   -1.325510   -4.130289
     33          1           0       -2.647363    0.578816   -1.523223
 ---------------------------------------------------------------------
 Rotational constants (GHZ):           0.2112984           0.1333087           0.1232403
 General basis read from cards:  (5D, 7F)
 ======================================================================================================
                                       Pseudopotential Parameters
 ======================================================================================================
  Center     Atomic      Valence      Angular      Power
  Number     Number     Electrons     Momentum     of R      Exponent        Coefficient   SO-Coeffient
 ======================================================================================================
    1         40           12
                                      G and up 
                                                     2        1.0000000        0.00000000    0.00000000
                                      S - G
                                                     2        8.6365280      150.24299400    0.00000000
                                                     2        3.7176390       18.78003600    0.00000000
                                      P - G
                                                     2        7.6267280       33.19279100    0.00000000
                                                     2        7.4532070       66.38903900    0.00000000
                                                     2        3.3583890        4.62072600    0.00000000
                                                     2        3.2297380        9.26027000    0.00000000
                                      D - G
                                                     2        5.9380860       13.99338300    0.00000000
                                                     2        5.8255440       20.99588200    0.00000000
                                                     2        2.2050190        2.28516600    0.00000000
                                                     2        2.2062920        3.44126000    0.00000000
                                      F - G
                                                     2        4.8002150       -5.23932000    0.00000000
                                                     2        4.7989920       -6.98742400    0.00000000
    2          8
                                   No pseudopotential on this center.
    3          8
                                   No pseudopotential on this center.
    4          8
                                   No pseudopotential on this center.
    5          8
                                   No pseudopotential on this center.
    6         14
                                   No pseudopotential on this center.
    7         14
                                   No pseudopotential on this center.
    8         14
                                   No pseudopotential on this center.
    9         14
                                   No pseudopotential on this center.
   10          8
                                   No pseudopotential on this center.
   11          8
                                   No pseudopotential on this center.
   12          8
                                   No pseudopotential on this center.
   13          8
                                   No pseudopotential on this center.
   14          8
                                   No pseudopotential on this center.
   15          8
                                   No pseudopotential on this center.
   16          8
                                   No pseudopotential on this center.
   17          8
                                   No pseudopotential on this center.
   18          8
                                   No pseudopotential on this center.
   19          8
                                   No pseudopotential on this center.
   20          8
                                   No pseudopotential on this center.
   21          8
                                   No pseudopotential on this center.
   22          1
                                   No pseudopotential on this center.
   23          1
                                   No pseudopotential on this center.
   24          1
                                   No pseudopotential on this center.
   25          1
                                   No pseudopotential on this center.
   26          1
                                   No pseudopotential on this center.
   27          1
                                   No pseudopotential on this center.
   28          1
                                   No pseudopotential on this center.
   29          1
                                   No pseudopotential on this center.
   30          1
                                   No pseudopotential on this center.
   31          1
                                   No pseudopotential on this center.
   32          1
                                   No pseudopotential on this center.
   33          1
                                   No pseudopotential on this center.
 ======================================================================================================
 There are   570 symmetry adapted cartesian basis functions of A   symmetry.
 There are   524 symmetry adapted basis functions of A   symmetry.
   524 basis functions,  1074 primitive gaussians,   570 cartesian basis functions
   104 alpha electrons      104 beta electrons
       nuclear repulsion energy      2829.2992331130 Hartrees.
 NAtoms=   33 NActive=   33 NUniq=   33 SFac= 1.00D+00 NAtFMM=   60 NAOKFM=F Big=F
 Integral buffers will be    131072 words long.
 Raffenetti 2 integral format.
 Two-electron integral symmetry is turned on.
 Nuclear repulsion after empirical dispersion term =     2829.2584749039 Hartrees.
 One-electron integrals computed using PRISM.
 PrsmSu:  requested number of processors reduced to:   4 ShMem   1 Linda.
   1 Symmetry operations used in ECPInt.
 ECPInt:  NShTT=   13203 NPrTT=   78401 LenC2=   11524 LenP2D=   44610.
 LDataN:  DoStor=T MaxTD1= 8 Len=  415
 Number of processors reduced to  13 by ecpmxn.
 NBasis=   524 RedAO= T EigKep=  3.23D-05  NBF=   524
 NBsUse=   524 1.00D-06 EigRej= -1.00D+00 NBFU=   524
 Defaulting to unpruned grid for atomic number  40.
 ExpMin= 1.01D-02 ExpMax= 1.61D+04 ExpMxC= 2.43D+03 IAcc=3 IRadAn=         5 AccDes= 0.00D+00
 Harris functional with IExCor=  402 and IRadAn=       5 diagonalized for initial guess.
 HarFok:  IExCor=  402 AccDes= 0.00D+00 IRadAn=         5 IDoV= 1 UseB2=F ITyADJ=14
 ICtDFT=  3500011 ScaDFX=  1.000000  1.000000  1.000000  1.000000
 Defaulting to unpruned grid for atomic number  40.
 FoFCou: FMM=F IPFlag=           0 FMFlag=      100000 FMFlg1=           0
         NFxFlg=           0 DoJE=T BraDBF=F KetDBF=T FulRan=T
         wScrn=  0.000000 ICntrl=       500 IOpCl=  0 I1Cent=   200000004 NGrid=           0
         NMat0=    1 NMatS0=      1 NMatT0=    0 NMatD0=    1 NMtDS0=    0 NMtDT0=    0
 Petite list used in FoFCou.
 Requested convergence on RMS density matrix=1.00D-08 within 128 cycles.
 Requested convergence on MAX density matrix=1.00D-06.
 Requested convergence on             energy=1.00D-06.
 No special actions if energy rises.
 Defaulting to unpruned grid for atomic number  40.
 Defaulting to unpruned grid for atomic number  40.
 Defaulting to unpruned grid for atomic number  40.
 Defaulting to unpruned grid for atomic number  40.
 Defaulting to unpruned grid for atomic number  40.
 Defaulting to unpruned grid for atomic number  40.
 Defaulting to unpruned grid for atomic number  40.
 Defaulting to unpruned grid for atomic number  40.
 Defaulting to unpruned grid for atomic number  40.
 Defaulting to unpruned grid for atomic number  40.
 Defaulting to unpruned grid for atomic number  40.
 Defaulting to unpruned grid for atomic number  40.
 Defaulting to unpruned grid for atomic number  40.
 Defaulting to unpruned grid for atomic number  40.
 Defaulting to unpruned grid for atomic number  40.
 Defaulting to unpruned grid for atomic number  40.
 SCF Done:  E(RB3LYP) =  -2416.94674517     A.U. after   14 cycles
            NFock= 14  Conv=0.27D-08     -V/T= 2.0185

 **********************************************************************

            Population analysis using the SCF Density.

 **********************************************************************

 Orbital symmetries:
       Occupied  (A) (A) (A) (A) (A) (A) (A) (A) (A) (A) (A) (A)
                 (A) (A) (A) (A) (A) (A) (A) (A) (A) (A) (A) (A)
                 (A) (A) (A) (A) (A) (A) (A) (A) (A) (A) (A) (A)
                 (A) (A) (A) (A) (A) (A) (A) (A) (A) (A) (A) (A)
                 (A) (A) (A) (A) (A) (A) (A) (A) (A) (A) (A) (A)
                 (A) (A) (A) (A) (A) (A) (A) (A) (A) (A) (A) (A)
                 (A) (A) (A) (A) (A) (A) (A) (A) (A) (A) (A) (A)
                 (A) (A) (A) (A) (A) (A) (A) (A) (A) (A) (A) (A)
                 (A) (A) (A) (A) (A) (A) (A) (A)
       Virtual   (A) (A) (A) (A) (A) (A) (A) (A) (A) (A) (A) (A)
                 (A) (A) (A) (A) (A) (A) (A) (A) (A) (A) (A) (A)
                 (A) (A) (A) (A) (A) (A) (A) (A) (A) (A) (A) (A)
                 (A) (A) (A) (A) (A) (A) (A) (A) (A) (A) (A) (A)
                 (A) (A) (A) (A) (A) (A) (A) (A) (A) (A) (A) (A)
                 (A) (A) (A) (A) (A) (A) (A) (A) (A) (A) (A) (A)
                 (A) (A) (A) (A) (A) (A) (A) (A) (A) (A) (A) (A)
                 (A) (A) (A) (A) (A) (A) (A) (A) (A) (A) (A) (A)
                 (A) (A) (A) (A) (A) (A) (A) (A) (A) (A) (A) (A)
                 (A) (A) (A) (A) (A) (A) (A) (A) (A) (A) (A) (A)
                 (A) (A) (A) (A) (A) (A) (A) (A) (A) (A) (A) (A)
                 (A) (A) (A) (A) (A) (A) (A) (A) (A) (A) (A) (A)
                 (A) (A) (A) (A) (A) (A) (A) (A) (A) (A) (A) (A)
                 (A) (A) (A) (A) (A) (A) (A) (A) (A) (A) (A) (A)
                 (A) (A) (A) (A) (A) (A) (A) (A) (A) (A) (A) (A)
                 (A) (A) (A) (A) (A) (A) (A) (A) (A) (A) (A) (A)
                 (A) (A) (A) (A) (A) (A) (A) (A) (A) (A) (A) (A)
                 (A) (A) (A) (A) (A) (A) (A) (A) (A) (A) (A) (A)
                 (A) (A) (A) (A) (A) (A) (A) (A) (A) (A) (A) (A)
                 (A) (A) (A) (A) (A) (A) (A) (A) (A) (A) (A) (A)
                 (A) (A) (A) (A) (A) (A) (A) (A) (A) (A) (A) (A)
                 (A) (A) (A) (A) (A) (A) (A) (A) (A) (A) (A) (A)
                 (A) (A) (A) (A) (A) (A) (A) (A) (A) (A) (A) (A)
                 (A) (A) (A) (A) (A) (A) (A) (A) (A) (A) (A) (A)
                 (A) (A) (A) (A) (A) (A) (A) (A) (A) (A) (A) (A)
                 (A) (A) (A) (A) (A) (A) (A) (A) (A) (A) (A) (A)
                 (A) (A) (A) (A) (A) (A) (A) (A) (A) (A) (A) (A)
                 (A) (A) (A) (A) (A) (A) (A) (A) (A) (A) (A) (A)
                 (A) (A) (A) (A) (A) (A) (A) (A) (A) (A) (A) (A)
                 (A) (A) (A) (A) (A) (A) (A) (A) (A) (A) (A) (A)
                 (A) (A) (A) (A) (A) (A) (A) (A) (A) (A) (A) (A)
                 (A) (A) (A) (A) (A) (A) (A) (A) (A) (A) (A) (A)
                 (A) (A) (A) (A) (A) (A) (A) (A) (A) (A) (A) (A)
                 (A) (A) (A) (A) (A) (A) (A) (A) (A) (A) (A) (A)
                 (A) (A) (A) (A) (A) (A) (A) (A) (A) (A) (A) (A)
 The electronic state is 1-A.
 Alpha  occ. eigenvalues --  -66.22868 -66.21801 -66.21485 -66.21102 -19.18651
 Alpha  occ. eigenvalues --  -19.18395 -19.17844 -19.17082 -19.16776 -19.16560
 Alpha  occ. eigenvalues --  -19.16441 -19.16242 -19.16112 -19.16093 -19.16053
 Alpha  occ. eigenvalues --  -19.15548 -19.15340 -19.15329 -19.14943 -19.14771
 Alpha  occ. eigenvalues --   -5.36928  -5.35882  -5.35555  -5.35162  -3.72912
 Alpha  occ. eigenvalues --   -3.72886  -3.72839  -3.71873  -3.71826  -3.71791
 Alpha  occ. eigenvalues --   -3.71525  -3.71517  -3.71474  -3.71128  -3.71118
 Alpha  occ. eigenvalues --   -3.71093  -2.13443  -1.29675  -1.29597  -1.29445
 Alpha  occ. eigenvalues --   -1.05739  -1.04821  -1.04130  -1.03556  -1.02623
 Alpha  occ. eigenvalues --   -1.02219  -1.01522  -1.00883  -1.00738  -1.00718
 Alpha  occ. eigenvalues --   -0.99885  -0.99363  -0.97414  -0.96348  -0.95765
 Alpha  occ. eigenvalues --   -0.95452  -0.61049  -0.59201  -0.58972  -0.58550
 Alpha  occ. eigenvalues --   -0.55597  -0.54578  -0.53849  -0.53090  -0.52949
 Alpha  occ. eigenvalues --   -0.52550  -0.52205  -0.51764  -0.48846  -0.47629
 Alpha  occ. eigenvalues --   -0.47246  -0.46800  -0.43430  -0.42710  -0.41918
 Alpha  occ. eigenvalues --   -0.41437  -0.41097  -0.40617  -0.39877  -0.39393
 Alpha  occ. eigenvalues --   -0.38848  -0.38756  -0.38642  -0.38180  -0.38080
 Alpha  occ. eigenvalues --   -0.37666  -0.37539  -0.37252  -0.36550  -0.36452
 Alpha  occ. eigenvalues --   -0.36070  -0.35664  -0.35504  -0.35133  -0.34870
 Alpha  occ. eigenvalues --   -0.34657  -0.34038  -0.33719  -0.33520  -0.33317
 Alpha  occ. eigenvalues --   -0.32840  -0.32159  -0.32092  -0.31365
 Alpha virt. eigenvalues --   -0.04389  -0.03239  -0.03090  -0.02743  -0.02144
 Alpha virt. eigenvalues --   -0.01229  -0.00620  -0.00222   0.00081   0.00325
 Alpha virt. eigenvalues --    0.00694   0.00929   0.00975   0.01904   0.02327
 Alpha virt. eigenvalues --    0.03254   0.03383   0.03824   0.03840   0.04053
 Alpha virt. eigenvalues --    0.04226   0.04608   0.05524   0.05790   0.06103
 Alpha virt. eigenvalues --    0.06422   0.07112   0.07514   0.07711   0.08647
 Alpha virt. eigenvalues --    0.08777   0.08965   0.09142   0.09561   0.09894
 Alpha virt. eigenvalues --    0.10333   0.10532   0.10944   0.11146   0.11634
 Alpha virt. eigenvalues --    0.11967   0.12500   0.13146   0.13363   0.13812
 Alpha virt. eigenvalues --    0.13862   0.14444   0.14777   0.15009   0.15281
 Alpha virt. eigenvalues --    0.15435   0.15740   0.16158   0.16760   0.16809
 Alpha virt. eigenvalues --    0.17329   0.17517   0.17686   0.18101   0.18508
 Alpha virt. eigenvalues --    0.18520   0.18617   0.19144   0.19661   0.19768
 Alpha virt. eigenvalues --    0.20150   0.20312   0.20611   0.20947   0.21184
 Alpha virt. eigenvalues --    0.21689   0.21941   0.22300   0.22351   0.22706
 Alpha virt. eigenvalues --    0.22992   0.23649   0.23972   0.24176   0.24412
 Alpha virt. eigenvalues --    0.24568   0.25067   0.25505   0.25530   0.26027
 Alpha virt. eigenvalues --    0.26502   0.26739   0.26974   0.27280   0.27515
 Alpha virt. eigenvalues --    0.27883   0.28208   0.28433   0.28756   0.29067
 Alpha virt. eigenvalues --    0.29377   0.29676   0.29850   0.30261   0.30422
 Alpha virt. eigenvalues --    0.30740   0.31032   0.31407   0.31577   0.32023
 Alpha virt. eigenvalues --    0.32529   0.32680   0.33237   0.33615   0.33982
 Alpha virt. eigenvalues --    0.34223   0.34545   0.35406   0.35686   0.36429
 Alpha virt. eigenvalues --    0.36744   0.37330   0.37676   0.38031   0.38974
 Alpha virt. eigenvalues --    0.39160   0.39876   0.40333   0.41107   0.41880
 Alpha virt. eigenvalues --    0.42714   0.43138   0.43734   0.44087   0.44388
 Alpha virt. eigenvalues --    0.45134   0.45884   0.46183   0.46856   0.47473
 Alpha virt. eigenvalues --    0.47518   0.48168   0.48692   0.49185   0.49529
 Alpha virt. eigenvalues --    0.49979   0.51079   0.51177   0.51291   0.52483
 Alpha virt. eigenvalues --    0.53731   0.54588   0.55191   0.56635   0.57284
 Alpha virt. eigenvalues --    0.57914   0.58777   0.59389   0.59683   0.60051
 Alpha virt. eigenvalues --    0.61536   0.61874   0.62126   0.63546   0.65820
 Alpha virt. eigenvalues --    0.66955   0.67452   0.68419   0.69144   0.69370
 Alpha virt. eigenvalues --    0.70198   0.71149   0.72941   0.74292   0.75436
 Alpha virt. eigenvalues --    0.75531   0.77180   0.78302   0.78784   0.80586
 Alpha virt. eigenvalues --    0.81104   0.81503   0.82900   0.84067   0.85443
 Alpha virt. eigenvalues --    0.86486   0.88291   0.89525   0.90130   0.91325
 Alpha virt. eigenvalues --    0.93628   0.95622   0.96436   0.96795   0.97426
 Alpha virt. eigenvalues --    0.98207   0.98747   0.98944   0.99707   1.00289
 Alpha virt. eigenvalues --    1.01023   1.01410   1.02340   1.02873   1.04147
 Alpha virt. eigenvalues --    1.04231   1.05491   1.06333   1.06739   1.07780
 Alpha virt. eigenvalues --    1.09639   1.12543   1.15257   1.16109   1.16373
 Alpha virt. eigenvalues --    1.18580   1.18978   1.20043   1.20440   1.20648
 Alpha virt. eigenvalues --    1.21630   1.21764   1.22329   1.22660   1.22867
 Alpha virt. eigenvalues --    1.23347   1.23937   1.24164   1.25008   1.25806
 Alpha virt. eigenvalues --    1.26020   1.27104   1.27374   1.27939   1.28104
 Alpha virt. eigenvalues --    1.28924   1.29620   1.30113   1.30756   1.31269
 Alpha virt. eigenvalues --    1.32059   1.32747   1.32889   1.33594   1.34791
 Alpha virt. eigenvalues --    1.35201   1.35931   1.36731   1.36782   1.37628
 Alpha virt. eigenvalues --    1.39225   1.39740   1.40190   1.41087   1.41513
 Alpha virt. eigenvalues --    1.42522   1.42945   1.44011   1.45279   1.46455
 Alpha virt. eigenvalues --    1.46909   1.48793   1.50093   1.51963   1.53486
 Alpha virt. eigenvalues --    1.56608   1.57329   1.57563   1.59096   1.59443
 Alpha virt. eigenvalues --    1.60191   1.60924   1.61840   1.62700   1.63165
 Alpha virt. eigenvalues --    1.63236   1.63823   1.64873   1.65254   1.66686
 Alpha virt. eigenvalues --    1.67678   1.68091   1.69223   1.69737   1.70165
 Alpha virt. eigenvalues --    1.70564   1.71386   1.71793   1.72238   1.73310
 Alpha virt. eigenvalues --    1.74308   1.74802   1.75405   1.75723   1.76311
 Alpha virt. eigenvalues --    1.77097   1.77265   1.78709   1.78732   1.79778
 Alpha virt. eigenvalues --    1.80547   1.81568   1.82087   1.82529   1.82716
 Alpha virt. eigenvalues --    1.84106   1.84794   1.85214   1.86028   1.86763
 Alpha virt. eigenvalues --    1.87368   1.88194   1.88589   1.89442   1.90366
 Alpha virt. eigenvalues --    1.91254   1.91551   1.92348   1.92768   1.93241
 Alpha virt. eigenvalues --    1.94113   1.96438   1.96627   1.97285   1.97498
 Alpha virt. eigenvalues --    1.98492   2.00205   2.01049   2.02989   2.03600
 Alpha virt. eigenvalues --    2.05695   2.06516   2.07372   2.09696   2.10645
 Alpha virt. eigenvalues --    2.11501   2.12909   2.14114   2.15394   2.16178
 Alpha virt. eigenvalues --    2.17700   2.18381   2.18872   2.20166   2.29239
 Alpha virt. eigenvalues --    2.32017   2.33635   2.35213   2.39474   2.40469
 Alpha virt. eigenvalues --    2.41118   2.41168   2.41729   2.42819   2.43612
 Alpha virt. eigenvalues --    2.43980   2.46012   2.46731   2.47262   2.49108
 Alpha virt. eigenvalues --    2.50209   2.50415   2.51629   2.52921   2.53638
 Alpha virt. eigenvalues --    2.55504   2.57028   2.58680   2.60000   2.60699
 Alpha virt. eigenvalues --    2.60967   2.61859   2.62166   2.62344   2.62752
 Alpha virt. eigenvalues --    2.63185   2.63837   2.64315   2.64900   2.65734
 Alpha virt. eigenvalues --    2.65955   2.66297   2.67051   2.67522   2.68446
 Alpha virt. eigenvalues --    2.69332   2.70233   2.71181   2.71593   2.72216
 Alpha virt. eigenvalues --    2.72600   2.74176   2.75516   2.76627   2.77332
 Alpha virt. eigenvalues --    2.78968   2.80601   2.81375   2.82400   2.83392
 Alpha virt. eigenvalues --    2.83625   2.84715   2.86596   2.87694   2.88117
 Alpha virt. eigenvalues --    3.13949   3.20306   3.35869   3.40928   3.47120
 Alpha virt. eigenvalues --    3.47878   3.48328   3.48595   3.51043   3.51137
 Alpha virt. eigenvalues --    3.53124   3.54310   3.60263   3.61031   3.62061
 Alpha virt. eigenvalues --    3.66153   4.26887   4.57871   8.00373  31.33321
          Condensed to atoms (all electrons):
               1          2          3          4          5          6
     1  Zr  14.765830  -0.089416  -0.022390  -0.065663  -0.186850  -0.606723
     2  O   -0.089416   9.073768   0.023705  -0.044646  -0.060285   0.083095
     3  O   -0.022390   0.023705   8.877717   0.017697  -0.054413   0.001373
     4  O   -0.065663  -0.044646   0.017697   8.830768  -0.052144  -0.734771
     5  O   -0.186850  -0.060285  -0.054413  -0.052144   9.509940  -0.014417
     6  Si  -0.606723   0.083095   0.001373  -0.734771  -0.014417  14.108008
     7  Si  -0.562862  -0.033329  -0.903327  -0.012114  -0.039932   0.073672
     8  Si  -0.563638  -1.040823  -0.011435   0.054087  -0.023643  -0.001072
     9  Si  -0.277402  -0.050609  -0.048742  -0.042725  -1.286594   0.028488
    10  O   -0.005880   0.001455  -0.000686   0.001694   0.139713  -0.001673
    11  O   -0.039086   0.003094   0.002651   0.000860   0.296696  -0.001362
    12  O    0.027264   0.000371   0.003938   0.002171   0.167475  -0.002565
    13  O   -0.035351   0.184281   0.001896  -0.016233  -0.000088   0.039626
    14  O   -0.000851   0.272914  -0.015468  -0.007067   0.003401   0.021832
    15  O   -0.084391   0.295807  -0.000809   0.001351   0.000442  -0.000977
    16  O   -0.129511   0.004735  -0.000547   0.345278   0.003135  -0.417311
    17  O   -0.026438  -0.041314   0.009222   0.224305   0.001874  -0.496333
    18  O   -0.007937  -0.014739   0.003901   0.196428  -0.000235  -0.462525
    19  O    0.002717   0.008885   0.262178   0.009040   0.002430  -0.004726
    20  O   -0.152055  -0.000519   0.177579  -0.000864   0.002208   0.008741
    21  O    0.032597   0.010079   0.144236   0.003150   0.000138  -0.008661
    22  H   -0.004532  -0.000015  -0.000023  -0.000008   0.006001   0.000041
    23  H   -0.008908  -0.000012  -0.000001  -0.000035  -0.025291   0.000055
    24  H   -0.004632  -0.000296  -0.000022   0.000004  -0.006045   0.000116
    25  H    0.017135  -0.020011  -0.000119  -0.000123   0.000003   0.001648
    26  H    0.005993   0.000548   0.000015  -0.000012  -0.000004  -0.000003
    27  H   -0.004710  -0.018987   0.000675  -0.001831  -0.000007   0.011916
    28  H    0.005480  -0.000011  -0.018959  -0.000013  -0.000017  -0.000256
    29  H    0.005140  -0.007177  -0.020638  -0.000160  -0.000094   0.000262
    30  H    0.001445  -0.000015   0.000020  -0.000453  -0.000011  -0.000835
    31  H   -0.001498   0.000199  -0.000018  -0.018562  -0.000008   0.064477
    32  H    0.001926  -0.000021   0.000043   0.010247   0.000003   0.023097
    33  H   -0.015972   0.000986  -0.010164  -0.008961  -0.000114   0.052117
               7          8          9         10         11         12
     1  Zr  -0.562862  -0.563638  -0.277402  -0.005880  -0.039086   0.027264
     2  O   -0.033329  -1.040823  -0.050609   0.001455   0.003094   0.000371
     3  O   -0.903327  -0.011435  -0.048742  -0.000686   0.002651   0.003938
     4  O   -0.012114   0.054087  -0.042725   0.001694   0.000860   0.002171
     5  O   -0.039932  -0.023643  -1.286594   0.139713   0.296696   0.167475
     6  Si   0.073672  -0.001072   0.028488  -0.001673  -0.001362  -0.002565
     7  Si  13.817077   0.175281   0.019264  -0.000796  -0.001376   0.003001
     8  Si   0.175281  13.872973   0.022806  -0.000931   0.000552  -0.000624
     9  Si   0.019264   0.022806  14.354288  -0.106217  -0.170053  -0.189964
    10  O   -0.000796  -0.000931  -0.106217   8.525773   0.031528   0.020242
    11  O   -0.001376   0.000552  -0.170053   0.031528   8.471440  -0.045950
    12  O    0.003001  -0.000624  -0.189964   0.020242  -0.045950   8.600149
    13  O    0.007316  -0.098452   0.000483   0.000001   0.000028   0.000002
    14  O    0.002764  -0.392875  -0.001907  -0.000003  -0.000002   0.000007
    15  O   -0.003063  -0.305766  -0.001042  -0.000001  -0.000022   0.000000
    16  O    0.004231  -0.010186  -0.000741  -0.000002   0.000000  -0.000003
    17  O   -0.007636   0.084845   0.001426  -0.000004   0.000002  -0.000005
    18  O   -0.000897   0.071653   0.004063  -0.000006   0.000005  -0.000001
    19  O   -0.407431  -0.014093   0.000957   0.000003  -0.000004  -0.000013
    20  O   -0.125038   0.009427   0.002536   0.000001  -0.000002  -0.000022
    21  O    0.027579  -0.036338  -0.001302   0.000001  -0.000001   0.000007
    22  H   -0.000110   0.000046   0.042506  -0.007015  -0.004990   0.220695
    23  H    0.000070   0.000076   0.084340   0.227840  -0.007106   0.006029
    24  H    0.000045  -0.000148   0.034100   0.006932   0.246706  -0.007621
    25  H   -0.000482   0.057674  -0.000250  -0.000000  -0.000000  -0.000000
    26  H   -0.000346   0.047186  -0.000023   0.000000   0.000000  -0.000000
    27  H    0.002441   0.072127   0.000062   0.000000  -0.000000  -0.000000
    28  H    0.057314  -0.000084  -0.000111  -0.000000  -0.000000  -0.000001
    29  H    0.047875   0.021607  -0.000031   0.000000   0.000000  -0.000000
    30  H    0.039741   0.000001   0.000019   0.000000   0.000000   0.000000
    31  H    0.000164  -0.001635  -0.000049   0.000000  -0.000000   0.000000
    32  H   -0.000599   0.000041   0.000064  -0.000000   0.000000   0.000000
    33  H    0.020748   0.000185   0.000070  -0.000000   0.000000   0.000000
              13         14         15         16         17         18
     1  Zr  -0.035351  -0.000851  -0.084391  -0.129511  -0.026438  -0.007937
     2  O    0.184281   0.272914   0.295807   0.004735  -0.041314  -0.014739
     3  O    0.001896  -0.015468  -0.000809  -0.000547   0.009222   0.003901
     4  O   -0.016233  -0.007067   0.001351   0.345278   0.224305   0.196428
     5  O   -0.000088   0.003401   0.000442   0.003135   0.001874  -0.000235
     6  Si   0.039626   0.021832  -0.000977  -0.417311  -0.496333  -0.462525
     7  Si   0.007316   0.002764  -0.003063   0.004231  -0.007636  -0.000897
     8  Si  -0.098452  -0.392875  -0.305766  -0.010186   0.084845   0.071653
     9  Si   0.000483  -0.001907  -0.001042  -0.000741   0.001426   0.004063
    10  O    0.000001  -0.000003  -0.000001  -0.000002  -0.000004  -0.000006
    11  O    0.000028  -0.000002  -0.000022   0.000000   0.000002   0.000005
    12  O    0.000002   0.000007   0.000000  -0.000003  -0.000005  -0.000001
    13  O    8.625861   0.088215  -0.088870   0.003783  -0.030808  -0.045985
    14  O    0.088215   8.680283   0.055465   0.003809  -0.035904  -0.026438
    15  O   -0.088870   0.055465   8.778031  -0.000178   0.003471   0.001755
    16  O    0.003783   0.003809  -0.000178   8.899651  -0.091199  -0.114423
    17  O   -0.030808  -0.035904   0.003471  -0.091199   8.937807   0.228499
    18  O   -0.045985  -0.026438   0.001755  -0.114423   0.228499   9.012202
    19  O    0.000146  -0.000404   0.000148  -0.001520  -0.030758   0.000094
    20  O    0.000008   0.000050   0.000042   0.000071  -0.000823   0.000011
    21  O   -0.000259   0.014775  -0.000610  -0.000220  -0.005324   0.000489
    22  H    0.000000  -0.000000  -0.000000   0.000000   0.000000  -0.000000
    23  H    0.000000   0.000000  -0.000000  -0.000000   0.000000  -0.000000
    24  H   -0.000001   0.000000   0.000003   0.000000  -0.000000  -0.000000
    25  H    0.218759  -0.012150   0.008829  -0.000055   0.000680   0.015284
    26  H   -0.004992  -0.010052   0.216904   0.000000  -0.000001   0.000008
    27  H   -0.009726   0.219720   0.004716   0.000160   0.018450  -0.000253
    28  H    0.000000  -0.000005  -0.000001  -0.000000   0.000004  -0.000000
    29  H    0.000803   0.017477  -0.002574  -0.000004  -0.000419   0.000004
    30  H    0.000001  -0.000019   0.000000   0.000114  -0.000496  -0.000006
    31  H    0.002393   0.000163  -0.000018   0.003812  -0.000821   0.218514
    32  H   -0.000008  -0.000006   0.000000   0.233326  -0.003666   0.003888
    33  H    0.000206   0.002031  -0.000032   0.000073   0.231636   0.002054
              19         20         21         22         23         24
     1  Zr   0.002717  -0.152055   0.032597  -0.004532  -0.008908  -0.004632
     2  O    0.008885  -0.000519   0.010079  -0.000015  -0.000012  -0.000296
     3  O    0.262178   0.177579   0.144236  -0.000023  -0.000001  -0.000022
     4  O    0.009040  -0.000864   0.003150  -0.000008  -0.000035   0.000004
     5  O    0.002430   0.002208   0.000138   0.006001  -0.025291  -0.006045
     6  Si  -0.004726   0.008741  -0.008661   0.000041   0.000055   0.000116
     7  Si  -0.407431  -0.125038   0.027579  -0.000110   0.000070   0.000045
     8  Si  -0.014093   0.009427  -0.036338   0.000046   0.000076  -0.000148
     9  Si   0.000957   0.002536  -0.001302   0.042506   0.084340   0.034100
    10  O    0.000003   0.000001   0.000001  -0.007015   0.227840   0.006932
    11  O   -0.000004  -0.000002  -0.000001  -0.004990  -0.007106   0.246706
    12  O   -0.000013  -0.000022   0.000007   0.220695   0.006029  -0.007621
    13  O    0.000146   0.000008  -0.000259   0.000000   0.000000  -0.000001
    14  O   -0.000404   0.000050   0.014775  -0.000000   0.000000   0.000000
    15  O    0.000148   0.000042  -0.000610  -0.000000  -0.000000   0.000003
    16  O   -0.001520   0.000071  -0.000220   0.000000  -0.000000   0.000000
    17  O   -0.030758  -0.000823  -0.005324   0.000000   0.000000  -0.000000
    18  O    0.000094   0.000011   0.000489  -0.000000  -0.000000  -0.000000
    19  O    8.868208   0.034058   0.020992   0.000000   0.000000  -0.000000
    20  O    0.034058   8.664371  -0.049750   0.000000   0.000000  -0.000000
    21  O    0.020992  -0.049750   8.479768  -0.000000   0.000000   0.000000
    22  H    0.000000   0.000000  -0.000000   0.364606   0.000065   0.000123
    23  H    0.000000   0.000000   0.000000   0.000065   0.351239   0.000017
    24  H   -0.000000  -0.000000   0.000000   0.000123   0.000017   0.364529
    25  H   -0.000024   0.000000  -0.000021   0.000000   0.000000   0.000000
    26  H    0.000001  -0.000000   0.000042  -0.000000  -0.000000  -0.000000
    27  H    0.000109   0.000184  -0.003876  -0.000000  -0.000000   0.000000
    28  H    0.004552   0.229620  -0.002179  -0.000000   0.000000   0.000000
    29  H   -0.008576   0.007608   0.206521   0.000000   0.000000  -0.000000
    30  H    0.224348  -0.001536  -0.007068   0.000000   0.000000  -0.000000
    31  H    0.000005  -0.000000  -0.000000  -0.000000  -0.000000   0.000000
    32  H    0.000105  -0.000000   0.000001  -0.000000   0.000000   0.000000
    33  H    0.015089  -0.000119   0.001526  -0.000000  -0.000000  -0.000000
              25         26         27         28         29         30
     1  Zr   0.017135   0.005993  -0.004710   0.005480   0.005140   0.001445
     2  O   -0.020011   0.000548  -0.018987  -0.000011  -0.007177  -0.000015
     3  O   -0.000119   0.000015   0.000675  -0.018959  -0.020638   0.000020
     4  O   -0.000123  -0.000012  -0.001831  -0.000013  -0.000160  -0.000453
     5  O    0.000003  -0.000004  -0.000007  -0.000017  -0.000094  -0.000011
     6  Si   0.001648  -0.000003   0.011916  -0.000256   0.000262  -0.000835
     7  Si  -0.000482  -0.000346   0.002441   0.057314   0.047875   0.039741
     8  Si   0.057674   0.047186   0.072127  -0.000084   0.021607   0.000001
     9  Si  -0.000250  -0.000023   0.000062  -0.000111  -0.000031   0.000019
    10  O   -0.000000   0.000000   0.000000  -0.000000   0.000000   0.000000
    11  O   -0.000000   0.000000  -0.000000  -0.000000   0.000000   0.000000
    12  O   -0.000000  -0.000000  -0.000000  -0.000001  -0.000000   0.000000
    13  O    0.218759  -0.004992  -0.009726   0.000000   0.000803   0.000001
    14  O   -0.012150  -0.010052   0.219720  -0.000005   0.017477  -0.000019
    15  O    0.008829   0.216904   0.004716  -0.000001  -0.002574   0.000000
    16  O   -0.000055   0.000000   0.000160  -0.000000  -0.000004   0.000114
    17  O    0.000680  -0.000001   0.018450   0.000004  -0.000419  -0.000496
    18  O    0.015284   0.000008  -0.000253  -0.000000   0.000004  -0.000006
    19  O   -0.000024   0.000001   0.000109   0.004552  -0.008576   0.224348
    20  O    0.000000  -0.000000   0.000184   0.229620   0.007608  -0.001536
    21  O   -0.000021   0.000042  -0.003876  -0.002179   0.206521  -0.007068
    22  H    0.000000  -0.000000  -0.000000  -0.000000   0.000000   0.000000
    23  H    0.000000  -0.000000  -0.000000   0.000000   0.000000   0.000000
    24  H    0.000000  -0.000000   0.000000   0.000000  -0.000000  -0.000000
    25  H    0.298605  -0.000014   0.000131   0.000000   0.000001   0.000000
    26  H   -0.000014   0.365664   0.000034   0.000000   0.000022  -0.000000
    27  H    0.000131   0.000034   0.283014  -0.000000  -0.001509   0.000011
    28  H    0.000000   0.000000  -0.000000   0.348791  -0.000016  -0.000016
    29  H    0.000001   0.000022  -0.001509  -0.000016   0.286077   0.000156
    30  H    0.000000  -0.000000   0.000011  -0.000016   0.000156   0.334003
    31  H   -0.000522   0.000000   0.000013  -0.000000   0.000000  -0.000000
    32  H   -0.000001   0.000000  -0.000000   0.000000  -0.000000  -0.000000
    33  H    0.000007  -0.000000  -0.002460  -0.000002   0.000093  -0.001147
              31         32         33
     1  Zr  -0.001498   0.001926  -0.015972
     2  O    0.000199  -0.000021   0.000986
     3  O   -0.000018   0.000043  -0.010164
     4  O   -0.018562   0.010247  -0.008961
     5  O   -0.000008   0.000003  -0.000114
     6  Si   0.064477   0.023097   0.052117
     7  Si   0.000164  -0.000599   0.020748
     8  Si  -0.001635   0.000041   0.000185
     9  Si  -0.000049   0.000064   0.000070
    10  O    0.000000  -0.000000  -0.000000
    11  O   -0.000000   0.000000   0.000000
    12  O    0.000000   0.000000   0.000000
    13  O    0.002393  -0.000008   0.000206
    14  O    0.000163  -0.000006   0.002031
    15  O   -0.000018   0.000000  -0.000032
    16  O    0.003812   0.233326   0.000073
    17  O   -0.000821  -0.003666   0.231636
    18  O    0.218514   0.003888   0.002054
    19  O    0.000005   0.000105   0.015089
    20  O   -0.000000  -0.000000  -0.000119
    21  O   -0.000000   0.000001   0.001526
    22  H   -0.000000  -0.000000  -0.000000
    23  H   -0.000000   0.000000  -0.000000
    24  H    0.000000   0.000000  -0.000000
    25  H   -0.000522  -0.000001   0.000007
    26  H    0.000000   0.000000  -0.000000
    27  H    0.000013  -0.000000  -0.002460
    28  H   -0.000000   0.000000  -0.000002
    29  H    0.000000  -0.000000   0.000093
    30  H   -0.000000  -0.000000  -0.001147
    31  H    0.331368   0.000002  -0.000038
    32  H    0.000002   0.349917   0.000154
    33  H   -0.000038   0.000154   0.269035
 Mulliken charges:
               1
     1  Zr   0.031169
     2  O   -0.541695
     3  O   -0.419085
     4  O   -0.690696
     5  O   -0.383268
     6  Si   2.235648
     7  Si   1.800755
     8  Si   2.011175
     9  Si   1.582289
    10  O   -0.831969
    11  O   -0.783611
    12  O   -0.804584
    13  O   -0.843037
    14  O   -0.879752
    15  O   -0.878608
    16  O   -0.736279
    17  O   -0.970274
    18  O   -1.085407
    19  O   -0.986516
    20  O   -0.805786
    21  O   -0.826292
    22  H    0.382611
    23  H    0.371621
    24  H    0.366189
    25  H    0.415018
    26  H    0.379033
    27  H    0.429597
    28  H    0.375912
    29  H    0.447553
    30  H    0.411743
    31  H    0.402061
    32  H    0.381486
    33  H    0.443001
 Sum of Mulliken charges =  -0.00000
 Mulliken charges with hydrogens summed into heavy atoms:
               1
     1  Zr   0.031169
     2  O   -0.541695
     3  O   -0.419085
     4  O   -0.690696
     5  O   -0.383268
     6  Si   2.235648
     7  Si   1.800755
     8  Si   2.011175
     9  Si   1.582289
    10  O   -0.460347
    11  O   -0.417422
    12  O   -0.421973
    13  O   -0.428019
    14  O   -0.450156
    15  O   -0.499575
    16  O   -0.354793
    17  O   -0.527273
    18  O   -0.683346
    19  O   -0.574773
    20  O   -0.429874
    21  O   -0.378740
 Electronic spatial extent (au):  <R**2>=           9921.8557
 Charge=             -0.0000 electrons
 Dipole moment (field-independent basis, Debye):
    X=              0.9411    Y=             -0.9036    Z=             -2.4450  Tot=              2.7713
 Quadrupole moment (field-independent basis, Debye-Ang):
   XX=           -160.1185   YY=           -155.8895   ZZ=           -157.8888
   XY=             -6.3279   XZ=              1.6326   YZ=              5.4718
 Traceless Quadrupole moment (field-independent basis, Debye-Ang):
   XX=             -2.1529   YY=              2.0761   ZZ=              0.0768
   XY=             -6.3279   XZ=              1.6326   YZ=              5.4718
 Octapole moment (field-independent basis, Debye-Ang**2):
  XXX=             71.8878  YYY=              6.2228  ZZZ=            -18.4584  XYY=             -3.9612
  XXY=             23.0393  XXZ=             17.5732  XZZ=              4.8253  YZZ=            -16.4696
  YYZ=            -12.7312  XYZ=             30.5203
 Hexadecapole moment (field-independent basis, Debye-Ang**3):
 XXXX=          -5980.1797 YYYY=          -2865.8074 ZZZZ=          -2272.7391 XXXY=             57.5772
 XXXZ=             21.9384 YYYX=            -19.6702 YYYZ=            240.3056 ZZZX=           -180.2236
 ZZZY=            -71.0274 XXYY=          -1519.7705 XXZZ=          -1372.3648 YYZZ=           -931.8782
 XXYZ=            -30.4936 YYXZ=             89.7057 ZZXY=            -61.1081
 N-N= 2.829258474904D+03 E-N=-1.137103158240D+04  KE= 2.373151053030D+03
 PrsmSu:  requested number of processors reduced to:   2 ShMem   1 Linda.
 PrsmSu:  requested number of processors reduced to:  10 ShMem   1 Linda.
   1 Symmetry operations used in ECPInt.
 ECPInt:  NShTT=   13203 NPrTT=   78401 LenC2=   11524 LenP2D=   44610.
 LDataN:  DoStor=T MaxTD1= 9 Len=  602
 Number of processors reduced to  14 by ecpmxn.
 Calling FoFJK, ICntrl=      2127 FMM=F ISym2X=0 I1Cent= 0 IOpClX= 0 NMat=1 NMatS=1 NMatT=0.
 CoulSu:  requested number of processors reduced to:  10 ShMem   1 Linda.
 Defaulting to unpruned grid for atomic number  40.
 Defaulting to unpruned grid for atomic number  40.
 Defaulting to unpruned grid for atomic number  40.
 Defaulting to unpruned grid for atomic number  40.
 Defaulting to unpruned grid for atomic number  40.
 Defaulting to unpruned grid for atomic number  40.
 Defaulting to unpruned grid for atomic number  40.
 Defaulting to unpruned grid for atomic number  40.
 Defaulting to unpruned grid for atomic number  40.
 Defaulting to unpruned grid for atomic number  40.
 Defaulting to unpruned grid for atomic number  40.
 Defaulting to unpruned grid for atomic number  40.
 Defaulting to unpruned grid for atomic number  40.
 Defaulting to unpruned grid for atomic number  40.
 Defaulting to unpruned grid for atomic number  40.
 Defaulting to unpruned grid for atomic number  40.
 ***** Axes restored to original set *****
 -------------------------------------------------------------------
 Center     Atomic                   Forces (Hartrees/Bohr)
 Number     Number              X              Y              Z
 -------------------------------------------------------------------
      1       40           0.001176485   -0.000324477   -0.000071265
      2        8           0.000143510   -0.000066571   -0.000146815
      3        8          -0.000095274    0.000392063    0.000022319
      4        8           0.000106216    0.000008516    0.000235294
      5        8          -0.000990823   -0.000792689   -0.000261860
      6       14          -0.000201528    0.000022776   -0.000097293
      7       14          -0.000013848    0.000028308   -0.000046670
      8       14          -0.000196207    0.000020098    0.000133646
      9       14          -0.000206113    0.001917482    0.000548704
     10        8          -0.000055516   -0.000245204   -0.000135427
     11        8          -0.000083356   -0.000434951   -0.000058281
     12        8          -0.000009799   -0.000437161   -0.000168725
     13        8           0.000061791    0.000006722   -0.000018153
     14        8           0.000097329   -0.000051181   -0.000025412
     15        8           0.000032956   -0.000018857   -0.000073815
     16        8           0.000042493   -0.000010076    0.000044462
     17        8           0.000070031   -0.000042844   -0.000014723
     18        8           0.000051495    0.000008245    0.000024385
     19        8           0.000021784   -0.000017720    0.000026254
     20        8           0.000025517   -0.000039291    0.000022037
     21        8           0.000012535   -0.000010075    0.000012250
     22        1          -0.000034750   -0.000106881   -0.000063964
     23        1           0.000054180    0.000009089    0.000005050
     24        1           0.000102528    0.000044900    0.000137600
     25        1          -0.000014635   -0.000002214    0.000000166
     26        1          -0.000006994    0.000007566    0.000017612
     27        1          -0.000008411    0.000018629   -0.000021205
     28        1          -0.000016898    0.000030725   -0.000002096
     29        1          -0.000019748    0.000051279    0.000030127
     30        1          -0.000000683    0.000004896   -0.000007486
     31        1          -0.000017304   -0.000011065   -0.000009665
     32        1          -0.000013567    0.000009182   -0.000020426
     33        1          -0.000013394    0.000030778   -0.000016624
 -------------------------------------------------------------------
 Cartesian Forces:  Max     0.001917482 RMS     0.000287526

 GradGradGradGradGradGradGradGradGradGradGradGradGradGradGradGradGradGrad
 Berny optimization.
 FormGI is forming the generalized inverse of G from B-inverse, IUseBI=4.
 Internal  Forces:  Max     0.001199582 RMS     0.000181970
 Search for a local minimum.
 Step number   1 out of a maximum of  151
 All quantities printed in internal units (Hartrees-Bohrs-Radians)
 Mixed Optimization -- En-DIIS/RFO-DIIS
 Second derivative matrix not updated -- first step.
 ITU=  0
     Eigenvalues ---    0.00230   0.00230   0.00230   0.00230   0.00230
     Eigenvalues ---    0.03240   0.03358   0.03498   0.03580   0.03665
     Eigenvalues ---    0.03665   0.03680   0.03686   0.03693   0.03739
     Eigenvalues ---    0.03789   0.03792   0.03816   0.03834   0.03850
     Eigenvalues ---    0.06033   0.06610   0.07445   0.11077   0.11224
     Eigenvalues ---    0.11833   0.11884   0.12133   0.12177   0.12239
     Eigenvalues ---    0.12750   0.12895   0.13003   0.13099   0.13313
     Eigenvalues ---    0.16000   0.16000   0.16000   0.16000   0.16000
     Eigenvalues ---    0.16000   0.16000   0.16000   0.16000   0.16000
     Eigenvalues ---    0.16000   0.16000   0.19067   0.19173   0.19488
     Eigenvalues ---    0.20203   0.20203   0.20208   0.20472   0.20515
     Eigenvalues ---    0.20653   0.20795   0.20989   0.21175   0.21186
     Eigenvalues ---    0.21405   0.25000   0.25000   0.25000   0.38002
     Eigenvalues ---    0.39187   0.40659   0.41546   0.42502   0.42508
     Eigenvalues ---    0.42672   0.42743   0.42824   0.43363   0.43951
     Eigenvalues ---    0.43980   0.44273   0.44485   0.44689   0.44768
     Eigenvalues ---    0.50655   0.51353   0.52036   0.52548   0.54334
     Eigenvalues ---    0.54624   0.54642   0.54649   0.54689   0.54693
     Eigenvalues ---    0.54711   0.547651000.000001000.000001000.00000
     Eigenvalues --- 1000.000001000.000001000.000001000.000001000.00000
     Eigenvalues --- 1000.000001000.000001000.000001000.000001000.00000
     Eigenvalues --- 1000.000001000.000001000.000001000.000001000.00000
     Eigenvalues --- 1000.000001000.000001000.000001000.000001000.00000
     Eigenvalues --- 1000.000001000.000001000.000001000.000001000.00000
     Eigenvalues --- 1000.000001000.000001000.000001000.000001000.00000
     Eigenvalues --- 1000.000001000.000001000.000001000.000001000.00000
     Eigenvalues --- 1000.000001000.000001000.000001000.000001000.00000
     Eigenvalues --- 1000.000001000.000001000.000001000.000001000.00000
     Eigenvalues --- 1000.00000
 RFO step:  Lambda=-3.17708262D-05 EMin= 2.30000000D-03
 Linear search not attempted -- first point.
 Iteration  1 RMS(Cart)=  0.04867310 RMS(Int)=  0.00215245
 Iteration  2 RMS(Cart)=  0.01273053 RMS(Int)=  0.00082443
 Iteration  3 RMS(Cart)=  0.00027202 RMS(Int)=  0.00082314
 Iteration  4 RMS(Cart)=  0.00005690 RMS(Int)=  0.00082313
 Iteration  5 RMS(Cart)=  0.00001175 RMS(Int)=  0.00082313
 Iteration  6 RMS(Cart)=  0.00000243 RMS(Int)=  0.00082313
 Iteration  7 RMS(Cart)=  0.00000050 RMS(Int)=  0.00082313
 Iteration  1 RMS(Cart)=  0.00196881 RMS(Int)=  0.00010238
 Iteration  2 RMS(Cart)=  0.00024588 RMS(Int)=  0.00010784
 Iteration  3 RMS(Cart)=  0.00003077 RMS(Int)=  0.00010925
 Iteration  4 RMS(Cart)=  0.00000385 RMS(Int)=  0.00010943
 Iteration  5 RMS(Cart)=  0.00000048 RMS(Int)=  0.00010946
 Variable       Old X    -DE/DX   Delta X   Delta X   Delta X     New X
                                 (Linear)    (Quad)   (Total)
    R1        3.67647  -0.00012   0.00000  -0.00058  -0.00058   3.67589
    R2        3.69189   0.00045   0.00000   0.00217   0.00217   3.69407
    R3        3.73835  -0.00013   0.00000  -0.00068  -0.00068   3.73767
    R4        3.70232  -0.00120   0.00000  -0.00594  -0.00595   3.69637
    R5        3.11688   0.00004   0.00000   0.00009   0.00009   3.11697
    R6        3.09579   0.00002   0.00000   0.00006   0.00006   3.09585
    R7        3.10213   0.00010   0.00000   0.00022   0.00022   3.10235
    R8        3.09245  -0.00029   0.00000  -0.00064  -0.00061   3.09184
    R9        3.11587  -0.00003   0.00000  -0.00006  -0.00006   3.11581
   R10        3.11989  -0.00005   0.00000  -0.00013  -0.00013   3.11977
   R11        3.14367  -0.00000   0.00000  -0.00001  -0.00001   3.14366
   R12        3.18062  -0.00003   0.00000  -0.00007  -0.00007   3.18055
   R13        3.10924  -0.00001   0.00000  -0.00002  -0.00002   3.10922
   R14        3.09339   0.00004   0.00000   0.00009   0.00009   3.09347
   R15        3.10179  -0.00002   0.00000  -0.00004  -0.00004   3.10175
   R16        3.16373  -0.00006   0.00000  -0.00016  -0.00015   3.16358
   R17        3.09830  -0.00006   0.00000  -0.00013  -0.00013   3.09817
   R18        3.11981   0.00011   0.00000   0.00026   0.00027   3.12008
   R19        3.13205   0.00038   0.00000   0.00091   0.00092   3.13297
   R20        3.11777  -0.00057   0.00000  -0.00134  -0.00133   3.11643
   R21        1.82152   0.00000   0.00000   0.00000   0.00000   1.82152
   R22        1.82106   0.00005   0.00000   0.00009   0.00010   1.82115
   R23        1.82090  -0.00005   0.00000  -0.00010  -0.00009   1.82081
   R24        1.84078   0.00000   0.00000   0.00000   0.00000   1.84079
   R25        1.84565   0.00002   0.00000   0.00004   0.00004   1.84568
   R26        1.82041   0.00001   0.00000   0.00003   0.00003   1.82044
   R27        1.82109   0.00000   0.00000   0.00001   0.00001   1.82110
   R28        1.85910   0.00003   0.00000   0.00006   0.00006   1.85917
   R29        1.82145   0.00001   0.00000   0.00002   0.00002   1.82148
   R30        1.82428   0.00001   0.00000   0.00001   0.00001   1.82430
   R31        1.82168   0.00001   0.00000   0.00003   0.00003   1.82170
   R32        1.85224  -0.00003   0.00000  -0.00006  -0.00006   1.85217
    A1        1.85172   0.00020   0.00000   0.00062   0.00063   1.85235
    A2        1.80155  -0.00026   0.00000  -0.00076   0.00241   1.80397
    A3        1.96889  -0.00007   0.00000  -0.00071   0.00018   1.96907
    A4        1.83430   0.00019   0.00000   0.00117  -0.00203   1.83227
    A5        2.01802  -0.00014   0.00000  -0.00077  -0.00159   2.01643
    A6        1.97057   0.00008   0.00000   0.00055   0.00070   1.97127
    A7        2.46524  -0.00011   0.00000  -0.00044  -0.00044   2.46480
[...]
 Alpha virt. eigenvalues --    3.13657   3.20074   3.35854   3.41054   3.47057
 Alpha virt. eigenvalues --    3.47966   3.48333   3.48576   3.51079   3.51127
 Alpha virt. eigenvalues --    3.53214   3.54478   3.60293   3.61056   3.62077
 Alpha virt. eigenvalues --    3.66110   4.25394   4.56616   7.96439  31.33378
          Condensed to atoms (all electrons):
               1          2          3          4          5          6
     1  Zr  14.800932  -0.115597  -0.025309  -0.075706  -0.197558  -0.570444
     2  O   -0.115597   9.088748   0.023169  -0.043321  -0.059244   0.087703
     3  O   -0.025309   0.023169   8.885843   0.016305  -0.052405  -0.001029
     4  O   -0.075706  -0.043321   0.016305   8.834462  -0.050591  -0.742906
     5  O   -0.197558  -0.059244  -0.052405  -0.050591   9.518813  -0.012621
     6  Si  -0.570444   0.087703  -0.001029  -0.742906  -0.012621  14.087290
     7  Si  -0.570080  -0.031733  -0.904245  -0.010057  -0.039190   0.077878
     8  Si  -0.531012  -1.046247  -0.013232   0.057209  -0.023267  -0.017540
     9  Si  -0.275705  -0.052740  -0.051305  -0.044003  -1.317554   0.026241
    10  O   -0.003532   0.001470  -0.000699   0.002051   0.143033  -0.001462
    11  O   -0.033663   0.003460   0.002518   0.000668   0.294433  -0.001541
    12  O    0.019525   0.000485   0.004558   0.002171   0.174734  -0.002114
    13  O   -0.046531   0.186979   0.001912  -0.016140  -0.000088   0.042165
    14  O   -0.011961   0.277203  -0.015092  -0.007311   0.003617   0.024760
    15  O   -0.079752   0.294940  -0.000945   0.001360   0.000395  -0.001946
    16  O   -0.133459   0.004610  -0.000601   0.345711   0.003039  -0.413308
    17  O   -0.029009  -0.040939   0.008811   0.228373   0.001865  -0.501125
    18  O   -0.012078  -0.013991   0.003866   0.199169  -0.000188  -0.465565
    19  O   -0.002240   0.009144   0.260308   0.009007   0.002500  -0.003490
    20  O   -0.153041  -0.000517   0.176603  -0.000887   0.002173   0.008671
    21  O    0.030342   0.010586   0.145031   0.003042   0.000173  -0.008311
    22  H   -0.004755  -0.000016  -0.000029  -0.000009   0.006270   0.000037
    23  H   -0.009048  -0.000013  -0.000003  -0.000030  -0.025111   0.000039
    24  H   -0.004608  -0.000337  -0.000018   0.000001  -0.007136   0.000073
    25  H    0.018481  -0.020270  -0.000120  -0.000113   0.000003   0.001146
    26  H    0.005944   0.000486   0.000017  -0.000013  -0.000004   0.000016
    27  H   -0.002348  -0.019336   0.000649  -0.001886  -0.000010   0.011288
    28  H    0.005670  -0.000011  -0.018933  -0.000014  -0.000017  -0.000267
    29  H    0.005677  -0.007155  -0.020687  -0.000156  -0.000096   0.000216
    30  H    0.001423  -0.000015   0.000119  -0.000448  -0.000011  -0.000838
    31  H   -0.001410   0.000194  -0.000017  -0.018619  -0.000007   0.064569
    32  H    0.001769  -0.000020   0.000041   0.010130   0.000004   0.023401
    33  H   -0.016188   0.000940  -0.010067  -0.008914  -0.000118   0.052349
               7          8          9         10         11         12
     1  Zr  -0.570080  -0.531012  -0.275705  -0.003532  -0.033663   0.019525
     2  O   -0.031733  -1.046247  -0.052740   0.001470   0.003460   0.000485
     3  O   -0.904245  -0.013232  -0.051305  -0.000699   0.002518   0.004558
     4  O   -0.010057   0.057209  -0.044003   0.002051   0.000668   0.002171
     5  O   -0.039190  -0.023267  -1.317554   0.143033   0.294433   0.174734
     6  Si   0.077878  -0.017540   0.026241  -0.001462  -0.001541  -0.002114
     7  Si  13.811193   0.177290   0.019856  -0.000699  -0.001107   0.003219
     8  Si   0.177290  13.856122   0.022403  -0.000722   0.000556  -0.000170
     9  Si   0.019856   0.022403  14.423805  -0.119944  -0.175452  -0.192406
    10  O   -0.000699  -0.000722  -0.119944   8.528209   0.037124   0.020385
    11  O   -0.001107   0.000556  -0.175452   0.037124   8.469805  -0.046020
    12  O    0.003219  -0.000170  -0.192406   0.020385  -0.046020   8.593869
    13  O    0.007811  -0.096624   0.000595   0.000000   0.000029   0.000004
    14  O    0.003670  -0.393901  -0.001953  -0.000003  -0.000002   0.000006
    15  O   -0.003437  -0.307687  -0.001122  -0.000000  -0.000028  -0.000005
    16  O    0.004498  -0.009465  -0.000778  -0.000006   0.000003  -0.000003
    17  O   -0.008124   0.086060   0.001472  -0.000005  -0.000001  -0.000004
    18  O   -0.000711   0.071115   0.004302  -0.000008  -0.000003  -0.000002
    19  O   -0.403610  -0.013542   0.001003   0.000004  -0.000004  -0.000010
    20  O   -0.120343   0.009474   0.002597  -0.000001  -0.000002  -0.000012
    21  O    0.026244  -0.036201  -0.001414   0.000001  -0.000001   0.000008
    22  H   -0.000142   0.000043   0.042243  -0.007167  -0.005223   0.221448
    23  H    0.000064   0.000087   0.084342   0.228119  -0.007242   0.005997
    24  H    0.000065  -0.000177   0.035715   0.007019   0.246907  -0.007859
    25  H   -0.000515   0.057794  -0.000257  -0.000000  -0.000000  -0.000000
    26  H   -0.000328   0.047141  -0.000023   0.000000   0.000000  -0.000000
    27  H    0.002272   0.071537   0.000056   0.000000  -0.000000  -0.000000
    28  H    0.057058  -0.000107  -0.000105  -0.000000  -0.000000  -0.000001
    29  H    0.047704   0.021174  -0.000024   0.000000   0.000000  -0.000000
    30  H    0.039740  -0.000014   0.000022   0.000000  -0.000000   0.000000
    31  H    0.000167  -0.001628  -0.000051   0.000000  -0.000000   0.000000
    32  H   -0.000584   0.000055   0.000051  -0.000000   0.000000   0.000000
    33  H    0.020623   0.000189   0.000074  -0.000000   0.000000   0.000000
              13         14         15         16         17         18
     1  Zr  -0.046531  -0.011961  -0.079752  -0.133459  -0.029009  -0.012078
     2  O    0.186979   0.277203   0.294940   0.004610  -0.040939  -0.013991
     3  O    0.001912  -0.015092  -0.000945  -0.000601   0.008811   0.003866
     4  O   -0.016140  -0.007311   0.001360   0.345711   0.228373   0.199169
     5  O   -0.000088   0.003617   0.000395   0.003039   0.001865  -0.000188
     6  Si   0.042165   0.024760  -0.001946  -0.413308  -0.501125  -0.465565
     7  Si   0.007811   0.003670  -0.003437   0.004498  -0.008124  -0.000711
     8  Si  -0.096624  -0.393901  -0.307687  -0.009465   0.086060   0.071115
     9  Si   0.000595  -0.001953  -0.001122  -0.000778   0.001472   0.004302
    10  O    0.000000  -0.000003  -0.000000  -0.000006  -0.000005  -0.000008
    11  O    0.000029  -0.000002  -0.000028   0.000003  -0.000001  -0.000003
    12  O    0.000004   0.000006  -0.000005  -0.000003  -0.000004  -0.000002
    13  O    8.629373   0.088643  -0.090096   0.003759  -0.030763  -0.045492
    14  O    0.088643   8.685260   0.055834   0.003781  -0.036093  -0.026426
    15  O   -0.090096   0.055834   8.778640  -0.000179   0.003502   0.001733
    16  O    0.003759   0.003781  -0.000179   8.898673  -0.090910  -0.114793
    17  O   -0.030763  -0.036093   0.003502  -0.090910   8.938166   0.229486
    18  O   -0.045492  -0.026426   0.001733  -0.114793   0.229486   9.015152
    19  O    0.000163  -0.000107   0.000144  -0.001593  -0.030877   0.000144
    20  O    0.000008   0.000040   0.000042   0.000068  -0.000838   0.000011
    21  O   -0.000269   0.015459  -0.000567  -0.000216  -0.005281   0.000476
    22  H    0.000000   0.000000  -0.000000   0.000000   0.000000  -0.000000
    23  H    0.000000   0.000000  -0.000000  -0.000000   0.000000  -0.000000
    24  H   -0.000001   0.000000   0.000003   0.000000  -0.000000  -0.000000
    25  H    0.218254  -0.012175   0.008855  -0.000044   0.000659   0.015084
    26  H   -0.004991  -0.010030   0.217084   0.000000  -0.000002   0.000007
    27  H   -0.009827   0.219281   0.004669   0.000173   0.018597  -0.000284
    28  H   -0.000000  -0.000004  -0.000001  -0.000000   0.000004  -0.000000
    29  H    0.000791   0.017481  -0.002554  -0.000004  -0.000425   0.000004
    30  H    0.000001  -0.000026   0.000000   0.000117  -0.000497  -0.000006
    31  H    0.002384   0.000162  -0.000018   0.003878  -0.000895   0.218292
    32  H   -0.000007  -0.000006   0.000000   0.233375  -0.003686   0.003914
    33  H    0.000204   0.002001  -0.000032   0.000021   0.231858   0.002074
              19         20         21         22         23         24
     1  Zr  -0.002240  -0.153041   0.030342  -0.004755  -0.009048  -0.004608
     2  O    0.009144  -0.000517   0.010586  -0.000016  -0.000013  -0.000337
     3  O    0.260308   0.176603   0.145031  -0.000029  -0.000003  -0.000018
     4  O    0.009007  -0.000887   0.003042  -0.000009  -0.000030   0.000001
     5  O    0.002500   0.002173   0.000173   0.006270  -0.025111  -0.007136
     6  Si  -0.003490   0.008671  -0.008311   0.000037   0.000039   0.000073
     7  Si  -0.403610  -0.120343   0.026244  -0.000142   0.000064   0.000065
     8  Si  -0.013542   0.009474  -0.036201   0.000043   0.000087  -0.000177
     9  Si   0.001003   0.002597  -0.001414   0.042243   0.084342   0.035715
    10  O    0.000004  -0.000001   0.000001  -0.007167   0.228119   0.007019
    11  O   -0.000004  -0.000002  -0.000001  -0.005223  -0.007242   0.246907
    12  O   -0.000010  -0.000012   0.000008   0.221448   0.005997  -0.007859
    13  O    0.000163   0.000008  -0.000269   0.000000   0.000000  -0.000001
    14  O   -0.000107   0.000040   0.015459   0.000000   0.000000   0.000000
    15  O    0.000144   0.000042  -0.000567  -0.000000  -0.000000   0.000003
    16  O   -0.001593   0.000068  -0.000216   0.000000  -0.000000   0.000000
    17  O   -0.030877  -0.000838  -0.005281   0.000000   0.000000  -0.000000
    18  O    0.000144   0.000011   0.000476  -0.000000  -0.000000  -0.000000
    19  O    8.868299   0.033680   0.021738   0.000000   0.000000  -0.000000
    20  O    0.033680   8.662341  -0.050066   0.000000  -0.000000  -0.000000
    21  O    0.021738  -0.050066   8.481554  -0.000000   0.000000   0.000000
    22  H    0.000000   0.000000  -0.000000   0.364296   0.000068   0.000129
    23  H    0.000000  -0.000000   0.000000   0.000068   0.350452   0.000011
    24  H   -0.000000  -0.000000   0.000000   0.000129   0.000011   0.364006
    25  H   -0.000025   0.000000  -0.000021   0.000000   0.000000   0.000000
    26  H    0.000001  -0.000000   0.000043  -0.000000  -0.000000  -0.000000
    27  H    0.000114   0.000185  -0.003930  -0.000000  -0.000000   0.000000
    28  H    0.004500   0.229577  -0.002125  -0.000000   0.000000   0.000000
    29  H   -0.008621   0.007646   0.206674   0.000000   0.000000  -0.000000
    30  H    0.224214  -0.001457  -0.007074   0.000000   0.000000  -0.000000
    31  H    0.000004  -0.000000  -0.000000  -0.000000  -0.000000   0.000000
    32  H    0.000107  -0.000000   0.000001  -0.000000   0.000000  -0.000000
    33  H    0.015071  -0.000112   0.001501  -0.000000  -0.000000  -0.000000
              25         26         27         28         29         30
     1  Zr   0.018481   0.005944  -0.002348   0.005670   0.005677   0.001423
     2  O   -0.020270   0.000486  -0.019336  -0.000011  -0.007155  -0.000015
     3  O   -0.000120   0.000017   0.000649  -0.018933  -0.020687   0.000119
     4  O   -0.000113  -0.000013  -0.001886  -0.000014  -0.000156  -0.000448
     5  O    0.000003  -0.000004  -0.000010  -0.000017  -0.000096  -0.000011
     6  Si   0.001146   0.000016   0.011288  -0.000267   0.000216  -0.000838
     7  Si  -0.000515  -0.000328   0.002272   0.057058   0.047704   0.039740
     8  Si   0.057794   0.047141   0.071537  -0.000107   0.021174  -0.000014
     9  Si  -0.000257  -0.000023   0.000056  -0.000105  -0.000024   0.000022
    10  O   -0.000000   0.000000   0.000000  -0.000000   0.000000   0.000000
    11  O   -0.000000   0.000000  -0.000000  -0.000000   0.000000  -0.000000
    12  O   -0.000000  -0.000000  -0.000000  -0.000001  -0.000000   0.000000
    13  O    0.218254  -0.004991  -0.009827  -0.000000   0.000791   0.000001
    14  O   -0.012175  -0.010030   0.219281  -0.000004   0.017481  -0.000026
    15  O    0.008855   0.217084   0.004669  -0.000001  -0.002554   0.000000
    16  O   -0.000044   0.000000   0.000173  -0.000000  -0.000004   0.000117
    17  O    0.000659  -0.000002   0.018597   0.000004  -0.000425  -0.000497
    18  O    0.015084   0.000007  -0.000284  -0.000000   0.000004  -0.000006
    19  O   -0.000025   0.000001   0.000114   0.004500  -0.008621   0.224214
    20  O    0.000000  -0.000000   0.000185   0.229577   0.007646  -0.001457
    21  O   -0.000021   0.000043  -0.003930  -0.002125   0.206674  -0.007074
    22  H    0.000000  -0.000000  -0.000000  -0.000000   0.000000   0.000000
    23  H    0.000000  -0.000000  -0.000000   0.000000   0.000000   0.000000
    24  H    0.000000  -0.000000   0.000000   0.000000  -0.000000  -0.000000
    25  H    0.298679  -0.000013   0.000135   0.000000   0.000001   0.000000
    26  H   -0.000013   0.365593   0.000034   0.000000   0.000022  -0.000000
    27  H    0.000135   0.000034   0.282893  -0.000000  -0.001472   0.000011
    28  H    0.000000   0.000000  -0.000000   0.348924  -0.000016  -0.000016
    29  H    0.000001   0.000022  -0.001472  -0.000016   0.286311   0.000156
    30  H    0.000000  -0.000000   0.000011  -0.000016   0.000156   0.334026
    31  H   -0.000520   0.000000   0.000014  -0.000000   0.000000  -0.000000
    32  H   -0.000001   0.000000  -0.000000   0.000000  -0.000000  -0.000000
    33  H    0.000007  -0.000000  -0.002496  -0.000002   0.000092  -0.001126
              31         32         33
     1  Zr  -0.001410   0.001769  -0.016188
     2  O    0.000194  -0.000020   0.000940
     3  O   -0.000017   0.000041  -0.010067
     4  O   -0.018619   0.010130  -0.008914
     5  O   -0.000007   0.000004  -0.000118
     6  Si   0.064569   0.023401   0.052349
     7  Si   0.000167  -0.000584   0.020623
     8  Si  -0.001628   0.000055   0.000189
     9  Si  -0.000051   0.000051   0.000074
    10  O    0.000000  -0.000000  -0.000000
    11  O   -0.000000   0.000000   0.000000
    12  O    0.000000   0.000000   0.000000
    13  O    0.002384  -0.000007   0.000204
    14  O    0.000162  -0.000006   0.002001
    15  O   -0.000018   0.000000  -0.000032
    16  O    0.003878   0.233375   0.000021
    17  O   -0.000895  -0.003686   0.231858
    18  O    0.218292   0.003914   0.002074
    19  O    0.000004   0.000107   0.015071
    20  O   -0.000000  -0.000000  -0.000112
    21  O   -0.000000   0.000001   0.001501
    22  H   -0.000000  -0.000000  -0.000000
    23  H   -0.000000   0.000000  -0.000000
    24  H    0.000000  -0.000000  -0.000000
    25  H   -0.000520  -0.000001   0.000007
    26  H    0.000000   0.000000  -0.000000
    27  H    0.000014  -0.000000  -0.002496
    28  H   -0.000000   0.000000  -0.000002
    29  H    0.000000  -0.000000   0.000092
    30  H   -0.000000  -0.000000  -0.001126
    31  H    0.331346   0.000000  -0.000038
    32  H    0.000000   0.349660   0.000155
    33  H   -0.000038   0.000155   0.268769
 Mulliken charges:
               1
     1  Zr   0.015272
     2  O   -0.538611
     3  O   -0.415016
     4  O   -0.688535
     5  O   -0.365837
     6  Si   2.236667
     7  Si   1.795553
     8  Si   2.013289
     9  Si   1.570060
    10  O   -0.833166
    11  O   -0.785215
    12  O   -0.797802
    13  O   -0.842248
    14  O   -0.882108
    15  O   -0.878831
    16  O   -0.736346
    17  O   -0.969378
    18  O   -1.085281
    19  O   -0.986026
    20  O   -0.805839
    21  O   -0.827398
    22  H    0.382808
    23  H    0.372267
    24  H    0.366206
    25  H    0.414975
    26  H    0.379015
    27  H    0.429681
    28  H    0.375886
    29  H    0.447261
    30  H    0.411699
    31  H    0.402193
    32  H    0.381642
    33  H    0.443165
 Sum of Mulliken charges =  -0.00000
 Mulliken charges with hydrogens summed into heavy atoms:
               1
     1  Zr   0.015272
     2  O   -0.538611
     3  O   -0.415016
     4  O   -0.688535
     5  O   -0.365837
     6  Si   2.236667
     7  Si   1.795553
     8  Si   2.013289
     9  Si   1.570060
    10  O   -0.460899
    11  O   -0.419009
    12  O   -0.414994
    13  O   -0.427273
    14  O   -0.452427
    15  O   -0.499816
    16  O   -0.354704
    17  O   -0.526213
    18  O   -0.683088
    19  O   -0.574328
    20  O   -0.429953
    21  O   -0.380137
 Electronic spatial extent (au):  <R**2>=           9918.7309
 Charge=             -0.0000 electrons
 Dipole moment (field-independent basis, Debye):
    X=              0.9864    Y=             -0.7825    Z=             -2.2444  Tot=              2.5734
 Quadrupole moment (field-independent basis, Debye-Ang):
   XX=           -159.7318   YY=           -155.8579   ZZ=           -157.9738
   XY=             -5.8593   XZ=              2.2015   YZ=              5.6703
 Traceless Quadrupole moment (field-independent basis, Debye-Ang):
   XX=             -1.8773   YY=              1.9966   ZZ=             -0.1193
   XY=             -5.8593   XZ=              2.2015   YZ=              5.6703
 Octapole moment (field-independent basis, Debye-Ang**2):
  XXX=             74.7763  YYY=              5.8103  ZZZ=            -11.5923  XYY=             -1.9995
  XXY=             23.9995  XXZ=             17.5043  XZZ=              2.3429  YZZ=            -15.3077
  YYZ=            -17.6925  XYZ=             30.3752
 Hexadecapole moment (field-independent basis, Debye-Ang**3):
 XXXX=          -5957.6459 YYYY=          -2870.8628 ZZZZ=          -2272.6564 XXXY=             63.7041
 XXXZ=              0.5007 YYYX=            -23.3991 YYYZ=            248.3610 ZZZX=           -147.7281
 ZZZY=            -75.8227 XXYY=          -1495.8353 XXZZ=          -1393.9897 YYZZ=           -930.7742
 XXYZ=            -34.3144 YYXZ=             68.5234 ZZXY=            -57.1147
 N-N= 2.829477913285D+03 E-N=-1.137149137710D+04  KE= 2.373155084855D+03
 1\1\GINC-GRA1051\FOpt\RB3LYP\Gen\H12O16Si4Zr1\SARASHS\11-Aug-2020\0\\#
 n B3LYP/Gen Pseudo=cards EmpiricalDispersion=GD3 Opt=modredundant\\Tit
 le\\0,1\Zr,0.656156754,-0.1328486467,-0.0708176407\O,-0.2239733687,-0.
 9350224657,1.4677141643\O,0.1028293658,1.7418690813,-0.0949512397\O,-0
 .2683397252,-0.9672918081,-1.6071543586\O,2.5885453383,-0.4388584803,-
 0.0742128169\Si,-1.8308111313,-1.3116723648,-1.9749857675\Si,-1.112561
 4932,2.838669739,-0.0455868271\Si,-1.7283580158,-1.1855469649,2.096283
 1263\Si,4.220603276,-0.5532522583,-0.067632129\O,4.8762831225,-0.74530
 59848,-1.5708455306\O,4.6970589191,-1.8932267583,0.7848488142\O,4.7542
 070174,0.8748545706,0.56041722\O,-2.3262633214,-2.6495649764,1.6569558
 821\O,-2.7226505307,0.0424102467,1.5432136882\O,-1.6071492977,-1.07290
 3467,3.7275162126\O,-1.9951869417,-1.51774778,-3.6024621484\O,-2.82344
 89785,-0.1714004119,-1.3117534033\O,-2.3504551077,-2.701750783,-1.2233
 315638\O,-2.0346196194,2.4548968192,-1.4004283863\O,-0.6282590078,4.39
 87808634,-0.2425785201\O,-1.9670446267,2.7442735536,1.3477386331\H,5.6
 919858695,1.0701102352,0.4557483003\H,5.0564270904,-1.6541036007,-1.83
 68303603\H,4.2696861506,-2.0558183452,1.6331501919\H,-2.4128529012,-2.
 8221857207,0.7021930043\H,-2.3934669688,-1.2819506127,4.243288874\H,-3
 .0570214879,-0.092812535,0.635517117\H,-0.5258930069,4.9172218373,0.56
 36537551\H,-2.2717160036,1.8499901982,1.6081605425\H,-2.6399398816,3.1
 472229577,-1.6940463203\H,-2.3129890137,-3.510247348,-1.7467669158\H,-
 1.2621761698,-1.2162581705,-4.1506413215\H,-2.6059063044,0.771929381,-
 1.4871042759\\Version=ES64L-G16RevB.01\State=1-A\HF=-2416.9467901\RMSD
 =2.601e-09\RMSF=5.453e-05\Dipole=0.3455886,-0.3233406,-0.8950452\Quadr
 upole=-2.0510145,2.0519012,-0.0008866,-4.0157566,1.949769,4.1679056\PG
 =C01 [X(H12O16Si4Zr1)]\\@


 Children are likely to live up to what you believe of them.
 -- Lady Bird Johnson
 Job cpu time:       1 days  2 hours 29 minutes 52.5 seconds.
 Elapsed time:       0 days  1 hours 58 minutes 28.5 seconds.
 File lengths (MBytes):  RWF=    167 Int=      0 D2E=      0 Chk=     21 Scr=      1
 Normal termination of Gaussian 16 at Tue Aug 11 21:21:47 2020.
