 Entering Gaussian System, Link 0=g16
 Initial command:
 /opt/software/gaussian/g16.b01/l1.exe "/localscratch/sarashs.36760143.0/Gau-31016.inp" -scrdir="/localscratch/sarashs.36760143.0/"
 Entering Link 1 = /opt/software/gaussian/g16.b01/l1.exe PID=     31020.
  
 Copyright (c) 1988-2017, Gaussian, Inc.  All Rights Reserved.
  
 This is part of the Gaussian(R) 16 program.  It is based on
 the Gaussian(R) 09 system (copyright 2009, Gaussian, Inc.),
 the Gaussian(R) 03 system (copyright 2003, Gaussian, Inc.),
 the Gaussian(R) 98 system (copyright 1998, Gaussian, Inc.),
 the Gaussian(R) 94 system (copyright 1995, Gaussian, Inc.),
 the Gaussian 92(TM) system (copyright 1992, Gaussian, Inc.),
 the Gaussian 90(TM) system (copyright 1990, Gaussian, Inc.),
 the Gaussian 88(TM) system (copyright 1988, Gaussian, Inc.),
 the Gaussian 86(TM) system (copyright 1986, Carnegie Mellon
 University), and the Gaussian 82(TM) system (copyright 1983,
 Carnegie Mellon University). Gaussian is a federally registered
 trademark of Gaussian, Inc.
  
 This software contains proprietary and confidential information,
 including trade secrets, belonging to Gaussian, Inc.
  
 This software is provided under written license and may be
 used, copied, transmitted, or stored only in accord with that
 written license.
  
 The following legend is applicable only to US Government
 contracts under FAR:
  
                    RESTRICTED RIGHTS LEGEND
  
 Use, reproduction and disclosure by the US Government is
 subject to restrictions as set forth in subparagraphs (a)
 and (c) of the Commercial Computer Software - Restricted
 Rights clause in FAR 52.227-19.
  
 Gaussian, Inc.
 340 Quinnipiac St., Bldg. 40, Wallingford CT 06492
  
  
 ---------------------------------------------------------------
 Warning -- This program may not be used in any manner that
 competes with the business of Gaussian, Inc. or will provide
 assistance to any competitor of Gaussian, Inc.  The licensee
 of this program is prohibited from giving any competitor of
 Gaussian, Inc. access to this program.  By using this program,
 the user acknowledges that Gaussian, Inc. is engaged in the
 business of creating and licensing software in the field of
 computational chemistry and represents and warrants to the
 licensee that it is not a competitor of Gaussian, Inc. and that
 it will not use this program in any manner prohibited above.
 ---------------------------------------------------------------
  

 Cite this work as:
 Gaussian 16, Revision B.01,
 M. J. Frisch, G. W. Trucks, H. B. Schlegel, G. E. Scuseria, 
 M. A. Robb, J. R. Cheeseman, G. Scalmani, V. Barone, 
 G. A. Petersson, H. Nakatsuji, X. Li, M. Caricato, A. V. Marenich, 
 J. Bloino, B. G. Janesko, R. Gomperts, B. Mennucci, H. P. Hratchian, 
 J. V. Ortiz, A. F. Izmaylov, J. L. Sonnenberg, D. Williams-Young, 
 F. Ding, F. Lipparini, F. Egidi, J. Goings, B. Peng, A. Petrone, 
 T. Henderson, D. Ranasinghe, V. G. Zakrzewski, J. Gao, N. Rega, 
 G. Zheng, W. Liang, M. Hada, M. Ehara, K. Toyota, R. Fukuda, 
 J. Hasegawa, M. Ishida, T. Nakajima, Y. Honda, O. Kitao, H. Nakai, 
 T. Vreven, K. Throssell, J. A. Montgomery, Jr., J. E. Peralta, 
 F. Ogliaro, M. J. Bearpark, J. J. Heyd, E. N. Brothers, K. N. Kudin, 
 V. N. Staroverov, T. A. Keith, R. Kobayashi, J. Normand, 
 K. Raghavachari, A. P. Rendell, J. C. Burant, S. S. Iyengar, 
 J. Tomasi, M. Cossi, J. M. Millam, M. Klene, C. Adamo, R. Cammi, 
 J. W. Ochterski, R. L. Martin, K. Morokuma, O. Farkas, 
 J. B. Foresman, and D. J. Fox, Gaussian, Inc., Wallingford CT, 2016.
 
 ******************************************
 Gaussian 16:  ES64L-G16RevB.01 20-Dec-2017
                 2-Aug-2020 
 ******************************************
 %NProcShared=16
 Will use up to   16 processors via shared memory.
 ------------------------------------------------------------------
 #n B3LYP/Gen Pseudo=cards EmpiricalDispersion=GD3 Opt=modredundant
 ------------------------------------------------------------------
 1/18=120,19=15,26=3,38=1/1,3;
 2/9=110,12=2,17=6,18=5,40=1/2;
 3/5=7,11=2,16=1,17=8,25=1,30=1,71=1,74=-5,124=31/1,2,3;
 4//1;
 5/5=2,38=5/2;
 6/7=2,8=2,9=2,10=2,28=1/1;
 7//1,2,3,16;
 1/18=20,19=15,26=3/3(2);
 2/9=110/2;
 99//99;
 2/9=110/2;
 3/5=7,6=1,11=2,16=1,17=8,25=1,30=1,71=1,74=-5,82=7,124=31/1,2,3;
 4/5=5,16=3,69=1/1;
 5/5=2,38=5/2;
 7//1,2,3,16;
 1/18=20,19=15,26=3/3(-5);
 2/9=110/2;
 6/7=2,8=2,9=2,10=2,19=2,28=1/1;
 99/9=1/99;
 -----
 Title
 -----
 Symbolic Z-matrix:
 Charge =  0 Multiplicity = 1
 Zr                    0.64646  -0.19013  -0.1519 
 O                    -0.19212  -0.93131   1.43939 
 O                     0.17263   1.70395  -0.1904 
 O                    -0.37772  -1.01692  -1.62844 
 O                     2.5678   -0.57883  -0.26812 
 Si                   -1.96924  -1.33216  -1.87829 
 Si                   -0.98958   2.85681  -0.11809 
 Si                   -1.67476  -1.05152   2.17706 
 Si                    4.15758  -0.2914   -0.00729 
 O                     4.90619   0.51979  -1.23407 
 O                     4.9823   -1.72142   0.13964 
 O                     4.19756   0.66023   1.34163 
 O                    -2.33574  -2.51245   1.83004 
 O                    -2.6209    0.20928   1.64149 
 O                    -1.552    -0.82432   3.7965 
 O                    -2.25427  -1.59164  -3.48183 
 O                    -2.88371  -0.13912  -1.19557 
 O                    -2.46027  -2.68598  -1.04579 
 O                    -2.00825   2.45605  -1.3967 
 O                    -0.44623   4.38142  -0.41555 
 O                    -1.75835   2.86715   1.32642 
 H                     5.02616   1.11427   1.5311 
 H                     5.35265  -0.02568  -1.89148 
 H                     4.56761  -2.41916   0.65869 
 H                    -2.40738  -2.74575   0.88712 
 H                    -0.93391  -1.38513   4.27638 
 H                    -3.02928   0.04705   0.77024 
 H                    -0.29029   4.93346   0.35924 
 H                    -2.09489   2.00321   1.64266 
 H                    -2.6086    3.15807  -1.6773 
 H                    -2.56602  -3.49143  -1.56436 
 H                    -1.55278  -1.33714  -4.09141 
 H                    -2.64046   0.78995  -1.40829 
 
 The following ModRedundant input section has been read:
 A       1       5       9 F                                                   
 

 GradGradGradGradGradGradGradGradGradGradGradGradGradGradGradGradGradGrad
 Berny optimization.
 Initialization pass.
                           ----------------------------
                           !    Initial Parameters    !
                           ! (Angstroms and Degrees)  !
 --------------------------                            --------------------------
 ! Name  Definition              Value          Derivative Info.                !
 --------------------------------------------------------------------------------
 ! R1    R(1,2)                  1.9454         estimate D2E/DX2                !
 ! R2    R(1,3)                  1.9528         estimate D2E/DX2                !
 ! R3    R(1,4)                  1.9781         estimate D2E/DX2                !
 ! R4    R(1,5)                  1.9637         estimate D2E/DX2                !
 ! R5    R(2,8)                  1.6604         estimate D2E/DX2                !
 ! R6    R(3,7)                  1.6386         estimate D2E/DX2                !
 ! R7    R(4,6)                  1.6416         estimate D2E/DX2                !
 ! R8    R(5,9)                  1.6365         estimate D2E/DX2                !
 ! R9    R(6,16)                 1.6492         estimate D2E/DX2                !
 ! R10   R(6,17)                 1.651          estimate D2E/DX2                !
 ! R11   R(6,18)                 1.6634         estimate D2E/DX2                !
 ! R12   R(7,19)                 1.6832         estimate D2E/DX2                !
 ! R13   R(7,20)                 1.6456         estimate D2E/DX2                !
 ! R14   R(7,21)                 1.6364         estimate D2E/DX2                !
 ! R15   R(8,13)                 1.6406         estimate D2E/DX2                !
 ! R16   R(8,14)                 1.6648         estimate D2E/DX2                !
 ! R17   R(8,15)                 1.6399         estimate D2E/DX2                !
 ! R18   R(9,10)                 1.6503         estimate D2E/DX2                !
 ! R19   R(9,11)                 1.6573         estimate D2E/DX2                !
 ! R20   R(9,12)                 1.6513         estimate D2E/DX2                !
 ! R21   R(10,23)                0.9639         estimate D2E/DX2                !
 ! R22   R(11,24)                0.9634         estimate D2E/DX2                !
 ! R23   R(12,22)                0.9637         estimate D2E/DX2                !
 ! R24   R(13,25)                0.974          estimate D2E/DX2                !
 ! R25   R(14,27)                0.9758         estimate D2E/DX2                !
 ! R26   R(15,26)                0.9627         estimate D2E/DX2                !
 ! R27   R(16,32)                0.9636         estimate D2E/DX2                !
 ! R28   R(17,33)                0.9837         estimate D2E/DX2                !
 ! R29   R(18,31)                0.9638         estimate D2E/DX2                !
 ! R30   R(19,30)                0.9654         estimate D2E/DX2                !
 ! R31   R(20,28)                0.964          estimate D2E/DX2                !
 ! R32   R(21,29)                0.9796         estimate D2E/DX2                !
 ! A1    A(2,1,3)              106.3234         estimate D2E/DX2                !
 ! A2    A(2,1,4)              103.1879         estimate D2E/DX2                !
 ! A3    A(2,1,5)              113.2501         estimate D2E/DX2                !
 ! A4    A(3,1,4)              105.3705         estimate D2E/DX2                !
 ! A5    A(3,1,5)              115.3549         estimate D2E/DX2                !
 ! A6    A(4,1,5)              112.3142         estimate D2E/DX2                !
 ! A7    A(1,2,8)              140.8859         estimate D2E/DX2                !
 ! A8    A(1,3,7)              148.6074         estimate D2E/DX2                !
 ! A9    A(1,4,6)              134.0964         estimate D2E/DX2                !
 ! A10   A(1,5,9)              155.0            Frozen                          !
 ! A11   A(4,6,16)             110.2282         estimate D2E/DX2                !
 ! A12   A(4,6,17)             109.5909         estimate D2E/DX2                !
 ! A13   A(4,6,18)             111.4884         estimate D2E/DX2                !
 ! A14   A(16,6,17)            114.8371         estimate D2E/DX2                !
 ! A15   A(16,6,18)            107.9112         estimate D2E/DX2                !
 ! A16   A(17,6,18)            102.5719         estimate D2E/DX2                !
 ! A17   A(3,7,19)             103.1918         estimate D2E/DX2                !
 ! A18   A(3,7,20)             114.1832         estimate D2E/DX2                !
 ! A19   A(3,7,21)             112.1241         estimate D2E/DX2                !
 ! A20   A(19,7,20)            106.4451         estimate D2E/DX2                !
 ! A21   A(19,7,21)            112.8144         estimate D2E/DX2                !
 ! A22   A(20,7,21)            107.9884         estimate D2E/DX2                !
 ! A23   A(2,8,13)             109.2843         estimate D2E/DX2                !
 ! A24   A(2,8,14)             108.0427         estimate D2E/DX2                !
 ! A25   A(2,8,15)             111.2146         estimate D2E/DX2                !
 ! A26   A(13,8,14)            112.1704         estimate D2E/DX2                !
 ! A27   A(13,8,15)            111.2482         estimate D2E/DX2                !
 ! A28   A(14,8,15)            104.7916         estimate D2E/DX2                !
 ! A29   A(5,9,10)             114.1127         estimate D2E/DX2                !
 ! A30   A(5,9,11)             110.243          estimate D2E/DX2                !
 ! A31   A(5,9,12)             104.77           estimate D2E/DX2                !
 ! A32   A(10,9,11)            105.3254         estimate D2E/DX2                !
 ! A33   A(10,9,12)            108.2398         estimate D2E/DX2                !
 ! A34   A(11,9,12)            114.3799         estimate D2E/DX2                !
 ! A35   A(9,10,23)            116.0377         estimate D2E/DX2                !
 ! A36   A(9,11,24)            117.288          estimate D2E/DX2                !
 ! A37   A(9,12,22)            116.9337         estimate D2E/DX2                !
 ! A38   A(8,13,25)            116.5961         estimate D2E/DX2                !
 ! A39   A(8,14,27)            113.5263         estimate D2E/DX2                !
 ! A40   A(8,15,26)            117.3612         estimate D2E/DX2                !
 ! A41   A(6,16,32)            116.5984         estimate D2E/DX2                !
 ! A42   A(6,17,33)            117.1373         estimate D2E/DX2                !
 ! A43   A(6,18,31)            116.3135         estimate D2E/DX2                !
 ! A44   A(7,19,30)            115.0881         estimate D2E/DX2                !
 ! A45   A(7,20,28)            116.018          estimate D2E/DX2                !
 ! A46   A(7,21,29)            116.1544         estimate D2E/DX2                !
 ! D1    D(3,1,2,8)             54.013          estimate D2E/DX2                !
 ! D2    D(4,1,2,8)            -56.615          estimate D2E/DX2                !
 ! D3    D(5,1,2,8)           -178.2908         estimate D2E/DX2                !
 ! D4    D(2,1,3,7)            -51.1331         estimate D2E/DX2                !
 ! D5    D(4,1,3,7)             57.9568         estimate D2E/DX2                !
 ! D6    D(5,1,3,7)           -177.5709         estimate D2E/DX2                !
 ! D7    D(2,1,4,6)             41.2968         estimate D2E/DX2                !
 ! D8    D(3,1,4,6)            -70.0365         estimate D2E/DX2                !
 ! D9    D(5,1,4,6)            163.602          estimate D2E/DX2                !
 ! D10   D(2,1,5,9)            -89.6359         estimate D2E/DX2                !
 ! D11   D(3,1,5,9)             33.1907         estimate D2E/DX2                !
 ! D12   D(4,1,5,9)            153.9573         estimate D2E/DX2                !
 ! D13   D(1,2,8,13)            98.0767         estimate D2E/DX2                !
 ! D14   D(1,2,8,14)           -24.2296         estimate D2E/DX2                !
 ! D15   D(1,2,8,15)          -138.7156         estimate D2E/DX2                !
 ! D16   D(1,3,7,19)           -58.6416         estimate D2E/DX2                !
 ! D17   D(1,3,7,20)          -173.7291         estimate D2E/DX2                !
 ! D18   D(1,3,7,21)            63.0404         estimate D2E/DX2                !
 ! D19   D(1,4,6,16)           161.8736         estimate D2E/DX2                !
 ! D20   D(1,4,6,17)            34.551          estimate D2E/DX2                !
 ! D21   D(1,4,6,18)           -78.3045         estimate D2E/DX2                !
 ! D22   D(1,5,9,10)           -93.0136         estimate D2E/DX2                !
 ! D23   D(1,5,9,11)           148.7121         estimate D2E/DX2                !
 ! D24   D(1,5,9,12)            25.1924         estimate D2E/DX2                !
 ! D25   D(4,6,16,32)          -13.7229         estimate D2E/DX2                !
 ! D26   D(17,6,16,32)         110.6319         estimate D2E/DX2                !
 ! D27   D(18,6,16,32)        -135.686          estimate D2E/DX2                !
 ! D28   D(4,6,17,33)           49.7998         estimate D2E/DX2                !
 ! D29   D(16,6,17,33)         -74.8906         estimate D2E/DX2                !
 ! D30   D(18,6,17,33)         168.3378         estimate D2E/DX2                !
 ! D31   D(4,6,18,31)         -102.9126         estimate D2E/DX2                !
 ! D32   D(16,6,18,31)          18.2691         estimate D2E/DX2                !
 ! D33   D(17,6,18,31)         139.8941         estimate D2E/DX2                !
 ! D34   D(3,7,19,30)         -162.9704         estimate D2E/DX2                !
 ! D35   D(20,7,19,30)         -42.4468         estimate D2E/DX2                !
 ! D36   D(21,7,19,30)          75.8144         estimate D2E/DX2                !
 ! D37   D(3,7,20,28)         -100.1112         estimate D2E/DX2                !
 ! D38   D(19,7,20,28)         146.7232         estimate D2E/DX2                !
 ! D39   D(21,7,20,28)          25.3303         estimate D2E/DX2                !
 ! D40   D(3,7,21,29)          -50.5298         estimate D2E/DX2                !
 ! D41   D(19,7,21,29)          65.4642         estimate D2E/DX2                !
 ! D42   D(20,7,21,29)        -177.1813         estimate D2E/DX2                !
 ! D43   D(2,8,13,25)          -54.0971         estimate D2E/DX2                !
 ! D44   D(14,8,13,25)          65.6987         estimate D2E/DX2                !
 ! D45   D(15,8,13,25)        -177.2849         estimate D2E/DX2                !
 ! D46   D(2,8,14,27)           81.1206         estimate D2E/DX2                !
 ! D47   D(13,8,14,27)         -39.3971         estimate D2E/DX2                !
 ! D48   D(15,8,14,27)        -160.2179         estimate D2E/DX2                !
 ! D49   D(2,8,15,26)          -54.9076         estimate D2E/DX2                !
 ! D50   D(13,8,15,26)          67.168          estimate D2E/DX2                !
 ! D51   D(14,8,15,26)        -171.403          estimate D2E/DX2                !
 ! D52   D(5,9,10,23)          -94.3736         estimate D2E/DX2                !
 ! D53   D(11,9,10,23)          26.6718         estimate D2E/DX2                !
 ! D54   D(12,9,10,23)         149.4209         estimate D2E/DX2                !
 ! D55   D(5,9,11,24)          -42.1582         estimate D2E/DX2                !
 ! D56   D(10,9,11,24)        -165.7001         estimate D2E/DX2                !
 ! D57   D(12,9,11,24)          75.5815         estimate D2E/DX2                !
 ! D58   D(5,9,12,22)         -165.3206         estimate D2E/DX2                !
 ! D59   D(10,9,12,22)         -43.198          estimate D2E/DX2                !
 ! D60   D(11,9,12,22)          73.8593         estimate D2E/DX2                !
 --------------------------------------------------------------------------------
 Trust Radius=3.00D-01 FncErr=1.00D-07 GrdErr=1.00D-06 EigMax=2.50D+02 EigMin=1.00D-04
 Number of steps in this run=    148 maximum allowed number of steps=    198.
 GradGradGradGradGradGradGradGradGradGradGradGradGradGradGradGradGradGrad

                          Input orientation:                          
 ---------------------------------------------------------------------
 Center     Atomic      Atomic             Coordinates (Angstroms)
 Number     Number       Type             X           Y           Z
 ---------------------------------------------------------------------
      1         40           0        0.646460   -0.190130   -0.151900
      2          8           0       -0.192120   -0.931310    1.439390
      3          8           0        0.172630    1.703950   -0.190400
      4          8           0       -0.377720   -1.016920   -1.628440
      5          8           0        2.567800   -0.578830   -0.268120
      6         14           0       -1.969240   -1.332160   -1.878290
      7         14           0       -0.989580    2.856810   -0.118090
      8         14           0       -1.674760   -1.051520    2.177060
      9         14           0        4.157580   -0.291400   -0.007290
     10          8           0        4.906190    0.519790   -1.234070
     11          8           0        4.982300   -1.721420    0.139640
     12          8           0        4.197560    0.660230    1.341630
     13          8           0       -2.335740   -2.512450    1.830040
     14          8           0       -2.620900    0.209280    1.641490
     15          8           0       -1.552000   -0.824320    3.796500
     16          8           0       -2.254270   -1.591640   -3.481830
     17          8           0       -2.883710   -0.139120   -1.195570
     18          8           0       -2.460270   -2.685980   -1.045790
     19          8           0       -2.008250    2.456050   -1.396700
     20          8           0       -0.446230    4.381420   -0.415550
     21          8           0       -1.758350    2.867150    1.326420
     22          1           0        5.026160    1.114270    1.531100
     23          1           0        5.352650   -0.025680   -1.891480
     24          1           0        4.567610   -2.419160    0.658690
     25          1           0       -2.407380   -2.745750    0.887120
     26          1           0       -0.933910   -1.385130    4.276380
     27          1           0       -3.029280    0.047050    0.770240
     28          1           0       -0.290290    4.933460    0.359240
     29          1           0       -2.094890    2.003210    1.642660
     30          1           0       -2.608600    3.158070   -1.677300
     31          1           0       -2.566020   -3.491430   -1.564360
     32          1           0       -1.552780   -1.337140   -4.091410
     33          1           0       -2.640460    0.789950   -1.408290
 ---------------------------------------------------------------------
                    Distance matrix (angstroms):
                    1          2          3          4          5
     1  Zr   0.000000
     2  O    1.945448   0.000000
     3  O    1.952828   3.119912   0.000000
     4  O    1.978054   3.074631   3.126336   0.000000
     5  O    1.963706   3.264505   3.309677   3.273909   0.000000
     6  Si   3.335647   3.784949   4.080998   1.641565   4.872872
     7  Si   3.458557   4.172714   1.638611   4.202537   4.947836
     8  Si   3.399134   1.660370   4.075577   4.020614   4.919518
     9  Si   3.515556   4.628419   4.460356   4.870673   1.636474
    10  O    4.452008   5.936821   4.989797   5.516948   2.758277
    11  O    4.607532   5.393352   5.913967   5.687903   2.702146
    12  O    3.945131   4.670316   4.431312   5.706780   2.604358
    13  O    4.267877   2.692159   5.305858   4.246356   5.673259
    14  O    3.748522   2.690866   3.659736   4.150646   5.584831
    15  O    4.563473   2.723360   5.026119   5.553918   5.792595
    16  O    4.633238   5.376514   5.252073   2.699407   5.882693
    17  O    3.681569   3.849056   3.707895   2.690334   5.547294
    18  O    4.084125   3.794666   5.189927   2.731713   5.506936
    19  O    3.949592   4.776604   2.603277   3.843677   5.605749
    20  O    4.707712   5.632981   2.757268   5.533342   5.806048
    21  O    4.161190   4.110248   2.717068   5.071818   5.756119
    22  H    4.869879   5.605645   5.183439   6.612608   3.485300
    23  H    5.020100   6.531411   5.719956   5.821416   3.270575
    24  H    4.582690   5.047595   6.085790   5.626147   2.871416
    25  H    4.115422   2.916260   5.255219   3.665572   5.548201
    26  H    4.851315   2.967274   5.542470   5.942375   5.793494
    27  H    3.797060   3.074805   3.731002   3.730478   5.726886
    28  H    5.233540   5.964217   3.308494   6.274196   6.240801
    29  H    3.942865   3.503321   2.931094   4.771787   5.662039
    30  H    4.912505   5.681211   3.472834   4.733894   6.537991
    31  H    4.818055   4.605663   6.031579   3.303931   6.043144
    32  H    4.655322   5.710153   5.238621   2.747640   5.672016
    33  H    3.652796   4.131148   3.198770   2.904004   5.504500
                    6          7          8          9         10
     6  Si   0.000000
     7  Si   4.648172   0.000000
     8  Si   4.075701   4.583910   0.000000
     9  Si   6.490127   6.034630   6.274182   0.000000
    10  O    7.149565   6.439501   7.577185   1.650283   0.000000
    11  O    7.248964   7.529274   6.994018   1.657320   2.629809
    12  O    7.236499   5.819121   6.173506   1.651297   2.675091
    13  O    3.908851   5.868246   1.640620   7.104368   8.427859
    14  O    3.897377   3.573058   1.664822   6.994065   8.063643
    15  O    5.712725   5.402874   1.639901   6.881288   8.295872
    16  O    1.649216   5.718645   5.714070   7.407758   7.796329
    17  O    1.650971   3.704631   3.697116   7.142476   7.817812
    18  O    1.663429   5.809137   3.698006   7.113961   8.035991
    19  O    3.818898   1.683194   5.018568   6.891763   7.182272
    20  O    6.091319   1.645645   6.143920   6.572442   6.650606
    21  O    5.286667   1.636375   4.010804   6.837649   7.515471
    22  H    8.157486   6.476527   7.071792   2.257650   2.830895
    23  H    7.437549   7.188709   8.184733   2.246992   0.963873
    24  H    7.095650   7.702052   6.568338   2.266940   3.512065
    25  H    3.136510   5.865943   2.251909   7.065586   8.285620
    26  H    6.241368   6.108070   2.251066   6.743096   8.252306
    27  H    3.168693   3.583889   2.240697   7.236716   8.198318
    28  H    6.861735   2.242616   6.406342   6.871467   7.001609
    29  H    4.851553   2.247350   3.129452   6.861556   7.713056
    30  H    4.539972   2.267845   5.783493   7.776180   7.976781
    31  H    2.262111   6.699031   4.554748   7.607329   8.487220
    32  H    2.251969   5.804626   6.276159   7.098015   7.302799
    33  H    2.274816   2.943116   4.144674   7.024633   7.553494
                   11         12         13         14         15
    11  O    0.000000
    12  O    2.780801   0.000000
    13  O    7.552277   7.279317   0.000000
    14  O    7.986977   6.839932   2.743115   0.000000
    15  O    7.541518   6.425552   2.707581   2.618195   0.000000
    16  O    8.093197   8.364377   5.391706   5.442990   7.352282
    17  O    8.133915   7.564438   3.884235   2.870429   5.211882
    18  O    7.597859   7.824551   2.883751   3.953455   5.266736
    19  O    8.287303   7.016801   5.933388   3.828043   6.159409
    20  O    8.186686   6.204814   7.492554   5.134915   6.787033
    21  O    8.240133   6.351661   5.433885   2.812034   4.446440
    22  H    3.158991   0.963654   8.212188   7.701215   7.222351
    23  H    2.671730   3.501101   8.896352   8.724367   8.981377
    24  H    0.963443   3.175844   7.002643   7.716817   7.059674
    25  H    7.497690   7.445301   0.973991   3.057265   3.589994
    26  H    7.226842   6.255257   3.036537   3.511513   0.962719
    27  H    8.228642   7.275280   2.855734   0.975792   3.478490
    28  H    8.493283   6.274263   7.860578   5.421604   6.823394
    29  H    8.137478   6.441207   4.525959   1.869458   3.595648
    30  H    9.205023   7.853468   6.673131   4.439581   6.851155
    31  H    7.938116   8.451454   3.540252   4.896503   6.072934
    32  H    7.794660   8.159278   6.087524   6.033112   7.904563
    33  H    8.173710   7.371391   4.635243   3.104629   5.557018
                   16         17         18         19         20
    16  O    0.000000
    17  O    2.780826   0.000000
    18  O    2.678490   2.586162   0.000000
    19  O    4.559834   2.746232   5.173774   0.000000
    20  O    6.953311   5.194711   7.375751   2.666385   0.000000
    21  O    6.576170   4.082221   6.079254   2.765291   2.655020
    22  H    9.244246   8.460009   8.782306   7.736621   6.664140
    23  H    7.927590   8.266486   8.296632   7.783742   7.431548
    24  H    8.022889   8.009933   7.236542   8.440038   8.517069
    25  H    4.521409   3.370313   1.934557   5.695073   7.505972
    26  H    7.872472   5.941086   5.687484   6.934891   7.450177
    27  H    4.622342   1.979964   3.330344   3.397265   5.183147
    28  H    7.822274   5.905449   8.046042   3.488878   0.964036
    29  H    6.261689   3.642439   5.417543   3.074131   3.551083
    30  H    5.093292   3.343533   5.879943   0.965396   2.786475
    31  H    2.717183   3.387464   0.963767   5.975930   8.233774
    32  H    0.963559   3.404778   3.452348   4.675169   6.887549
    33  H    3.181302   0.983662   3.499423   1.782053   4.324215
                   21         22         23         24         25
    21  O    0.000000
    22  H    7.010282   0.000000
    23  H    8.324041   3.622173   0.000000
    24  H    8.270956   3.668310   3.584467   0.000000
    25  H    5.667351   8.400713   8.679716   6.986367   0.000000
    26  H    5.240596   7.021823   8.911310   6.665105   3.938208
    27  H    3.142859   8.161371   8.794703   7.987952   2.863591
    28  H    2.712983   6.650121   7.842294   8.817589   7.983169
    29  H    0.979622   7.177187   8.489546   8.056951   4.818829
    30  H    3.135266   8.529977   8.576925   9.384047   6.439863
    31  H    7.031392   9.404017   8.650073   7.548536   2.567286
    32  H    6.860845   8.994692   7.365092   7.822620   5.244071
    33  H    3.545633   8.217193   8.049132   8.156413   4.221896
                   26         27         28         29         30
    26  H    0.000000
    27  H    4.328364   0.000000
    28  H    7.462092   5.616760   0.000000
    29  H    4.445807   2.336828   3.672889   0.000000
    30  H    7.674084   3.980687   3.560065   3.552426   0.000000
    31  H    6.419854   4.264482   8.936328   6.379499   6.650595
    32  H    8.390781   5.266087   7.792470   6.658181   5.210527
    33  H    6.321294   2.334325   5.080958   3.328354   2.383563
                   31         32         33
    31  H    0.000000
    32  H    3.471830   0.000000
    33  H    4.284870   3.592589   0.000000
 Stoichiometry    H12O16Si4Zr
 Framework group  C1[X(H12O16Si4Zr)]
 Deg. of freedom    93
 Full point group                 C1      NOp   1
 Largest Abelian subgroup         C1      NOp   1
 Largest concise Abelian subgroup C1      NOp   1
                         Standard orientation:                         
 ---------------------------------------------------------------------
 Center     Atomic      Atomic             Coordinates (Angstroms)
 Number     Number       Type             X           Y           Z
 ---------------------------------------------------------------------
      1         40           0        0.645294   -0.205437   -0.160813
      2          8           0       -0.193278   -0.942104    1.432575
      3          8           0        0.193514    1.694182   -0.190460
      4          8           0       -0.396509   -1.015192   -1.634461
      5          8           0        2.561284   -0.616220   -0.288814
      6         14           0       -1.992949   -1.310926   -1.876653
      7         14           0       -0.954683    2.860325   -0.107988
      8         14           0       -1.673202   -1.047426    2.177934
      9         14           0        4.155718   -0.348311   -0.035726
     10          8           0        4.907126    0.458186   -1.263888
     11          8           0        4.964391   -1.788380    0.101966
     12          8           0        4.214175    0.598233    1.316096
     13          8           0       -2.353148   -2.499336    1.829701
     14          8           0       -2.607379    0.226168    1.651714
     15          8           0       -1.539002   -0.827139    3.797421
     16          8           0       -2.289698   -1.561643   -3.479461
     17          8           0       -2.889644   -0.109565   -1.185005
     18          8           0       -2.495304   -2.661700   -1.045964
     19          8           0       -1.984905    2.475836   -1.382332
     20          8           0       -0.395107    4.379461   -0.403369
     21          8           0       -1.715431    2.874800    1.340727
     22          1           0        5.049060    1.041896    1.502536
     23          1           0        5.343584   -0.090257   -1.925528
     24          1           0        4.544366   -2.482960    0.620964
     25          1           0       -2.432633   -2.728601    0.886420
     26          1           0       -0.924939   -1.396765    4.272060
     27          1           0       -3.022354    0.071670    0.782176
     28          1           0       -0.228501    4.927022    0.372378
     29          1           0       -2.060362    2.013800    1.655942
     30          1           0       -2.578492    3.185782   -1.657324
     31          1           0       -2.613306   -3.464104   -1.566609
     32          1           0       -1.588588   -1.313323   -4.092020
     33          1           0       -2.636670    0.817304   -1.395977
 ---------------------------------------------------------------------
 Rotational constants (GHZ):           0.2132090           0.1354061           0.1257153
 General basis read from cards:  (5D, 7F)
 ======================================================================================================
                                       Pseudopotential Parameters
 ======================================================================================================
  Center     Atomic      Valence      Angular      Power
  Number     Number     Electrons     Momentum     of R      Exponent        Coefficient   SO-Coeffient
 ======================================================================================================
    1         40           12
                                      G and up 
                                                     2        1.0000000        0.00000000    0.00000000
                                      S - G
                                                     2        8.6365280      150.24299400    0.00000000
                                                     2        3.7176390       18.78003600    0.00000000
                                      P - G
                                                     2        7.6267280       33.19279100    0.00000000
                                                     2        7.4532070       66.38903900    0.00000000
                                                     2        3.3583890        4.62072600    0.00000000
                                                     2        3.2297380        9.26027000    0.00000000
                                      D - G
                                                     2        5.9380860       13.99338300    0.00000000
                                                     2        5.8255440       20.99588200    0.00000000
                                                     2        2.2050190        2.28516600    0.00000000
                                                     2        2.2062920        3.44126000    0.00000000
                                      F - G
                                                     2        4.8002150       -5.23932000    0.00000000
                                                     2        4.7989920       -6.98742400    0.00000000
    2          8
                                   No pseudopotential on this center.
    3          8
                                   No pseudopotential on this center.
    4          8
                                   No pseudopotential on this center.
    5          8
                                   No pseudopotential on this center.
    6         14
                                   No pseudopotential on this center.
    7         14
                                   No pseudopotential on this center.
    8         14
                                   No pseudopotential on this center.
    9         14
                                   No pseudopotential on this center.
   10          8
                                   No pseudopotential on this center.
   11          8
                                   No pseudopotential on this center.
   12          8
                                   No pseudopotential on this center.
   13          8
                                   No pseudopotential on this center.
   14          8
                                   No pseudopotential on this center.
   15          8
                                   No pseudopotential on this center.
   16          8
                                   No pseudopotential on this center.
   17          8
                                   No pseudopotential on this center.
   18          8
                                   No pseudopotential on this center.
   19          8
                                   No pseudopotential on this center.
   20          8
                                   No pseudopotential on this center.
   21          8
                                   No pseudopotential on this center.
   22          1
                                   No pseudopotential on this center.
   23          1
                                   No pseudopotential on this center.
   24          1
                                   No pseudopotential on this center.
   25          1
                                   No pseudopotential on this center.
   26          1
                                   No pseudopotential on this center.
   27          1
                                   No pseudopotential on this center.
   28          1
                                   No pseudopotential on this center.
   29          1
                                   No pseudopotential on this center.
   30          1
                                   No pseudopotential on this center.
   31          1
                                   No pseudopotential on this center.
   32          1
                                   No pseudopotential on this center.
   33          1
                                   No pseudopotential on this center.
 ======================================================================================================
 There are   570 symmetry adapted cartesian basis functions of A   symmetry.
 There are   524 symmetry adapted basis functions of A   symmetry.
   524 basis functions,  1074 primitive gaussians,   570 cartesian basis functions
   104 alpha electrons      104 beta electrons
       nuclear repulsion energy      2839.5748572889 Hartrees.
 NAtoms=   33 NActive=   33 NUniq=   33 SFac= 1.00D+00 NAtFMM=   60 NAOKFM=F Big=F
 Integral buffers will be    131072 words long.
 Raffenetti 2 integral format.
 Two-electron integral symmetry is turned on.
 Nuclear repulsion after empirical dispersion term =     2839.5339342560 Hartrees.
 One-electron integrals computed using PRISM.
 PrsmSu:  requested number of processors reduced to:   4 ShMem   1 Linda.
   1 Symmetry operations used in ECPInt.
 ECPInt:  NShTT=   13203 NPrTT=   78401 LenC2=   11539 LenP2D=   44762.
 LDataN:  DoStor=T MaxTD1= 8 Len=  415
 Number of processors reduced to  13 by ecpmxn.
 NBasis=   524 RedAO= T EigKep=  3.13D-05  NBF=   524
 NBsUse=   524 1.00D-06 EigRej= -1.00D+00 NBFU=   524
 Defaulting to unpruned grid for atomic number  40.
 ExpMin= 1.01D-02 ExpMax= 1.61D+04 ExpMxC= 2.43D+03 IAcc=3 IRadAn=         5 AccDes= 0.00D+00
 Harris functional with IExCor=  402 and IRadAn=       5 diagonalized for initial guess.
 HarFok:  IExCor=  402 AccDes= 0.00D+00 IRadAn=         5 IDoV= 1 UseB2=F ITyADJ=14
 ICtDFT=  3500011 ScaDFX=  1.000000  1.000000  1.000000  1.000000
 Defaulting to unpruned grid for atomic number  40.
 FoFCou: FMM=F IPFlag=           0 FMFlag=      100000 FMFlg1=           0
         NFxFlg=           0 DoJE=T BraDBF=F KetDBF=T FulRan=T
         wScrn=  0.000000 ICntrl=       500 IOpCl=  0 I1Cent=   200000004 NGrid=           0
         NMat0=    1 NMatS0=      1 NMatT0=    0 NMatD0=    1 NMtDS0=    0 NMtDT0=    0
 Petite list used in FoFCou.
 Requested convergence on RMS density matrix=1.00D-08 within 128 cycles.
 Requested convergence on MAX density matrix=1.00D-06.
 Requested convergence on             energy=1.00D-06.
 No special actions if energy rises.
 Defaulting to unpruned grid for atomic number  40.
 Defaulting to unpruned grid for atomic number  40.
 Defaulting to unpruned grid for atomic number  40.
 Defaulting to unpruned grid for atomic number  40.
 Defaulting to unpruned grid for atomic number  40.
 Defaulting to unpruned grid for atomic number  40.
 Defaulting to unpruned grid for atomic number  40.
 Defaulting to unpruned grid for atomic number  40.
 Defaulting to unpruned grid for atomic number  40.
 Defaulting to unpruned grid for atomic number  40.
 Defaulting to unpruned grid for atomic number  40.
 Defaulting to unpruned grid for atomic number  40.
 Defaulting to unpruned grid for atomic number  40.
 Defaulting to unpruned grid for atomic number  40.
 Defaulting to unpruned grid for atomic number  40.
 Defaulting to unpruned grid for atomic number  40.
 SCF Done:  E(RB3LYP) =  -2416.94586510     A.U. after   14 cycles
            NFock= 14  Conv=0.34D-08     -V/T= 2.0185

 **********************************************************************

            Population analysis using the SCF Density.

 **********************************************************************

 Orbital symmetries:
       Occupied  (A) (A) (A) (A) (A) (A) (A) (A) (A) (A) (A) (A)
                 (A) (A) (A) (A) (A) (A) (A) (A) (A) (A) (A) (A)
                 (A) (A) (A) (A) (A) (A) (A) (A) (A) (A) (A) (A)
                 (A) (A) (A) (A) (A) (A) (A) (A) (A) (A) (A) (A)
                 (A) (A) (A) (A) (A) (A) (A) (A) (A) (A) (A) (A)
                 (A) (A) (A) (A) (A) (A) (A) (A) (A) (A) (A) (A)
                 (A) (A) (A) (A) (A) (A) (A) (A) (A) (A) (A) (A)
                 (A) (A) (A) (A) (A) (A) (A) (A) (A) (A) (A) (A)
                 (A) (A) (A) (A) (A) (A) (A) (A)
       Virtual   (A) (A) (A) (A) (A) (A) (A) (A) (A) (A) (A) (A)
                 (A) (A) (A) (A) (A) (A) (A) (A) (A) (A) (A) (A)
                 (A) (A) (A) (A) (A) (A) (A) (A) (A) (A) (A) (A)
                 (A) (A) (A) (A) (A) (A) (A) (A) (A) (A) (A) (A)
                 (A) (A) (A) (A) (A) (A) (A) (A) (A) (A) (A) (A)
                 (A) (A) (A) (A) (A) (A) (A) (A) (A) (A) (A) (A)
                 (A) (A) (A) (A) (A) (A) (A) (A) (A) (A) (A) (A)
                 (A) (A) (A) (A) (A) (A) (A) (A) (A) (A) (A) (A)
                 (A) (A) (A) (A) (A) (A) (A) (A) (A) (A) (A) (A)
                 (A) (A) (A) (A) (A) (A) (A) (A) (A) (A) (A) (A)
                 (A) (A) (A) (A) (A) (A) (A) (A) (A) (A) (A) (A)
                 (A) (A) (A) (A) (A) (A) (A) (A) (A) (A) (A) (A)
                 (A) (A) (A) (A) (A) (A) (A) (A) (A) (A) (A) (A)
                 (A) (A) (A) (A) (A) (A) (A) (A) (A) (A) (A) (A)
                 (A) (A) (A) (A) (A) (A) (A) (A) (A) (A) (A) (A)
                 (A) (A) (A) (A) (A) (A) (A) (A) (A) (A) (A) (A)
                 (A) (A) (A) (A) (A) (A) (A) (A) (A) (A) (A) (A)
                 (A) (A) (A) (A) (A) (A) (A) (A) (A) (A) (A) (A)
                 (A) (A) (A) (A) (A) (A) (A) (A) (A) (A) (A) (A)
                 (A) (A) (A) (A) (A) (A) (A) (A) (A) (A) (A) (A)
                 (A) (A) (A) (A) (A) (A) (A) (A) (A) (A) (A) (A)
                 (A) (A) (A) (A) (A) (A) (A) (A) (A) (A) (A) (A)
                 (A) (A) (A) (A) (A) (A) (A) (A) (A) (A) (A) (A)
                 (A) (A) (A) (A) (A) (A) (A) (A) (A) (A) (A) (A)
                 (A) (A) (A) (A) (A) (A) (A) (A) (A) (A) (A) (A)
                 (A) (A) (A) (A) (A) (A) (A) (A) (A) (A) (A) (A)
                 (A) (A) (A) (A) (A) (A) (A) (A) (A) (A) (A) (A)
                 (A) (A) (A) (A) (A) (A) (A) (A) (A) (A) (A) (A)
                 (A) (A) (A) (A) (A) (A) (A) (A) (A) (A) (A) (A)
                 (A) (A) (A) (A) (A) (A) (A) (A) (A) (A) (A) (A)
                 (A) (A) (A) (A) (A) (A) (A) (A) (A) (A) (A) (A)
                 (A) (A) (A) (A) (A) (A) (A) (A) (A) (A) (A) (A)
                 (A) (A) (A) (A) (A) (A) (A) (A) (A) (A) (A) (A)
                 (A) (A) (A) (A) (A) (A) (A) (A) (A) (A) (A) (A)
                 (A) (A) (A) (A) (A) (A) (A) (A) (A) (A) (A) (A)
 The electronic state is 1-A.
 Alpha  occ. eigenvalues --  -66.22763 -66.21712 -66.21656 -66.20990 -19.18502
 Alpha  occ. eigenvalues --  -19.18312 -19.17778 -19.16934 -19.16768 -19.16677
 Alpha  occ. eigenvalues --  -19.16608 -19.16491 -19.16147 -19.15982 -19.15956
 Alpha  occ. eigenvalues --  -19.15506 -19.15451 -19.15254 -19.14832 -19.14587
 Alpha  occ. eigenvalues --   -5.36822  -5.35793  -5.35739  -5.35048  -3.72808
 Alpha  occ. eigenvalues --   -3.72783  -3.72728  -3.71783  -3.71738  -3.71704
 Alpha  occ. eigenvalues --   -3.71703  -3.71698  -3.71662  -3.71029  -3.71009
 Alpha  occ. eigenvalues --   -3.70956  -2.13329  -1.29570  -1.29501  -1.29336
 Alpha  occ. eigenvalues --   -1.05619  -1.04729  -1.04360  -1.03481  -1.02514
 Alpha  occ. eigenvalues --   -1.02114  -1.01419  -1.01172  -1.00952  -1.00663
 Alpha  occ. eigenvalues --   -0.99778  -0.99306  -0.97377  -0.96262  -0.95754
 Alpha  occ. eigenvalues --   -0.95271  -0.60885  -0.59193  -0.59077  -0.58910
 Alpha  occ. eigenvalues --   -0.55537  -0.54486  -0.54077  -0.53222  -0.53061
 Alpha  occ. eigenvalues --   -0.52550  -0.51828  -0.50150  -0.48632  -0.47826
 Alpha  occ. eigenvalues --   -0.47469  -0.47043  -0.43370  -0.42824  -0.41805
 Alpha  occ. eigenvalues --   -0.41481  -0.41235  -0.40539  -0.39816  -0.39433
 Alpha  occ. eigenvalues --   -0.38936  -0.38862  -0.38632  -0.38181  -0.38010
 Alpha  occ. eigenvalues --   -0.37598  -0.37431  -0.37064  -0.36490  -0.36386
 Alpha  occ. eigenvalues --   -0.36184  -0.35819  -0.35428  -0.35269  -0.34927
 Alpha  occ. eigenvalues --   -0.34444  -0.34054  -0.33761  -0.33579  -0.33056
 Alpha  occ. eigenvalues --   -0.32673  -0.32243  -0.31975  -0.31276
 Alpha virt. eigenvalues --   -0.04389  -0.03141  -0.03010  -0.02914  -0.02057
 Alpha virt. eigenvalues --   -0.01338  -0.00542  -0.00190  -0.00052   0.00227
 Alpha virt. eigenvalues --    0.00712   0.00880   0.00968   0.01878   0.02195
 Alpha virt. eigenvalues --    0.02943   0.03296   0.03845   0.03891   0.04137
 Alpha virt. eigenvalues --    0.04363   0.04769   0.05844   0.05977   0.06126
 Alpha virt. eigenvalues --    0.06384   0.06998   0.07578   0.07602   0.08336
 Alpha virt. eigenvalues --    0.08593   0.08802   0.09130   0.09500   0.09811
 Alpha virt. eigenvalues --    0.10365   0.10645   0.10924   0.11107   0.11592
 Alpha virt. eigenvalues --    0.11847   0.12542   0.13145   0.13390   0.13829
 Alpha virt. eigenvalues --    0.14016   0.14122   0.14882   0.14981   0.15257
 Alpha virt. eigenvalues --    0.15513   0.15707   0.16198   0.16578   0.16870
 Alpha virt. eigenvalues --    0.17131   0.17383   0.17647   0.17749   0.18508
 Alpha virt. eigenvalues --    0.18654   0.18825   0.19059   0.19374   0.19662
 Alpha virt. eigenvalues --    0.19874   0.20320   0.20900   0.21217   0.21343
 Alpha virt. eigenvalues --    0.21489   0.21858   0.22282   0.22448   0.23272
 Alpha virt. eigenvalues --    0.23619   0.23944   0.24049   0.24401   0.24655
 Alpha virt. eigenvalues --    0.24930   0.25607   0.25699   0.25976   0.26112
 Alpha virt. eigenvalues --    0.26493   0.26708   0.26803   0.27240   0.27651
 Alpha virt. eigenvalues --    0.27780   0.28418   0.28500   0.28707   0.28844
 Alpha virt. eigenvalues --    0.29570   0.29993   0.30102   0.30567   0.30649
 Alpha virt. eigenvalues --    0.30768   0.31145   0.31438   0.31708   0.32200
 Alpha virt. eigenvalues --    0.32469   0.32823   0.33228   0.33529   0.34141
 Alpha virt. eigenvalues --    0.34296   0.34989   0.35372   0.35884   0.36467
 Alpha virt. eigenvalues --    0.36656   0.37649   0.38547   0.38785   0.39171
 Alpha virt. eigenvalues --    0.39274   0.40211   0.40307   0.40962   0.41284
 Alpha virt. eigenvalues --    0.41571   0.42164   0.43139   0.43915   0.44041
 Alpha virt. eigenvalues --    0.45217   0.45854   0.46352   0.46685   0.46995
 Alpha virt. eigenvalues --    0.47219   0.48493   0.48584   0.49010   0.49651
 Alpha virt. eigenvalues --    0.50006   0.50458   0.51708   0.52186   0.53204
 Alpha virt. eigenvalues --    0.53986   0.54230   0.55555   0.56698   0.57029
 Alpha virt. eigenvalues --    0.57726   0.58390   0.59075   0.60093   0.60286
 Alpha virt. eigenvalues --    0.60696   0.61506   0.61940   0.64804   0.66096
 Alpha virt. eigenvalues --    0.66610   0.67104   0.68211   0.69041   0.69531
 Alpha virt. eigenvalues --    0.70321   0.70868   0.72899   0.73848   0.74868
 Alpha virt. eigenvalues --    0.75375   0.77156   0.78619   0.78698   0.80110
 Alpha virt. eigenvalues --    0.80990   0.81588   0.83283   0.83575   0.85512
 Alpha virt. eigenvalues --    0.86565   0.87861   0.90301   0.90592   0.91039
 Alpha virt. eigenvalues --    0.93646   0.95805   0.96227   0.96783   0.97494
 Alpha virt. eigenvalues --    0.98006   0.98559   0.99024   0.99342   1.00164
 Alpha virt. eigenvalues --    1.00457   1.01141   1.01819   1.03370   1.03552
 Alpha virt. eigenvalues --    1.04498   1.04631   1.05498   1.06828   1.08090
 Alpha virt. eigenvalues --    1.09668   1.12145   1.15259   1.16244   1.16764
 Alpha virt. eigenvalues --    1.18763   1.19153   1.20052   1.20415   1.20855
 Alpha virt. eigenvalues --    1.21658   1.22150   1.22202   1.22485   1.23686
 Alpha virt. eigenvalues --    1.24027   1.24154   1.24282   1.25124   1.25489
 Alpha virt. eigenvalues --    1.25890   1.26599   1.27665   1.27869   1.28714
 Alpha virt. eigenvalues --    1.28871   1.29453   1.30406   1.30580   1.31616
 Alpha virt. eigenvalues --    1.32033   1.32676   1.33751   1.33785   1.34887
 Alpha virt. eigenvalues --    1.35499   1.36379   1.36708   1.37170   1.38524
 Alpha virt. eigenvalues --    1.38925   1.39816   1.40153   1.40629   1.41499
 Alpha virt. eigenvalues --    1.41939   1.42721   1.43889   1.44615   1.45451
 Alpha virt. eigenvalues --    1.47325   1.49532   1.51055   1.52034   1.52688
 Alpha virt. eigenvalues --    1.56664   1.57122   1.58585   1.59444   1.59540
 Alpha virt. eigenvalues --    1.60153   1.60933   1.61060   1.62195   1.62731
 Alpha virt. eigenvalues --    1.63453   1.64383   1.65069   1.66080   1.66284
 Alpha virt. eigenvalues --    1.67463   1.67589   1.68847   1.69722   1.70133
 Alpha virt. eigenvalues --    1.70771   1.71134   1.71488   1.72900   1.73371
 Alpha virt. eigenvalues --    1.74406   1.75267   1.75692   1.76157   1.76415
 Alpha virt. eigenvalues --    1.76822   1.77937   1.78616   1.79665   1.79893
 Alpha virt. eigenvalues --    1.80330   1.81174   1.82261   1.82497   1.82682
 Alpha virt. eigenvalues --    1.83546   1.84381   1.84550   1.85795   1.86088
 Alpha virt. eigenvalues --    1.87239   1.88099   1.88753   1.89957   1.90183
 Alpha virt. eigenvalues --    1.90934   1.91754   1.92513   1.92875   1.93532
 Alpha virt. eigenvalues --    1.94092   1.95252   1.95832   1.97268   1.97989
 Alpha virt. eigenvalues --    1.98709   2.00078   2.00570   2.02934   2.05404
 Alpha virt. eigenvalues --    2.06282   2.07972   2.09114   2.10150   2.10709
 Alpha virt. eigenvalues --    2.11655   2.13449   2.14219   2.15696   2.16113
 Alpha virt. eigenvalues --    2.16491   2.19684   2.19919   2.21770   2.25419
 Alpha virt. eigenvalues --    2.31917   2.32871   2.36342   2.39497   2.40165
 Alpha virt. eigenvalues --    2.40793   2.41451   2.42007   2.43021   2.43403
 Alpha virt. eigenvalues --    2.44047   2.45367   2.46161   2.47916   2.49052
 Alpha virt. eigenvalues --    2.49360   2.50440   2.50840   2.53013   2.53463
 Alpha virt. eigenvalues --    2.54659   2.58031   2.59674   2.60053   2.60836
 Alpha virt. eigenvalues --    2.61099   2.61614   2.61817   2.62284   2.62833
 Alpha virt. eigenvalues --    2.63258   2.63578   2.64980   2.65327   2.65682
 Alpha virt. eigenvalues --    2.66374   2.66649   2.67281   2.67684   2.67952
 Alpha virt. eigenvalues --    2.69426   2.71075   2.71308   2.71939   2.73266
 Alpha virt. eigenvalues --    2.74080   2.75315   2.76070   2.76694   2.78071
 Alpha virt. eigenvalues --    2.79575   2.80371   2.81121   2.83081   2.83471
 Alpha virt. eigenvalues --    2.83841   2.85006   2.86540   2.87699   2.88178
 Alpha virt. eigenvalues --    3.16013   3.22299   3.36970   3.40683   3.46419
 Alpha virt. eigenvalues --    3.47709   3.48709   3.48856   3.48903   3.51728
 Alpha virt. eigenvalues --    3.52766   3.53808   3.59993   3.61211   3.62163
 Alpha virt. eigenvalues --    3.65900   4.39382   4.70713   7.73427  31.22709
          Condensed to atoms (all electrons):
               1          2          3          4          5          6
     1  Zr  15.225924  -0.051917  -0.002637  -0.147442  -0.175413  -0.732273
     2  O   -0.051917   8.851371   0.013911  -0.044228  -0.051425   0.066227
     3  O   -0.002637   0.013911   8.834012   0.015793  -0.048577  -0.003776
     4  O   -0.147442  -0.044228   0.015793   8.825758  -0.064395  -0.716126
     5  O   -0.175413  -0.051425  -0.048577  -0.064395   9.316939  -0.005286
     6  Si  -0.732273   0.066227  -0.003776  -0.716126  -0.005286  14.194790
     7  Si  -0.597080  -0.020271  -0.880190  -0.010858  -0.030898   0.098806
     8  Si  -0.677940  -0.749933  -0.024521   0.072001  -0.011096   0.026108
     9  Si  -0.319703  -0.027290  -0.004935  -0.015316  -1.082450   0.047210
    10  O   -0.034917   0.000669  -0.001820  -0.000360   0.116396  -0.001368
    11  O   -0.113680   0.002124   0.003325   0.002228   0.331270   0.000078
    12  O    0.055789   0.001411   0.006015   0.001558   0.114129  -0.003174
    13  O    0.000363   0.260533   0.001463  -0.015139  -0.000616   0.026192
    14  O   -0.048220   0.247625  -0.017906  -0.002938   0.000352   0.011107
    15  O   -0.058640   0.255146   0.000312   0.002528   0.000803  -0.005085
    16  O   -0.127628   0.005510  -0.000373   0.348787   0.003318  -0.447174
    17  O   -0.099917  -0.039057   0.010006   0.210886   0.000465  -0.438833
    18  O   -0.031856  -0.019385   0.003604   0.210142  -0.001248  -0.482400
    19  O    0.002350   0.008114   0.276432   0.013520   0.002380  -0.009511
    20  O   -0.136577  -0.000782   0.150798  -0.000583   0.001144   0.010121
    21  O    0.035040   0.010999   0.157135   0.003951   0.000467  -0.015342
    22  H   -0.013085  -0.000000   0.000058  -0.000003   0.005956   0.000130
    23  H   -0.007131  -0.000009  -0.000005  -0.000032  -0.024133   0.000140
    24  H   -0.006556  -0.000054  -0.000001   0.000008  -0.002640   0.000135
    25  H    0.021024  -0.021781  -0.000128  -0.001051  -0.000014   0.000960
    26  H   -0.007723  -0.012540   0.000016  -0.000012  -0.000020   0.000203
    27  H    0.008601  -0.020686   0.000737  -0.001605   0.000037   0.009568
    28  H    0.004402  -0.000011  -0.017858  -0.000013  -0.000010  -0.000284
    29  H   -0.000407  -0.005148  -0.019694  -0.000195  -0.000058   0.000662
    30  H   -0.000357  -0.000009   0.000038  -0.000496  -0.000008  -0.000442
    31  H    0.003625   0.000286  -0.000022  -0.018200  -0.000018   0.061018
    32  H    0.002604  -0.000029   0.000035   0.011291   0.000009   0.019123
    33  H   -0.014979   0.000939  -0.010450  -0.009548  -0.000080   0.052665
               7          8          9         10         11         12
     1  Zr  -0.597080  -0.677940  -0.319703  -0.034917  -0.113680   0.055789
     2  O   -0.020271  -0.749933  -0.027290   0.000669   0.002124   0.001411
     3  O   -0.880190  -0.024521  -0.004935  -0.001820   0.003325   0.006015
     4  O   -0.010858   0.072001  -0.015316  -0.000360   0.002228   0.001558
     5  O   -0.030898  -0.011096  -1.082450   0.116396   0.331270   0.114129
     6  Si   0.098806   0.026108   0.047210  -0.001368   0.000078  -0.003174
     7  Si  13.771090   0.173401   0.022227   0.001573  -0.000750   0.002436
     8  Si   0.173401  13.742671   0.039650  -0.001495   0.002077  -0.002652
     9  Si   0.022227   0.039650  13.914490  -0.016085  -0.186203  -0.183070
    10  O    0.001573  -0.001495  -0.016085   8.516077  -0.002200   0.042986
    11  O   -0.000750   0.002077  -0.186203  -0.002200   8.566658  -0.053453
    12  O    0.002436  -0.002652  -0.183070   0.042986  -0.053453   8.599399
    13  O    0.002875  -0.147533  -0.000697  -0.000001   0.000016  -0.000025
    14  O    0.018831  -0.488388  -0.000513  -0.000002   0.000006   0.000019
    15  O   -0.002978  -0.380539  -0.000819  -0.000000  -0.000017   0.000032
    16  O    0.003733  -0.010079  -0.001259   0.000006  -0.000009  -0.000001
    17  O   -0.000505   0.100664   0.003358   0.000006   0.000005  -0.000010
    18  O   -0.001791   0.082065   0.003693   0.000004   0.000006   0.000004
    19  O   -0.435163  -0.018355   0.000827   0.000007   0.000001  -0.000080
    20  O   -0.094120   0.009374   0.003381   0.000044  -0.000003  -0.000062
    21  O    0.017124  -0.048090  -0.001787  -0.000003   0.000003  -0.000003
    22  H   -0.000008   0.000166   0.049844  -0.005500  -0.004878   0.220943
    23  H   -0.000007   0.000053   0.076368   0.231285  -0.005041   0.005474
    24  H    0.000040   0.000187   0.037042   0.007434   0.238934  -0.006822
    25  H   -0.000321   0.054030  -0.000208  -0.000000  -0.000000   0.000000
    26  H    0.000558   0.063540  -0.000306   0.000000   0.000000  -0.000003
    27  H    0.000545   0.075657  -0.000002   0.000000  -0.000000   0.000000
    28  H    0.056372   0.000076  -0.000164  -0.000000  -0.000000  -0.000003
    29  H    0.048384   0.023957  -0.000089   0.000000  -0.000000  -0.000001
    30  H    0.042517   0.000157   0.000008  -0.000000   0.000000   0.000000
    31  H    0.000094  -0.002937  -0.000060   0.000000  -0.000000   0.000000
    32  H   -0.000618   0.000134  -0.000007  -0.000000   0.000000  -0.000000
    33  H    0.021576  -0.000035   0.000072  -0.000000   0.000000   0.000000
              13         14         15         16         17         18
     1  Zr   0.000363  -0.048220  -0.058640  -0.127628  -0.099917  -0.031856
     2  O    0.260533   0.247625   0.255146   0.005510  -0.039057  -0.019385
     3  O    0.001463  -0.017906   0.000312  -0.000373   0.010006   0.003604
     4  O   -0.015139  -0.002938   0.002528   0.348787   0.210886   0.210142
     5  O   -0.000616   0.000352   0.000803   0.003318   0.000465  -0.001248
     6  Si   0.026192   0.011107  -0.005085  -0.447174  -0.438833  -0.482400
     7  Si   0.002875   0.018831  -0.002978   0.003733  -0.000505  -0.001791
     8  Si  -0.147533  -0.488388  -0.380539  -0.010079   0.100664   0.082065
     9  Si  -0.000697  -0.000513  -0.000819  -0.001259   0.003358   0.003693
    10  O   -0.000001  -0.000002  -0.000000   0.000006   0.000006   0.000004
    11  O    0.000016   0.000006  -0.000017  -0.000009   0.000005   0.000006
    12  O   -0.000025   0.000019   0.000032  -0.000001  -0.000010   0.000004
    13  O    8.640903   0.024260  -0.116012   0.003917  -0.028579  -0.042284
    14  O    0.024260   8.810513   0.155012   0.002564  -0.028149  -0.022779
    15  O   -0.116012   0.155012   8.780428  -0.000163   0.003874   0.001150
    16  O    0.003917   0.002564  -0.000163   8.913012  -0.096196  -0.102474
    17  O   -0.028579  -0.028149   0.003874  -0.096196   8.943238   0.224108
    18  O   -0.042284  -0.022779   0.001150  -0.102474   0.224108   9.036175
    19  O    0.000233   0.001694   0.000333  -0.000943  -0.030719   0.000148
    20  O    0.000009  -0.001094   0.000004   0.000047  -0.000821   0.000016
    21  O   -0.000463   0.025818   0.000779  -0.000177  -0.005874   0.000399
    22  H   -0.000000  -0.000000   0.000000  -0.000000   0.000000  -0.000000
    23  H    0.000000   0.000000   0.000000  -0.000000   0.000000   0.000000
    24  H   -0.000000   0.000000   0.000001   0.000000  -0.000000  -0.000000
    25  H    0.216962  -0.009283   0.007487  -0.000258   0.000560   0.015214
    26  H   -0.006675   0.001130   0.225824   0.000000  -0.000021   0.000009
    27  H   -0.004534   0.206673   0.000052   0.000306   0.017779  -0.000815
    28  H    0.000000  -0.000003  -0.000001  -0.000000   0.000003   0.000000
    29  H    0.000779   0.014007  -0.001360  -0.000004  -0.000709  -0.000002
    30  H    0.000001   0.000001   0.000001   0.000103  -0.000427  -0.000009
    31  H    0.002331   0.000074  -0.000020   0.005090  -0.001217   0.216017
    32  H   -0.000007  -0.000006   0.000000   0.236163  -0.003416   0.003903
    33  H    0.000250   0.001987  -0.000055   0.000207   0.229782   0.002246
              19         20         21         22         23         24
     1  Zr   0.002350  -0.136577   0.035040  -0.013085  -0.007131  -0.006556
     2  O    0.008114  -0.000782   0.010999  -0.000000  -0.000009  -0.000054
     3  O    0.276432   0.150798   0.157135   0.000058  -0.000005  -0.000001
     4  O    0.013520  -0.000583   0.003951  -0.000003  -0.000032   0.000008
     5  O    0.002380   0.001144   0.000467   0.005956  -0.024133  -0.002640
     6  Si  -0.009511   0.010121  -0.015342   0.000130   0.000140   0.000135
     7  Si  -0.435163  -0.094120   0.017124  -0.000008  -0.000007   0.000040
     8  Si  -0.018355   0.009374  -0.048090   0.000166   0.000053   0.000187
     9  Si   0.000827   0.003381  -0.001787   0.049844   0.076368   0.037042
    10  O    0.000007   0.000044  -0.000003  -0.005500   0.231285   0.007434
    11  O    0.000001  -0.000003   0.000003  -0.004878  -0.005041   0.238934
    12  O   -0.000080  -0.000062  -0.000003   0.220943   0.005474  -0.006822
    13  O    0.000233   0.000009  -0.000463  -0.000000   0.000000  -0.000000
    14  O    0.001694  -0.001094   0.025818  -0.000000   0.000000   0.000000
    15  O    0.000333   0.000004   0.000779   0.000000   0.000000   0.000001
    16  O   -0.000943   0.000047  -0.000177  -0.000000  -0.000000   0.000000
    17  O   -0.030719  -0.000821  -0.005874   0.000000   0.000000  -0.000000
    18  O    0.000148   0.000016   0.000399  -0.000000   0.000000  -0.000000
    19  O    8.887110   0.033009   0.025962  -0.000000   0.000000  -0.000000
    20  O    0.033009   8.653066  -0.055833   0.000000   0.000000  -0.000000
    21  O    0.025962  -0.055833   8.487363  -0.000001   0.000000   0.000000
    22  H   -0.000000   0.000000  -0.000001   0.357803   0.000055   0.000110
    23  H    0.000000   0.000000   0.000000   0.000055   0.350726   0.000021
    24  H   -0.000000  -0.000000   0.000000   0.000110   0.000021   0.368272
    25  H   -0.000034   0.000000  -0.000012   0.000000   0.000000   0.000000
    26  H    0.000000  -0.000000   0.000044  -0.000000   0.000000  -0.000000
    27  H   -0.000229   0.000224  -0.004738  -0.000000  -0.000000   0.000000
    28  H    0.004359   0.228948  -0.001567  -0.000000   0.000000  -0.000000
    29  H   -0.008633   0.008086   0.208387   0.000000  -0.000000  -0.000000
    30  H    0.223108  -0.001505  -0.007339   0.000000  -0.000000  -0.000000
    31  H    0.000002  -0.000000  -0.000000  -0.000000   0.000000   0.000000
    32  H    0.000091   0.000000   0.000001  -0.000000  -0.000000  -0.000000
    33  H    0.013289  -0.000062   0.001384  -0.000000  -0.000000  -0.000000
              25         26         27         28         29         30
     1  Zr   0.021024  -0.007723   0.008601   0.004402  -0.000407  -0.000357
     2  O   -0.021781  -0.012540  -0.020686  -0.000011  -0.005148  -0.000009
     3  O   -0.000128   0.000016   0.000737  -0.017858  -0.019694   0.000038
     4  O   -0.001051  -0.000012  -0.001605  -0.000013  -0.000195  -0.000496
     5  O   -0.000014  -0.000020   0.000037  -0.000010  -0.000058  -0.000008
     6  Si   0.000960   0.000203   0.009568  -0.000284   0.000662  -0.000442
     7  Si  -0.000321   0.000558   0.000545   0.056372   0.048384   0.042517
     8  Si   0.054030   0.063540   0.075657   0.000076   0.023957   0.000157
     9  Si  -0.000208  -0.000306  -0.000002  -0.000164  -0.000089   0.000008
    10  O   -0.000000   0.000000   0.000000  -0.000000   0.000000  -0.000000
    11  O   -0.000000   0.000000  -0.000000  -0.000000  -0.000000   0.000000
    12  O    0.000000  -0.000003   0.000000  -0.000003  -0.000001   0.000000
    13  O    0.216962  -0.006675  -0.004534   0.000000   0.000779   0.000001
    14  O   -0.009283   0.001130   0.206673  -0.000003   0.014007   0.000001
    15  O    0.007487   0.225824   0.000052  -0.000001  -0.001360   0.000001
    16  O   -0.000258   0.000000   0.000306  -0.000000  -0.000004   0.000103
    17  O    0.000560  -0.000021   0.017779   0.000003  -0.000709  -0.000427
    18  O    0.015214   0.000009  -0.000815   0.000000  -0.000002  -0.000009
    19  O   -0.000034   0.000000  -0.000229   0.004359  -0.008633   0.223108
    20  O    0.000000  -0.000000   0.000224   0.228948   0.008086  -0.001505
    21  O   -0.000012   0.000044  -0.004738  -0.001567   0.208387  -0.007339
    22  H    0.000000  -0.000000  -0.000000  -0.000000   0.000000   0.000000
    23  H    0.000000   0.000000  -0.000000   0.000000  -0.000000  -0.000000
    24  H    0.000000  -0.000000   0.000000  -0.000000  -0.000000  -0.000000
    25  H    0.301511  -0.000031   0.000027   0.000000   0.000001   0.000000
    26  H   -0.000031   0.369326  -0.000036   0.000000   0.000018  -0.000000
    27  H    0.000027  -0.000036   0.284846  -0.000000  -0.000994   0.000006
    28  H    0.000000   0.000000  -0.000000   0.349291  -0.000017  -0.000011
    29  H    0.000001   0.000018  -0.000994  -0.000017   0.286002   0.000167
    30  H    0.000000  -0.000000   0.000006  -0.000011   0.000167   0.334616
    31  H   -0.000187   0.000000   0.000014   0.000000   0.000000  -0.000000
    32  H   -0.000001  -0.000000  -0.000000   0.000000  -0.000000  -0.000000
    33  H    0.000005   0.000000  -0.002451  -0.000002   0.000128  -0.001048
              31         32         33
     1  Zr   0.003625   0.002604  -0.014979
     2  O    0.000286  -0.000029   0.000939
     3  O   -0.000022   0.000035  -0.010450
     4  O   -0.018200   0.011291  -0.009548
     5  O   -0.000018   0.000009  -0.000080
     6  Si   0.061018   0.019123   0.052665
     7  Si   0.000094  -0.000618   0.021576
     8  Si  -0.002937   0.000134  -0.000035
     9  Si  -0.000060  -0.000007   0.000072
    10  O    0.000000  -0.000000  -0.000000
    11  O   -0.000000   0.000000   0.000000
    12  O    0.000000  -0.000000   0.000000
    13  O    0.002331  -0.000007   0.000250
    14  O    0.000074  -0.000006   0.001987
    15  O   -0.000020   0.000000  -0.000055
    16  O    0.005090   0.236163   0.000207
    17  O   -0.001217  -0.003416   0.229782
    18  O    0.216017   0.003903   0.002246
    19  O    0.000002   0.000091   0.013289
    20  O   -0.000000   0.000000  -0.000062
    21  O   -0.000000   0.000001   0.001384
    22  H   -0.000000  -0.000000  -0.000000
    23  H    0.000000  -0.000000  -0.000000
    24  H    0.000000  -0.000000  -0.000000
    25  H   -0.000187  -0.000001   0.000005
    26  H    0.000000  -0.000000   0.000000
    27  H    0.000014  -0.000000  -0.002451
    28  H    0.000000   0.000000  -0.000002
    29  H    0.000000  -0.000000   0.000128
    30  H   -0.000000  -0.000000  -0.001048
    31  H    0.327440  -0.000010  -0.000036
    32  H   -0.000010   0.349038   0.000147
    33  H   -0.000036   0.000147   0.270986
 Mulliken charges:
               1
     1  Zr   0.046360
     2  O   -0.660309
     3  O   -0.440798
     4  O   -0.669908
     5  O   -0.395280
     6  Si   2.235829
     7  Si   1.793377
     8  Si   2.097624
     9  Si   1.642793
    10  O   -0.852737
    11  O   -0.780495
    12  O   -0.800836
    13  O   -0.818520
    14  O   -0.902391
    15  O   -0.868075
    16  O   -0.736024
    17  O   -0.970282
    18  O   -1.093861
    19  O   -0.989302
    20  O   -0.806829
    21  O   -0.833628
    22  H    0.388409
    23  H    0.372238
    24  H    0.363888
    25  H    0.415527
    26  H    0.366699
    27  H    0.431018
    28  H    0.376494
    29  H    0.446734
    30  H    0.410930
    31  H    0.406716
    32  H    0.381555
    33  H    0.443085
 Sum of Mulliken charges =  -0.00000
 Mulliken charges with hydrogens summed into heavy atoms:
               1
     1  Zr   0.046360
     2  O   -0.660309
     3  O   -0.440798
     4  O   -0.669908
     5  O   -0.395280
     6  Si   2.235829
     7  Si   1.793377
     8  Si   2.097624
     9  Si   1.642793
    10  O   -0.480499
    11  O   -0.416607
    12  O   -0.412428
    13  O   -0.402993
    14  O   -0.471374
    15  O   -0.501375
    16  O   -0.354469
    17  O   -0.527197
    18  O   -0.687145
    19  O   -0.578372
    20  O   -0.430335
    21  O   -0.386894
 Electronic spatial extent (au):  <R**2>=           9764.6705
 Charge=             -0.0000 electrons
 Dipole moment (field-independent basis, Debye):
    X=              2.9946    Y=             -1.4836    Z=             -3.0484  Tot=              4.5235
 Quadrupole moment (field-independent basis, Debye-Ang):
   XX=           -166.7614   YY=           -151.6861   ZZ=           -158.7807
   XY=             -6.2634   XZ=             13.2328   YZ=              2.6434
 Traceless Quadrupole moment (field-independent basis, Debye-Ang):
   XX=             -7.6853   YY=              7.3900   ZZ=              0.2954
   XY=             -6.2634   XZ=             13.2328   YZ=              2.6434
 Octapole moment (field-independent basis, Debye-Ang**2):
  XXX=             85.8907  YYY=             -6.9656  ZZZ=            -41.2930  XYY=             -6.0173
  XXY=             25.5840  XXZ=            -20.8937  XZZ=             62.7748  YZZ=            -25.3165
  YYZ=             -2.1051  XYZ=             11.4589
 Hexadecapole moment (field-independent basis, Debye-Ang**3):
 XXXX=          -6058.5787 YYYY=          -2756.9781 ZZZZ=          -2262.5298 XXXY=             23.5568
 XXXZ=             75.2837 YYYX=            -14.8694 YYYZ=            165.7568 ZZZX=             36.0318
 ZZZY=            -86.3545 XXYY=          -1482.0184 XXZZ=          -1464.4884 YYZZ=           -920.7663
 XXYZ=             26.8977 YYXZ=            192.4034 ZZXY=            -61.9195
 N-N= 2.839533934256D+03 E-N=-1.139165308680D+04  KE= 2.373155580083D+03
 PrsmSu:  requested number of processors reduced to:   2 ShMem   1 Linda.
 PrsmSu:  requested number of processors reduced to:  10 ShMem   1 Linda.
   1 Symmetry operations used in ECPInt.
 ECPInt:  NShTT=   13203 NPrTT=   78401 LenC2=   11539 LenP2D=   44762.
 LDataN:  DoStor=T MaxTD1= 9 Len=  602
 Number of processors reduced to  14 by ecpmxn.
 Calling FoFJK, ICntrl=      2127 FMM=F ISym2X=0 I1Cent= 0 IOpClX= 0 NMat=1 NMatS=1 NMatT=0.
 CoulSu:  requested number of processors reduced to:  10 ShMem   1 Linda.
 Defaulting to unpruned grid for atomic number  40.
 Defaulting to unpruned grid for atomic number  40.
 Defaulting to unpruned grid for atomic number  40.
 Defaulting to unpruned grid for atomic number  40.
 Defaulting to unpruned grid for atomic number  40.
 Defaulting to unpruned grid for atomic number  40.
 Defaulting to unpruned grid for atomic number  40.
 Defaulting to unpruned grid for atomic number  40.
 Defaulting to unpruned grid for atomic number  40.
 Defaulting to unpruned grid for atomic number  40.
 Defaulting to unpruned grid for atomic number  40.
 Defaulting to unpruned grid for atomic number  40.
 Defaulting to unpruned grid for atomic number  40.
 Defaulting to unpruned grid for atomic number  40.
 Defaulting to unpruned grid for atomic number  40.
 Defaulting to unpruned grid for atomic number  40.
 ***** Axes restored to original set *****
 -------------------------------------------------------------------
 Center     Atomic                   Forces (Hartrees/Bohr)
 Number     Number              X              Y              Z
 -------------------------------------------------------------------
      1       40          -0.000377290    0.000049658    0.000028123
      2        8          -0.000009572   -0.000006154    0.000015432
      3        8          -0.000002100   -0.000015777   -0.000006717
      4        8           0.000000309   -0.000017202   -0.000015572
      5        8           0.000208948    0.000120777    0.000067071
      6       14           0.000026127   -0.000001385    0.000015199
      7       14           0.000008203   -0.000025259    0.000010172
      8       14           0.000036518   -0.000000111   -0.000027212
      9       14           0.000221016   -0.000294916   -0.000213143
     10        8          -0.000002013    0.000027753    0.000040046
     11        8          -0.000005313    0.000059409    0.000036243
     12        8          -0.000038901    0.000060470    0.000060827
     13        8          -0.000013434    0.000002981    0.000007561
     14        8          -0.000009545    0.000006662   -0.000004939
     15        8          -0.000008456   -0.000004394    0.000013558
     16        8          -0.000014126   -0.000000073   -0.000004716
     17        8          -0.000006988    0.000005491   -0.000006400
     18        8          -0.000009129   -0.000003384   -0.000003095
     19        8          -0.000003899    0.000002231    0.000000378
     20        8           0.000007731    0.000014267   -0.000002079
     21        8          -0.000000352    0.000011275   -0.000011363
     22        1          -0.000012299    0.000027314    0.000023055
     23        1          -0.000004810   -0.000003197   -0.000000008
     24        1          -0.000016942   -0.000016021   -0.000013272
     25        1           0.000002196   -0.000000586    0.000001698
     26        1          -0.000001456    0.000005567   -0.000005817
     27        1           0.000015226    0.000000931   -0.000002542
     28        1          -0.000001190   -0.000005772   -0.000003404
     29        1          -0.000008667   -0.000007463    0.000009536
     30        1           0.000000706    0.000002153   -0.000004494
     31        1           0.000004898    0.000003620    0.000001038
     32        1           0.000010258   -0.000001111   -0.000003663
     33        1           0.000004345    0.000002246   -0.000001501
 -------------------------------------------------------------------
 Cartesian Forces:  Max     0.000377290 RMS     0.000064774

 GradGradGradGradGradGradGradGradGradGradGradGradGradGradGradGradGradGrad
 Berny optimization.
 FormGI is forming the generalized inverse of G from B-inverse, IUseBI=4.
 Internal  Forces:  Max     0.000345843 RMS     0.000044518
 Search for a local minimum.
 Step number   1 out of a maximum of  148
 All quantities printed in internal units (Hartrees-Bohrs-Radians)
 Mixed Optimization -- En-DIIS/RFO-DIIS
 Second derivative matrix not updated -- first step.
 ITU=  0
     Eigenvalues ---    0.00230   0.00230   0.00230   0.00230   0.03239
     Eigenvalues ---    0.03482   0.03500   0.03541   0.03581   0.03661
     Eigenvalues ---    0.03665   0.03674   0.03688   0.03735   0.03789
     Eigenvalues ---    0.03802   0.03811   0.03828   0.03857   0.03858
     Eigenvalues ---    0.08414   0.09469   0.11097   0.11247   0.11629
     Eigenvalues ---    0.11809   0.11979   0.12095   0.12205   0.12217
     Eigenvalues ---    0.12600   0.12707   0.12970   0.13105   0.13263
     Eigenvalues ---    0.16000   0.16000   0.16000   0.16000   0.16000
     Eigenvalues ---    0.16000   0.16000   0.16000   0.16000   0.16000
     Eigenvalues ---    0.16000   0.16000   0.19184   0.19894   0.19953
     Eigenvalues ---    0.20035   0.20159   0.20200   0.20253   0.20422
     Eigenvalues ---    0.20563   0.20992   0.21009   0.21136   0.21189
     Eigenvalues ---    0.21280   0.25000   0.25000   0.25000   0.37992
     Eigenvalues ---    0.40480   0.40678   0.41116   0.41559   0.42453
     Eigenvalues ---    0.42502   0.42606   0.42768   0.43316   0.43953
     Eigenvalues ---    0.44102   0.44216   0.44422   0.44766   0.44782
     Eigenvalues ---    0.50680   0.51458   0.52211   0.52570   0.54329
     Eigenvalues ---    0.54614   0.54649   0.54671   0.54695   0.54715
     Eigenvalues ---    0.54739   0.548931000.000001000.000001000.00000
     Eigenvalues --- 1000.000001000.000001000.000001000.000001000.00000
     Eigenvalues --- 1000.000001000.000001000.000001000.000001000.00000
     Eigenvalues --- 1000.000001000.000001000.000001000.000001000.00000
     Eigenvalues --- 1000.000001000.000001000.000001000.000001000.00000
     Eigenvalues --- 1000.000001000.000001000.000001000.000001000.00000
     Eigenvalues --- 1000.000001000.000001000.000001000.000001000.00000
     Eigenvalues --- 1000.000001000.000001000.000001000.000001000.00000
     Eigenvalues --- 1000.000001000.000001000.000001000.000001000.00000
     Eigenvalues --- 1000.000001000.000001000.00000
 RFO step:  Lambda=-1.49141058D-06 EMin= 2.30000000D-03
 Linear search not attempted -- first point.
 Iteration  1 RMS(Cart)=  0.00585265 RMS(Int)=  0.00000921
 Iteration  2 RMS(Cart)=  0.00001527 RMS(Int)=  0.00000002
 Iteration  3 RMS(Cart)=  0.00000000 RMS(Int)=  0.00000002
 Iteration  1 RMS(Cart)=  0.00000000 RMS(Int)=  0.00000000
 Variable       Old X    -DE/DX   Delta X   Delta X   Delta X     New X
                                 (Linear)    (Quad)   (Total)
    R1        3.67636  -0.00001   0.00000  -0.00003  -0.00003   3.67633
    R2        3.69031  -0.00002   0.00000  -0.00012  -0.00012   3.69019
    R3        3.73798   0.00001   0.00000   0.00005   0.00005   3.73803
    R4        3.71087   0.00035   0.00000   0.00173   0.00173   3.71260
    R5        3.13764  -0.00003   0.00000  -0.00008  -0.00008   3.13756
    R6        3.09653  -0.00001   0.00000  -0.00001  -0.00001   3.09652
    R7        3.10211  -0.00001   0.00000  -0.00003  -0.00003   3.10208
    R8        3.09249   0.00010   0.00000   0.00023   0.00023   3.09272
    R9        3.11657   0.00001   0.00000   0.00002   0.00002   3.11659
   R10        3.11988   0.00001   0.00000   0.00001   0.00001   3.11990
   R11        3.14342   0.00000   0.00000   0.00000   0.00000   3.14343
   R12        3.18077   0.00000   0.00000   0.00001   0.00001   3.18078
   R13        3.10982   0.00001   0.00000   0.00002   0.00002   3.10984
   R14        3.09230   0.00000   0.00000   0.00001   0.00001   3.09231
   R15        3.10032   0.00000   0.00000   0.00000   0.00000   3.10032
   R16        3.14606   0.00000   0.00000   0.00001   0.00001   3.14606
   R17        3.09896   0.00001   0.00000   0.00002   0.00002   3.09898
   R18        3.11858  -0.00002   0.00000  -0.00004  -0.00004   3.11854
   R19        3.13188  -0.00005   0.00000  -0.00012  -0.00012   3.13176
   R20        3.12050   0.00012   0.00000   0.00027   0.00027   3.12077
   R21        1.82146  -0.00000   0.00000  -0.00000  -0.00000   1.82146
   R22        1.82064   0.00001   0.00000   0.00002   0.00002   1.82066
   R23        1.82104   0.00001   0.00000   0.00001   0.00001   1.82106
   R24        1.84058  -0.00000   0.00000  -0.00000  -0.00000   1.84057
   R25        1.84398  -0.00001   0.00000  -0.00001  -0.00001   1.84397
   R26        1.81928  -0.00000   0.00000  -0.00001  -0.00001   1.81927
   R27        1.82086   0.00001   0.00000   0.00002   0.00002   1.82088
   R28        1.85885   0.00000   0.00000   0.00001   0.00001   1.85886
   R29        1.82126  -0.00000   0.00000  -0.00001  -0.00001   1.82125
   R30        1.82433   0.00000   0.00000   0.00000   0.00000   1.82434
   R31        1.82176  -0.00001   0.00000  -0.00001  -0.00001   1.82175
   R32        1.85122   0.00001   0.00000   0.00003   0.00003   1.85124
    A1        1.85569  -0.00002   0.00000  -0.00005  -0.00005   1.85565
    A2        1.80097   0.00002   0.00000   0.00010   0.00010   1.80107
    A3        1.97659   0.00000   0.00000   0.00001   0.00001   1.97660
    A4        1.83906   0.00001   0.00000   0.00003   0.00003   1.83909
    A5        2.01332   0.00002   0.00000   0.00012   0.00012   2.01344
    A6        1.96025  -0.00004   0.00000  -0.00021  -0.00021   1.96004
    A7        2.45892  -0.00006   0.00000  -0.00024  -0.00024   2.45869
    A8        2.59369  -0.00000   0.00000  -0.00001  -0.00001   2.59368
    A9        2.34042   0.00000   0.00000   0.00001   0.00001   2.34044
   A10        2.70526   0.00027   0.00000   0.00000  -0.00000   2.70526
   A11        1.92384   0.00000   0.00000  -0.00001  -0.00001   1.92384
   A12        1.91272  -0.00000   0.00000  -0.00001  -0.00001   1.91271
   A13        1.94584   0.00001   0.00000   0.00005   0.00005   1.94589
   A14        2.00429  -0.00001   0.00000  -0.00005  -0.00005   2.00423
   A15        1.88341  -0.00000   0.00000  -0.00001  -0.00001   1.88339
   A16        1.79022   0.00001   0.00000   0.00004   0.00004   1.79025
   A17        1.80104   0.00000   0.00000   0.00004   0.00004   1.80107
   A18        1.99287  -0.00001   0.00000  -0.00005  -0.00005   1.99283
[...]
 Alpha virt. eigenvalues --    3.16025   3.22322   3.37018   3.40608   3.46450
 Alpha virt. eigenvalues --    3.47714   3.48706   3.48855   3.48907   3.51770
 Alpha virt. eigenvalues --    3.52747   3.53787   3.59987   3.61206   3.62154
 Alpha virt. eigenvalues --    3.65886   4.39434   4.70919   7.72438  31.22650
          Condensed to atoms (all electrons):
               1          2          3          4          5          6
     1  Zr  15.206526  -0.049525  -0.002594  -0.144778  -0.175144  -0.733135
     2  O   -0.049525   8.852236   0.013879  -0.044676  -0.050845   0.065095
     3  O   -0.002594   0.013879   8.834327   0.015777  -0.048586  -0.003362
     4  O   -0.144778  -0.044676   0.015777   8.826548  -0.064307  -0.718680
     5  O   -0.175144  -0.050845  -0.048586  -0.064307   9.316484  -0.005275
     6  Si  -0.733135   0.065095  -0.003362  -0.718680  -0.005275  14.200760
     7  Si  -0.592877  -0.020565  -0.879007  -0.011368  -0.030924   0.098556
     8  Si  -0.674512  -0.752952  -0.024473   0.071649  -0.011190   0.027284
     9  Si  -0.314809  -0.027388  -0.005817  -0.015326  -1.081361   0.046879
    10  O   -0.036149   0.000665  -0.001783  -0.000369   0.117093  -0.001268
    11  O   -0.113491   0.002065   0.003354   0.002302   0.333343   0.000047
    12  O    0.054056   0.001598   0.005906   0.001565   0.113856  -0.003087
    13  O    0.001124   0.261210   0.001445  -0.015108  -0.000584   0.025737
    14  O   -0.048288   0.247659  -0.017949  -0.002945   0.000353   0.011107
    15  O   -0.059530   0.256151   0.000332   0.002529   0.000803  -0.004821
    16  O   -0.127845   0.005531  -0.000410   0.349311   0.003324  -0.447184
    17  O   -0.098930  -0.038891   0.010263   0.210761   0.000483  -0.440019
    18  O   -0.031586  -0.019465   0.003613   0.210253  -0.001225  -0.483104
    19  O    0.002874   0.008092   0.276391   0.013632   0.002412  -0.009514
    20  O   -0.136912  -0.000781   0.150801  -0.000578   0.001159   0.010223
    21  O    0.035071   0.010922   0.156669   0.003981   0.000461  -0.015339
    22  H   -0.013000  -0.000002   0.000057  -0.000003   0.005946   0.000130
    23  H   -0.007040  -0.000009  -0.000006  -0.000031  -0.024147   0.000139
    24  H   -0.006348  -0.000056  -0.000002   0.000007  -0.002253   0.000136
    25  H    0.020957  -0.021834  -0.000127  -0.001039  -0.000015   0.000935
    26  H   -0.007775  -0.012318   0.000016  -0.000012  -0.000019   0.000201
    27  H    0.008196  -0.020682   0.000736  -0.001612   0.000036   0.009822
    28  H    0.004410  -0.000012  -0.017877  -0.000013  -0.000010  -0.000283
    29  H   -0.000498  -0.005115  -0.019651  -0.000195  -0.000057   0.000667
    30  H   -0.000364  -0.000009   0.000047  -0.000499  -0.000008  -0.000435
    31  H    0.003594   0.000282  -0.000022  -0.018222  -0.000019   0.061141
    32  H    0.002617  -0.000029   0.000035   0.011334   0.000009   0.019047
    33  H   -0.014883   0.000926  -0.010451  -0.009512  -0.000081   0.052579
               7          8          9         10         11         12
     1  Zr  -0.592877  -0.674512  -0.314809  -0.036149  -0.113491   0.054056
     2  O   -0.020565  -0.752952  -0.027388   0.000665   0.002065   0.001598
     3  O   -0.879007  -0.024473  -0.005817  -0.001783   0.003354   0.005906
     4  O   -0.011368   0.071649  -0.015326  -0.000369   0.002302   0.001565
     5  O   -0.030924  -0.011190  -1.081361   0.117093   0.333343   0.113856
     6  Si   0.098556   0.027284   0.046879  -0.001268   0.000047  -0.003087
     7  Si  13.767667   0.172340   0.022012   0.001656  -0.000780   0.002321
     8  Si   0.172340  13.744288   0.039486  -0.001483   0.002093  -0.002593
     9  Si   0.022012   0.039486  13.910073  -0.015225  -0.189194  -0.182728
    10  O    0.001656  -0.001483  -0.015225   8.516312  -0.003634   0.043429
    11  O   -0.000780   0.002093  -0.189194  -0.003634   8.567864  -0.051917
    12  O    0.002321  -0.002593  -0.182728   0.043429  -0.051917   8.598638
    13  O    0.002798  -0.149098  -0.000722  -0.000001   0.000016  -0.000028
    14  O    0.018907  -0.487214  -0.000495  -0.000002   0.000006   0.000019
    15  O   -0.002930  -0.381357  -0.000796  -0.000000  -0.000017   0.000040
    16  O    0.003758  -0.010196  -0.001267   0.000006  -0.000010  -0.000001
    17  O   -0.000826   0.100198   0.003349   0.000006   0.000005  -0.000010
    18  O   -0.001846   0.082302   0.003665   0.000004   0.000007   0.000004
    19  O   -0.435892  -0.018220   0.000804   0.000007   0.000000  -0.000081
    20  O   -0.093724   0.009325   0.003382   0.000045  -0.000003  -0.000056
    21  O    0.017254  -0.047663  -0.001759  -0.000002   0.000003  -0.000004
    22  H    0.000000   0.000166   0.049500  -0.005410  -0.004815   0.221133
    23  H   -0.000011   0.000053   0.076190   0.231330  -0.005019   0.005528
    24  H    0.000039   0.000197   0.036243   0.007402   0.238880  -0.006731
    25  H   -0.000319   0.054189  -0.000208  -0.000000  -0.000000  -0.000000
    26  H    0.000559   0.063201  -0.000314   0.000000   0.000000  -0.000004
    27  H    0.000591   0.075651   0.000001   0.000000  -0.000000   0.000000
    28  H    0.056397   0.000079  -0.000164  -0.000000  -0.000000  -0.000003
    29  H    0.048358   0.023875  -0.000088   0.000000  -0.000000  -0.000001
    30  H    0.042542   0.000144   0.000007  -0.000000   0.000000   0.000000
    31  H    0.000094  -0.002941  -0.000060   0.000000  -0.000000   0.000000
    32  H   -0.000614   0.000139  -0.000005  -0.000000   0.000000  -0.000000
    33  H    0.021566  -0.000029   0.000073  -0.000000   0.000000   0.000000
              13         14         15         16         17         18
     1  Zr   0.001124  -0.048288  -0.059530  -0.127845  -0.098930  -0.031586
     2  O    0.261210   0.247659   0.256151   0.005531  -0.038891  -0.019465
     3  O    0.001445  -0.017949   0.000332  -0.000410   0.010263   0.003613
     4  O   -0.015108  -0.002945   0.002529   0.349311   0.210761   0.210253
     5  O   -0.000584   0.000353   0.000803   0.003324   0.000483  -0.001225
     6  Si   0.025737   0.011107  -0.004821  -0.447184  -0.440019  -0.483104
     7  Si   0.002798   0.018907  -0.002930   0.003758  -0.000826  -0.001846
     8  Si  -0.149098  -0.487214  -0.381357  -0.010196   0.100198   0.082302
     9  Si  -0.000722  -0.000495  -0.000796  -0.001267   0.003349   0.003665
    10  O   -0.000001  -0.000002  -0.000000   0.000006   0.000006   0.000004
    11  O    0.000016   0.000006  -0.000017  -0.000010   0.000005   0.000007
    12  O   -0.000028   0.000019   0.000040  -0.000001  -0.000010   0.000004
    13  O    8.641000   0.024462  -0.115998   0.003915  -0.028532  -0.042253
    14  O    0.024462   8.809504   0.154863   0.002566  -0.028097  -0.022774
    15  O   -0.115998   0.154863   8.781332  -0.000164   0.003882   0.001156
    16  O    0.003915   0.002566  -0.000164   8.912973  -0.096273  -0.102628
    17  O   -0.028532  -0.028097   0.003882  -0.096273   8.943174   0.224448
    18  O   -0.042253  -0.022774   0.001156  -0.102628   0.224448   9.036296
    19  O    0.000231   0.001627   0.000333  -0.000916  -0.030634   0.000142
    20  O    0.000009  -0.001089   0.000005   0.000046  -0.000819   0.000016
    21  O   -0.000463   0.025767   0.000761  -0.000177  -0.005847   0.000399
    22  H   -0.000000  -0.000000   0.000001  -0.000000   0.000000  -0.000000
    23  H    0.000000   0.000000   0.000000  -0.000000   0.000000   0.000000
    24  H   -0.000000   0.000000   0.000001   0.000000  -0.000000  -0.000000
    25  H    0.216959  -0.009299   0.007473  -0.000255   0.000555   0.015204
    26  H   -0.006645   0.001092   0.225927   0.000000  -0.000021   0.000009
    27  H   -0.004536   0.206757   0.000063   0.000304   0.017800  -0.000806
    28  H    0.000000  -0.000003  -0.000001  -0.000000   0.000003   0.000000
    29  H    0.000781   0.014063  -0.001345  -0.000004  -0.000710  -0.000002
    30  H    0.000001   0.000002   0.000001   0.000102  -0.000434  -0.000009
    31  H    0.002330   0.000074  -0.000020   0.005058  -0.001216   0.215963
    32  H   -0.000007  -0.000006   0.000000   0.236153  -0.003391   0.003883
    33  H    0.000248   0.001981  -0.000055   0.000220   0.229837   0.002238
              19         20         21         22         23         24
     1  Zr   0.002874  -0.136912   0.035071  -0.013000  -0.007040  -0.006348
     2  O    0.008092  -0.000781   0.010922  -0.000002  -0.000009  -0.000056
     3  O    0.276391   0.150801   0.156669   0.000057  -0.000006  -0.000002
     4  O    0.013632  -0.000578   0.003981  -0.000003  -0.000031   0.000007
     5  O    0.002412   0.001159   0.000461   0.005946  -0.024147  -0.002253
     6  Si  -0.009514   0.010223  -0.015339   0.000130   0.000139   0.000136
     7  Si  -0.435892  -0.093724   0.017254   0.000000  -0.000011   0.000039
     8  Si  -0.018220   0.009325  -0.047663   0.000166   0.000053   0.000197
     9  Si   0.000804   0.003382  -0.001759   0.049500   0.076190   0.036243
    10  O    0.000007   0.000045  -0.000002  -0.005410   0.231330   0.007402
    11  O    0.000000  -0.000003   0.000003  -0.004815  -0.005019   0.238880
    12  O   -0.000081  -0.000056  -0.000004   0.221133   0.005528  -0.006731
    13  O    0.000231   0.000009  -0.000463  -0.000000   0.000000  -0.000000
    14  O    0.001627  -0.001089   0.025767  -0.000000   0.000000   0.000000
    15  O    0.000333   0.000005   0.000761   0.000001   0.000000   0.000001
    16  O   -0.000916   0.000046  -0.000177  -0.000000  -0.000000   0.000000
    17  O   -0.030634  -0.000819  -0.005847   0.000000   0.000000  -0.000000
    18  O    0.000142   0.000016   0.000399  -0.000000   0.000000  -0.000000
    19  O    8.887351   0.032895   0.025836  -0.000000   0.000000  -0.000000
    20  O    0.032895   8.653046  -0.055907   0.000000   0.000000  -0.000000
    21  O    0.025836  -0.055907   8.487559  -0.000001   0.000000   0.000000
    22  H   -0.000000   0.000000  -0.000001   0.357672   0.000052   0.000105
    23  H    0.000000   0.000000   0.000000   0.000052   0.350794   0.000022
    24  H   -0.000000  -0.000000   0.000000   0.000105   0.000022   0.368294
    25  H   -0.000034   0.000000  -0.000012   0.000000   0.000000   0.000000
    26  H    0.000000  -0.000000   0.000045  -0.000000   0.000000  -0.000000
    27  H   -0.000225   0.000224  -0.004740  -0.000000  -0.000000   0.000000
    28  H    0.004348   0.228946  -0.001559  -0.000000   0.000000  -0.000000
    29  H   -0.008632   0.008091   0.208397   0.000000  -0.000000  -0.000000
    30  H    0.223109  -0.001496  -0.007339   0.000000  -0.000000  -0.000000
    31  H    0.000002  -0.000000  -0.000000  -0.000000   0.000000   0.000000
    32  H    0.000092   0.000000   0.000001  -0.000000  -0.000000  -0.000000
    33  H    0.013248  -0.000061   0.001387  -0.000000  -0.000000  -0.000000
              25         26         27         28         29         30
     1  Zr   0.020957  -0.007775   0.008196   0.004410  -0.000498  -0.000364
     2  O   -0.021834  -0.012318  -0.020682  -0.000012  -0.005115  -0.000009
     3  O   -0.000127   0.000016   0.000736  -0.017877  -0.019651   0.000047
     4  O   -0.001039  -0.000012  -0.001612  -0.000013  -0.000195  -0.000499
     5  O   -0.000015  -0.000019   0.000036  -0.000010  -0.000057  -0.000008
     6  Si   0.000935   0.000201   0.009822  -0.000283   0.000667  -0.000435
     7  Si  -0.000319   0.000559   0.000591   0.056397   0.048358   0.042542
     8  Si   0.054189   0.063201   0.075651   0.000079   0.023875   0.000144
     9  Si  -0.000208  -0.000314   0.000001  -0.000164  -0.000088   0.000007
    10  O   -0.000000   0.000000   0.000000  -0.000000   0.000000  -0.000000
    11  O   -0.000000   0.000000  -0.000000  -0.000000  -0.000000   0.000000
    12  O   -0.000000  -0.000004   0.000000  -0.000003  -0.000001   0.000000
    13  O    0.216959  -0.006645  -0.004536   0.000000   0.000781   0.000001
    14  O   -0.009299   0.001092   0.206757  -0.000003   0.014063   0.000002
    15  O    0.007473   0.225927   0.000063  -0.000001  -0.001345   0.000001
    16  O   -0.000255   0.000000   0.000304  -0.000000  -0.000004   0.000102
    17  O    0.000555  -0.000021   0.017800   0.000003  -0.000710  -0.000434
    18  O    0.015204   0.000009  -0.000806   0.000000  -0.000002  -0.000009
    19  O   -0.000034   0.000000  -0.000225   0.004348  -0.008632   0.223109
    20  O    0.000000  -0.000000   0.000224   0.228946   0.008091  -0.001496
    21  O   -0.000012   0.000045  -0.004740  -0.001559   0.208397  -0.007339
    22  H    0.000000  -0.000000  -0.000000  -0.000000   0.000000   0.000000
    23  H    0.000000   0.000000  -0.000000   0.000000  -0.000000  -0.000000
    24  H    0.000000  -0.000000   0.000000  -0.000000  -0.000000  -0.000000
    25  H    0.301610  -0.000031   0.000027   0.000000   0.000001   0.000000
    26  H   -0.000031   0.369346  -0.000036   0.000000   0.000018  -0.000000
    27  H    0.000027  -0.000036   0.284840  -0.000000  -0.000996   0.000006
    28  H    0.000000   0.000000  -0.000000   0.349264  -0.000017  -0.000011
    29  H    0.000001   0.000018  -0.000996  -0.000017   0.285966   0.000167
    30  H    0.000000  -0.000000   0.000006  -0.000011   0.000167   0.334605
    31  H   -0.000189   0.000000   0.000014   0.000000   0.000000  -0.000000
    32  H   -0.000001  -0.000000  -0.000000   0.000000  -0.000000  -0.000000
    33  H    0.000005   0.000000  -0.002451  -0.000002   0.000127  -0.001047
              31         32         33
     1  Zr   0.003594   0.002617  -0.014883
     2  O    0.000282  -0.000029   0.000926
     3  O   -0.000022   0.000035  -0.010451
     4  O   -0.018222   0.011334  -0.009512
     5  O   -0.000019   0.000009  -0.000081
     6  Si   0.061141   0.019047   0.052579
     7  Si   0.000094  -0.000614   0.021566
     8  Si  -0.002941   0.000139  -0.000029
     9  Si  -0.000060  -0.000005   0.000073
    10  O    0.000000  -0.000000  -0.000000
    11  O   -0.000000   0.000000   0.000000
    12  O    0.000000  -0.000000   0.000000
    13  O    0.002330  -0.000007   0.000248
    14  O    0.000074  -0.000006   0.001981
    15  O   -0.000020   0.000000  -0.000055
    16  O    0.005058   0.236153   0.000220
    17  O   -0.001216  -0.003391   0.229837
    18  O    0.215963   0.003883   0.002238
    19  O    0.000002   0.000092   0.013248
    20  O   -0.000000   0.000000  -0.000061
    21  O   -0.000000   0.000001   0.001387
    22  H   -0.000000  -0.000000  -0.000000
    23  H    0.000000  -0.000000  -0.000000
    24  H    0.000000  -0.000000  -0.000000
    25  H   -0.000189  -0.000001   0.000005
    26  H    0.000000  -0.000000   0.000000
    27  H    0.000014  -0.000000  -0.002451
    28  H    0.000000   0.000000  -0.000002
    29  H    0.000000  -0.000000   0.000127
    30  H   -0.000000  -0.000000  -0.001047
    31  H    0.327544  -0.000010  -0.000036
    32  H   -0.000010   0.349013   0.000146
    33  H   -0.000036   0.000146   0.270956
 Mulliken charges:
               1
     1  Zr   0.050588
     2  O   -0.661160
     3  O   -0.441531
     4  O   -0.670377
     5  O   -0.399713
     6  Si   2.235021
     7  Si   1.794266
     8  Si   2.097264
     9  Si   1.646064
    10  O   -0.852627
    11  O   -0.781107
    12  O   -0.800851
    13  O   -0.818291
    14  O   -0.902650
    15  O   -0.868616
    16  O   -0.735939
    17  O   -0.970113
    18  O   -1.093903
    19  O   -0.989278
    20  O   -0.806787
    21  O   -0.833702
    22  H    0.388469
    23  H    0.372156
    24  H    0.364066
    25  H    0.415448
    26  H    0.366762
    27  H    0.431016
    28  H    0.376507
    29  H    0.446799
    30  H    0.410918
    31  H    0.406637
    32  H    0.381592
    33  H    0.443072
 Sum of Mulliken charges =  -0.00000
 Mulliken charges with hydrogens summed into heavy atoms:
               1
     1  Zr   0.050588
     2  O   -0.661160
     3  O   -0.441531
     4  O   -0.670377
     5  O   -0.399713
     6  Si   2.235021
     7  Si   1.794266
     8  Si   2.097264
     9  Si   1.646064
    10  O   -0.480470
    11  O   -0.417041
    12  O   -0.412383
    13  O   -0.402843
    14  O   -0.471634
    15  O   -0.501855
    16  O   -0.354347
    17  O   -0.527042
    18  O   -0.687266
    19  O   -0.578360
    20  O   -0.430280
    21  O   -0.386903
 Electronic spatial extent (au):  <R**2>=           9764.6635
 Charge=             -0.0000 electrons
 Dipole moment (field-independent basis, Debye):
    X=              2.9693    Y=             -1.4734    Z=             -3.0929  Tot=              4.5337
 Quadrupole moment (field-independent basis, Debye-Ang):
   XX=           -166.8290   YY=           -151.6942   ZZ=           -158.8609
   XY=             -6.3233   XZ=             13.1276   YZ=              2.7853
 Traceless Quadrupole moment (field-independent basis, Debye-Ang):
   XX=             -7.7010   YY=              7.4338   ZZ=              0.2671
   XY=             -6.3233   XZ=             13.1276   YZ=              2.7853
 Octapole moment (field-independent basis, Debye-Ang**2):
  XXX=             84.2883  YYY=             -7.5734  ZZZ=            -42.0839  XYY=             -6.1630
  XXY=             26.0016  XXZ=            -21.2932  XZZ=             63.1644  YZZ=            -24.3822
  YYZ=             -2.3149  XYZ=             11.2957
 Hexadecapole moment (field-independent basis, Debye-Ang**3):
 XXXX=          -6062.8820 YYYY=          -2756.6993 ZZZZ=          -2263.2462 XXXY=             23.2696
 XXXZ=             72.2895 YYYX=            -18.1592 YYYZ=            168.2225 ZZZX=             38.1023
 ZZZY=            -84.5890 XXYY=          -1483.7449 XXZZ=          -1462.3001 YYZZ=           -923.2860
 XXYZ=             25.7119 YYXZ=            191.1236 ZZXY=            -59.4406
 N-N= 2.839515157443D+03 E-N=-1.139160809905D+04  KE= 2.373154090611D+03
 1\1\GINC-GRA815\FOpt\RB3LYP\Gen\H12O16Si4Zr1\SARASHS\02-Aug-2020\0\\#n
  B3LYP/Gen Pseudo=cards EmpiricalDispersion=GD3 Opt=modredundant\\Titl
 e\\0,1\Zr,0.6466015186,-0.1867327016,-0.1567370448\O,-0.1879923505,-0.
 9276670382,1.4366357013\O,0.1704249475,1.7066450592,-0.1961516155\O,-0
 .3789360792,-1.0167513876,-1.6304911463\O,2.5688941584,-0.5731484599,-
 0.2779117247\Si,-1.9706114965,-1.3339446417,-1.8769950469\Si,-0.992908
 8965,2.8583556094,-0.1232839985\Si,-1.6690136312,-1.0478397062,2.17753
 44814\Si,4.1581244758,-0.2940781588,-0.0039271283\O,4.9164842534,0.536
 9200034,-1.2112493687\O,4.9779383212,-1.728550316,0.1241487717\O,4.191
 5442522,0.6354224239,1.3608415524\O,-2.3295110293,-2.5098987922,1.8343
 54639\O,-2.6175544771,0.2110308245,1.6416157075\O,-1.543039464,-0.8174
 930425,3.7962655962\O,-2.2581403684,-1.5959635532,-3.4796938481\O,-2.8
 851020004,-0.1408095297,-1.194508514\O,-2.4589012066,-2.686939616,-1.0
 41540455\O,-2.0130512041,2.455057961,-1.3999259051\O,-0.4514046406,4.3
 831543519,-0.4232360739\O,-1.759561536,2.8696579395,1.3223165277\H,5.0
 183991113,1.0878820144,1.5613690572\H,5.3630277346,0.0021640231,-1.877
 3504593\H,4.5530243029,-2.437013045,0.6198887897\H,-2.4027845421,-2.74
 45654695,0.8919107102\H,-0.9192592063,-1.3729706027,4.2749809341\H,-3.
 027014704,0.0471993153,0.7711710966\H,-0.2957904539,4.9364265126,0.350
 7374177\H,-2.0944616466,2.0057204785,1.6403345058\H,-2.6147370068,3.15
 60291783,-1.6802956373\H,-2.5639877744,-3.4934377957,-1.5586113404\H,-
 1.5572965668,-1.3429140713,-4.0906370915\H,-2.6432127945,0.7882522326,
 -1.40883909\\Version=ES64L-G16RevB.01\State=1-A\HF=-2416.9458657\RMSD=
 7.511e-09\RMSF=1.048e-05\Dipole=1.1826766,-0.5741059,-1.2054904\Quadru
 pole=-5.7720572,5.4538045,0.3182526,-4.7789698,9.7196895,2.1069476\PG=
 C01 [X(H12O16Si4Zr1)]\\@


 Everything starts as somebody's daydream.
                           -- Larry Niven
 Job cpu time:       0 days 16 hours 33 minutes 24.4 seconds.
 Elapsed time:       0 days  1 hours 15 minutes 11.0 seconds.
 File lengths (MBytes):  RWF=    167 Int=      0 D2E=      0 Chk=     21 Scr=      1
 Normal termination of Gaussian 16 at Sun Aug  2 08:18:15 2020.
