 Entering Gaussian System, Link 0=g16
 Initial command:
 /opt/software/gaussian/g16.b01/l1.exe "/localscratch/sarashs.36760146.0/Gau-4972.inp" -scrdir="/localscratch/sarashs.36760146.0/"
 Entering Link 1 = /opt/software/gaussian/g16.b01/l1.exe PID=      4973.
  
 Copyright (c) 1988-2017, Gaussian, Inc.  All Rights Reserved.
  
 This is part of the Gaussian(R) 16 program.  It is based on
 the Gaussian(R) 09 system (copyright 2009, Gaussian, Inc.),
 the Gaussian(R) 03 system (copyright 2003, Gaussian, Inc.),
 the Gaussian(R) 98 system (copyright 1998, Gaussian, Inc.),
 the Gaussian(R) 94 system (copyright 1995, Gaussian, Inc.),
 the Gaussian 92(TM) system (copyright 1992, Gaussian, Inc.),
 the Gaussian 90(TM) system (copyright 1990, Gaussian, Inc.),
 the Gaussian 88(TM) system (copyright 1988, Gaussian, Inc.),
 the Gaussian 86(TM) system (copyright 1986, Carnegie Mellon
 University), and the Gaussian 82(TM) system (copyright 1983,
 Carnegie Mellon University). Gaussian is a federally registered
 trademark of Gaussian, Inc.
  
 This software contains proprietary and confidential information,
 including trade secrets, belonging to Gaussian, Inc.
  
 This software is provided under written license and may be
 used, copied, transmitted, or stored only in accord with that
 written license.
  
 The following legend is applicable only to US Government
 contracts under FAR:
  
                    RESTRICTED RIGHTS LEGEND
  
 Use, reproduction and disclosure by the US Government is
 subject to restrictions as set forth in subparagraphs (a)
 and (c) of the Commercial Computer Software - Restricted
 Rights clause in FAR 52.227-19.
  
 Gaussian, Inc.
 340 Quinnipiac St., Bldg. 40, Wallingford CT 06492
  
  
 ---------------------------------------------------------------
 Warning -- This program may not be used in any manner that
 competes with the business of Gaussian, Inc. or will provide
 assistance to any competitor of Gaussian, Inc.  The licensee
 of this program is prohibited from giving any competitor of
 Gaussian, Inc. access to this program.  By using this program,
 the user acknowledges that Gaussian, Inc. is engaged in the
 business of creating and licensing software in the field of
 computational chemistry and represents and warrants to the
 licensee that it is not a competitor of Gaussian, Inc. and that
 it will not use this program in any manner prohibited above.
 ---------------------------------------------------------------
  

 Cite this work as:
 Gaussian 16, Revision B.01,
 M. J. Frisch, G. W. Trucks, H. B. Schlegel, G. E. Scuseria, 
 M. A. Robb, J. R. Cheeseman, G. Scalmani, V. Barone, 
 G. A. Petersson, H. Nakatsuji, X. Li, M. Caricato, A. V. Marenich, 
 J. Bloino, B. G. Janesko, R. Gomperts, B. Mennucci, H. P. Hratchian, 
 J. V. Ortiz, A. F. Izmaylov, J. L. Sonnenberg, D. Williams-Young, 
 F. Ding, F. Lipparini, F. Egidi, J. Goings, B. Peng, A. Petrone, 
 T. Henderson, D. Ranasinghe, V. G. Zakrzewski, J. Gao, N. Rega, 
 G. Zheng, W. Liang, M. Hada, M. Ehara, K. Toyota, R. Fukuda, 
 J. Hasegawa, M. Ishida, T. Nakajima, Y. Honda, O. Kitao, H. Nakai, 
 T. Vreven, K. Throssell, J. A. Montgomery, Jr., J. E. Peralta, 
 F. Ogliaro, M. J. Bearpark, J. J. Heyd, E. N. Brothers, K. N. Kudin, 
 V. N. Staroverov, T. A. Keith, R. Kobayashi, J. Normand, 
 K. Raghavachari, A. P. Rendell, J. C. Burant, S. S. Iyengar, 
 J. Tomasi, M. Cossi, J. M. Millam, M. Klene, C. Adamo, R. Cammi, 
 J. W. Ochterski, R. L. Martin, K. Morokuma, O. Farkas, 
 J. B. Foresman, and D. J. Fox, Gaussian, Inc., Wallingford CT, 2016.
 
 ******************************************
 Gaussian 16:  ES64L-G16RevB.01 20-Dec-2017
                 2-Aug-2020 
 ******************************************
 %NProcShared=16
 Will use up to   16 processors via shared memory.
 ------------------------------------------------------------------
 #n B3LYP/Gen Pseudo=cards EmpiricalDispersion=GD3 Opt=modredundant
 ------------------------------------------------------------------
 1/18=120,19=15,26=3,38=1/1,3;
 2/9=110,12=2,17=6,18=5,40=1/2;
 3/5=7,11=2,16=1,17=8,25=1,30=1,71=1,74=-5,124=31/1,2,3;
 4//1;
 5/5=2,38=5/2;
 6/7=2,8=2,9=2,10=2,28=1/1;
 7//1,2,3,16;
 1/18=20,19=15,26=3/3(2);
 2/9=110/2;
 99//99;
 2/9=110/2;
 3/5=7,6=1,11=2,16=1,17=8,25=1,30=1,71=1,74=-5,82=7,124=31/1,2,3;
 4/5=5,16=3,69=1/1;
 5/5=2,38=5/2;
 7//1,2,3,16;
 1/18=20,19=15,26=3/3(-5);
 2/9=110/2;
 6/7=2,8=2,9=2,10=2,19=2,28=1/1;
 99/9=1/99;
 -----
 Title
 -----
 Symbolic Z-matrix:
 Charge =  0 Multiplicity = 1
 Zr                    0.64646  -0.19013  -0.1519 
 O                    -0.19212  -0.93131   1.43939 
 O                     0.17263   1.70395  -0.1904 
 O                    -0.37772  -1.01692  -1.62844 
 O                     2.5678   -0.57883  -0.26812 
 Si                   -1.96924  -1.33216  -1.87829 
 Si                   -0.98958   2.85681  -0.11809 
 Si                   -1.67476  -1.05152   2.17706 
 Si                    4.18459  -0.41301  -0.07701 
 O                     4.93757   0.34711  -1.33346 
 O                     4.9051   -1.90172   0.02947 
 O                     4.35514   0.5248    1.2714 
 O                    -2.33574  -2.51245   1.83004 
 O                    -2.6209    0.20928   1.64149 
 O                    -1.552    -0.82432   3.7965 
 O                    -2.25427  -1.59164  -3.48183 
 O                    -2.88371  -0.13912  -1.19557 
 O                    -2.46027  -2.68598  -1.04579 
 O                    -2.00825   2.45605  -1.3967 
 O                    -0.44623   4.38142  -0.41555 
 O                    -1.75835   2.86715   1.32642 
 H                     5.22304   0.91427   1.4253 
 H                     5.31248  -0.22635  -2.01143 
 H                     4.46229  -2.56951   0.56444 
 H                    -2.40738  -2.74575   0.88712 
 H                    -0.93391  -1.38513   4.27638 
 H                    -3.02928   0.04705   0.77024 
 H                    -0.29029   4.93346   0.35924 
 H                    -2.09489   2.00321   1.64266 
 H                    -2.6086    3.15807  -1.6773 
 H                    -2.56602  -3.49143  -1.56436 
 H                    -1.55278  -1.33714  -4.09141 
 H                    -2.64046   0.78995  -1.40829 
 
 The following ModRedundant input section has been read:
 A       1       5       9 F                                                   
 

 GradGradGradGradGradGradGradGradGradGradGradGradGradGradGradGradGradGrad
 Berny optimization.
 Initialization pass.
                           ----------------------------
                           !    Initial Parameters    !
                           ! (Angstroms and Degrees)  !
 --------------------------                            --------------------------
 ! Name  Definition              Value          Derivative Info.                !
 --------------------------------------------------------------------------------
 ! R1    R(1,2)                  1.9454         estimate D2E/DX2                !
 ! R2    R(1,3)                  1.9528         estimate D2E/DX2                !
 ! R3    R(1,4)                  1.9781         estimate D2E/DX2                !
 ! R4    R(1,5)                  1.9637         estimate D2E/DX2                !
 ! R5    R(2,8)                  1.6604         estimate D2E/DX2                !
 ! R6    R(3,7)                  1.6386         estimate D2E/DX2                !
 ! R7    R(4,6)                  1.6416         estimate D2E/DX2                !
 ! R8    R(5,9)                  1.6365         estimate D2E/DX2                !
 ! R9    R(6,16)                 1.6492         estimate D2E/DX2                !
 ! R10   R(6,17)                 1.651          estimate D2E/DX2                !
 ! R11   R(6,18)                 1.6634         estimate D2E/DX2                !
 ! R12   R(7,19)                 1.6832         estimate D2E/DX2                !
 ! R13   R(7,20)                 1.6456         estimate D2E/DX2                !
 ! R14   R(7,21)                 1.6364         estimate D2E/DX2                !
 ! R15   R(8,13)                 1.6406         estimate D2E/DX2                !
 ! R16   R(8,14)                 1.6648         estimate D2E/DX2                !
 ! R17   R(8,15)                 1.6399         estimate D2E/DX2                !
 ! R18   R(9,10)                 1.6503         estimate D2E/DX2                !
 ! R19   R(9,11)                 1.6573         estimate D2E/DX2                !
 ! R20   R(9,12)                 1.6513         estimate D2E/DX2                !
 ! R21   R(10,23)                0.9639         estimate D2E/DX2                !
 ! R22   R(11,24)                0.9634         estimate D2E/DX2                !
 ! R23   R(12,22)                0.9637         estimate D2E/DX2                !
 ! R24   R(13,25)                0.974          estimate D2E/DX2                !
 ! R25   R(14,27)                0.9758         estimate D2E/DX2                !
 ! R26   R(15,26)                0.9627         estimate D2E/DX2                !
 ! R27   R(16,32)                0.9636         estimate D2E/DX2                !
 ! R28   R(17,33)                0.9837         estimate D2E/DX2                !
 ! R29   R(18,31)                0.9638         estimate D2E/DX2                !
 ! R30   R(19,30)                0.9654         estimate D2E/DX2                !
 ! R31   R(20,28)                0.964          estimate D2E/DX2                !
 ! R32   R(21,29)                0.9796         estimate D2E/DX2                !
 ! A1    A(2,1,3)              106.3234         estimate D2E/DX2                !
 ! A2    A(2,1,4)              103.1879         estimate D2E/DX2                !
 ! A3    A(2,1,5)              113.2501         estimate D2E/DX2                !
 ! A4    A(3,1,4)              105.3705         estimate D2E/DX2                !
 ! A5    A(3,1,5)              115.3549         estimate D2E/DX2                !
 ! A6    A(4,1,5)              112.3142         estimate D2E/DX2                !
 ! A7    A(1,2,8)              140.8859         estimate D2E/DX2                !
 ! A8    A(1,3,7)              148.6074         estimate D2E/DX2                !
 ! A9    A(1,4,6)              134.0964         estimate D2E/DX2                !
 ! A10   A(1,5,9)              159.9998         Frozen                          !
 ! A11   A(4,6,16)             110.2282         estimate D2E/DX2                !
 ! A12   A(4,6,17)             109.5909         estimate D2E/DX2                !
 ! A13   A(4,6,18)             111.4884         estimate D2E/DX2                !
 ! A14   A(16,6,17)            114.8371         estimate D2E/DX2                !
 ! A15   A(16,6,18)            107.9112         estimate D2E/DX2                !
 ! A16   A(17,6,18)            102.5719         estimate D2E/DX2                !
 ! A17   A(3,7,19)             103.1918         estimate D2E/DX2                !
 ! A18   A(3,7,20)             114.1832         estimate D2E/DX2                !
 ! A19   A(3,7,21)             112.1241         estimate D2E/DX2                !
 ! A20   A(19,7,20)            106.4451         estimate D2E/DX2                !
 ! A21   A(19,7,21)            112.8144         estimate D2E/DX2                !
 ! A22   A(20,7,21)            107.9884         estimate D2E/DX2                !
 ! A23   A(2,8,13)             109.2843         estimate D2E/DX2                !
 ! A24   A(2,8,14)             108.0427         estimate D2E/DX2                !
 ! A25   A(2,8,15)             111.2146         estimate D2E/DX2                !
 ! A26   A(13,8,14)            112.1704         estimate D2E/DX2                !
 ! A27   A(13,8,15)            111.2482         estimate D2E/DX2                !
 ! A28   A(14,8,15)            104.7916         estimate D2E/DX2                !
 ! A29   A(5,9,10)             114.1135         estimate D2E/DX2                !
 ! A30   A(5,9,11)             110.2428         estimate D2E/DX2                !
 ! A31   A(5,9,12)             104.7705         estimate D2E/DX2                !
 ! A32   A(10,9,11)            105.3249         estimate D2E/DX2                !
 ! A33   A(10,9,12)            108.2397         estimate D2E/DX2                !
 ! A34   A(11,9,12)            114.3795         estimate D2E/DX2                !
 ! A35   A(9,10,23)            116.0375         estimate D2E/DX2                !
 ! A36   A(9,11,24)            117.2886         estimate D2E/DX2                !
 ! A37   A(9,12,22)            116.934          estimate D2E/DX2                !
 ! A38   A(8,13,25)            116.5961         estimate D2E/DX2                !
 ! A39   A(8,14,27)            113.5263         estimate D2E/DX2                !
 ! A40   A(8,15,26)            117.3612         estimate D2E/DX2                !
 ! A41   A(6,16,32)            116.5984         estimate D2E/DX2                !
 ! A42   A(6,17,33)            117.1373         estimate D2E/DX2                !
 ! A43   A(6,18,31)            116.3135         estimate D2E/DX2                !
 ! A44   A(7,19,30)            115.0881         estimate D2E/DX2                !
 ! A45   A(7,20,28)            116.018          estimate D2E/DX2                !
 ! A46   A(7,21,29)            116.1544         estimate D2E/DX2                !
 ! D1    D(3,1,2,8)             54.013          estimate D2E/DX2                !
 ! D2    D(4,1,2,8)            -56.615          estimate D2E/DX2                !
 ! D3    D(5,1,2,8)           -178.2908         estimate D2E/DX2                !
 ! D4    D(2,1,3,7)            -51.1331         estimate D2E/DX2                !
 ! D5    D(4,1,3,7)             57.9568         estimate D2E/DX2                !
 ! D6    D(5,1,3,7)           -177.5709         estimate D2E/DX2                !
 ! D7    D(2,1,4,6)             41.2968         estimate D2E/DX2                !
 ! D8    D(3,1,4,6)            -70.0365         estimate D2E/DX2                !
 ! D9    D(5,1,4,6)            163.602          estimate D2E/DX2                !
 ! D10   D(2,1,5,9)            -89.6366         estimate D2E/DX2                !
 ! D11   D(3,1,5,9)             33.19           estimate D2E/DX2                !
 ! D12   D(4,1,5,9)            153.9566         estimate D2E/DX2                !
 ! D13   D(1,2,8,13)            98.0767         estimate D2E/DX2                !
 ! D14   D(1,2,8,14)           -24.2296         estimate D2E/DX2                !
 ! D15   D(1,2,8,15)          -138.7156         estimate D2E/DX2                !
 ! D16   D(1,3,7,19)           -58.6416         estimate D2E/DX2                !
 ! D17   D(1,3,7,20)          -173.7291         estimate D2E/DX2                !
 ! D18   D(1,3,7,21)            63.0404         estimate D2E/DX2                !
 ! D19   D(1,4,6,16)           161.8736         estimate D2E/DX2                !
 ! D20   D(1,4,6,17)            34.551          estimate D2E/DX2                !
 ! D21   D(1,4,6,18)           -78.3045         estimate D2E/DX2                !
 ! D22   D(1,5,9,10)           -93.0133         estimate D2E/DX2                !
 ! D23   D(1,5,9,11)           148.7127         estimate D2E/DX2                !
 ! D24   D(1,5,9,12)            25.1933         estimate D2E/DX2                !
 ! D25   D(4,6,16,32)          -13.7229         estimate D2E/DX2                !
 ! D26   D(17,6,16,32)         110.6319         estimate D2E/DX2                !
 ! D27   D(18,6,16,32)        -135.686          estimate D2E/DX2                !
 ! D28   D(4,6,17,33)           49.7998         estimate D2E/DX2                !
 ! D29   D(16,6,17,33)         -74.8906         estimate D2E/DX2                !
 ! D30   D(18,6,17,33)         168.3378         estimate D2E/DX2                !
 ! D31   D(4,6,18,31)         -102.9126         estimate D2E/DX2                !
 ! D32   D(16,6,18,31)          18.2691         estimate D2E/DX2                !
 ! D33   D(17,6,18,31)         139.8941         estimate D2E/DX2                !
 ! D34   D(3,7,19,30)         -162.9704         estimate D2E/DX2                !
 ! D35   D(20,7,19,30)         -42.4468         estimate D2E/DX2                !
 ! D36   D(21,7,19,30)          75.8144         estimate D2E/DX2                !
 ! D37   D(3,7,20,28)         -100.1112         estimate D2E/DX2                !
 ! D38   D(19,7,20,28)         146.7232         estimate D2E/DX2                !
 ! D39   D(21,7,20,28)          25.3303         estimate D2E/DX2                !
 ! D40   D(3,7,21,29)          -50.5298         estimate D2E/DX2                !
 ! D41   D(19,7,21,29)          65.4642         estimate D2E/DX2                !
 ! D42   D(20,7,21,29)        -177.1813         estimate D2E/DX2                !
 ! D43   D(2,8,13,25)          -54.0971         estimate D2E/DX2                !
 ! D44   D(14,8,13,25)          65.6987         estimate D2E/DX2                !
 ! D45   D(15,8,13,25)        -177.2849         estimate D2E/DX2                !
 ! D46   D(2,8,14,27)           81.1206         estimate D2E/DX2                !
 ! D47   D(13,8,14,27)         -39.3971         estimate D2E/DX2                !
 ! D48   D(15,8,14,27)        -160.2179         estimate D2E/DX2                !
 ! D49   D(2,8,15,26)          -54.9076         estimate D2E/DX2                !
 ! D50   D(13,8,15,26)          67.168          estimate D2E/DX2                !
 ! D51   D(14,8,15,26)        -171.403          estimate D2E/DX2                !
 ! D52   D(5,9,10,23)          -94.3723         estimate D2E/DX2                !
 ! D53   D(11,9,10,23)          26.673          estimate D2E/DX2                !
 ! D54   D(12,9,10,23)         149.4212         estimate D2E/DX2                !
 ! D55   D(5,9,11,24)          -42.158          estimate D2E/DX2                !
 ! D56   D(10,9,11,24)        -165.7004         estimate D2E/DX2                !
 ! D57   D(12,9,11,24)          75.5819         estimate D2E/DX2                !
 ! D58   D(5,9,12,22)         -165.3204         estimate D2E/DX2                !
 ! D59   D(10,9,12,22)         -43.1967         estimate D2E/DX2                !
 ! D60   D(11,9,12,22)          73.8597         estimate D2E/DX2                !
 --------------------------------------------------------------------------------
 Trust Radius=3.00D-01 FncErr=1.00D-07 GrdErr=1.00D-06 EigMax=2.50D+02 EigMin=1.00D-04
 Number of steps in this run=    148 maximum allowed number of steps=    198.
 GradGradGradGradGradGradGradGradGradGradGradGradGradGradGradGradGradGrad

                          Input orientation:                          
 ---------------------------------------------------------------------
 Center     Atomic      Atomic             Coordinates (Angstroms)
 Number     Number       Type             X           Y           Z
 ---------------------------------------------------------------------
      1         40           0        0.646460   -0.190130   -0.151900
      2          8           0       -0.192120   -0.931310    1.439390
      3          8           0        0.172630    1.703950   -0.190400
      4          8           0       -0.377720   -1.016920   -1.628440
      5          8           0        2.567800   -0.578830   -0.268120
      6         14           0       -1.969240   -1.332160   -1.878290
      7         14           0       -0.989580    2.856810   -0.118090
      8         14           0       -1.674760   -1.051520    2.177060
      9         14           0        4.184590   -0.413010   -0.077010
     10          8           0        4.937570    0.347110   -1.333460
     11          8           0        4.905100   -1.901720    0.029470
     12          8           0        4.355140    0.524800    1.271400
     13          8           0       -2.335740   -2.512450    1.830040
     14          8           0       -2.620900    0.209280    1.641490
     15          8           0       -1.552000   -0.824320    3.796500
     16          8           0       -2.254270   -1.591640   -3.481830
     17          8           0       -2.883710   -0.139120   -1.195570
     18          8           0       -2.460270   -2.685980   -1.045790
     19          8           0       -2.008250    2.456050   -1.396700
     20          8           0       -0.446230    4.381420   -0.415550
     21          8           0       -1.758350    2.867150    1.326420
     22          1           0        5.223040    0.914270    1.425300
     23          1           0        5.312480   -0.226350   -2.011430
     24          1           0        4.462290   -2.569510    0.564440
     25          1           0       -2.407380   -2.745750    0.887120
     26          1           0       -0.933910   -1.385130    4.276380
     27          1           0       -3.029280    0.047050    0.770240
     28          1           0       -0.290290    4.933460    0.359240
     29          1           0       -2.094890    2.003210    1.642660
     30          1           0       -2.608600    3.158070   -1.677300
     31          1           0       -2.566020   -3.491430   -1.564360
     32          1           0       -1.552780   -1.337140   -4.091410
     33          1           0       -2.640460    0.789950   -1.408290
 ---------------------------------------------------------------------
                    Distance matrix (angstroms):
                    1          2          3          4          5
     1  Zr   0.000000
     2  O    1.945448   0.000000
     3  O    1.952828   3.119912   0.000000
     4  O    1.978054   3.074631   3.126336   0.000000
     5  O    1.963706   3.264505   3.309677   3.273909   0.000000
     6  Si   3.335647   3.784949   4.080998   1.641565   4.872872
     7  Si   3.458557   4.172714   1.638611   4.202537   4.947836
     8  Si   3.399134   1.660370   4.075577   4.020614   4.919518
     9  Si   3.545934   4.660868   4.537643   4.856574   1.636469
    10  O    4.483117   5.969654   5.084511   5.495443   2.758283
    11  O    4.593305   5.376916   5.953610   5.607114   2.702142
    12  O    4.036238   4.777662   4.584828   5.760724   2.604363
    13  O    4.267877   2.692159   5.305858   4.246356   5.673259
    14  O    3.748522   2.690866   3.659736   4.150646   5.584831
    15  O    4.563473   2.723360   5.026119   5.553918   5.792595
    16  O    4.633238   5.376514   5.252073   2.699407   5.882693
    17  O    3.681569   3.849056   3.707895   2.690334   5.547294
    18  O    4.084125   3.794666   5.189927   2.731713   5.506936
    19  O    3.949592   4.776604   2.603277   3.843677   5.605749
    20  O    4.707712   5.632981   2.757268   5.533342   5.806048
    21  O    4.161190   4.110248   2.717068   5.071818   5.756119
    22  H    4.965113   5.721042   5.361037   6.665083   3.485300
    23  H    5.023038   6.534964   5.784485   5.757609   3.270572
    24  H    4.553587   5.011264   6.101920   5.535789   2.871420
    25  H    4.115422   2.916260   5.255219   3.665572   5.548201
    26  H    4.851315   2.967274   5.542470   5.942375   5.793494
    27  H    3.797060   3.074805   3.731002   3.730478   5.726886
    28  H    5.233540   5.964217   3.308494   6.274196   6.240801
    29  H    3.942865   3.503321   2.931094   4.771787   5.662039
    30  H    4.912505   5.681211   3.472834   4.733894   6.537991
    31  H    4.818055   4.605663   6.031579   3.303931   6.043144
    32  H    4.655322   5.710153   5.238621   2.747640   5.672016
    33  H    3.652796   4.131148   3.198770   2.904004   5.504500
                    6          7          8          9         10
     6  Si   0.000000
     7  Si   4.648172   0.000000
     8  Si   4.075701   4.583910   0.000000
     9  Si   6.477582   6.120902   6.310349   0.000000
    10  O    7.128872   6.550330   7.615959   1.650281   0.000000
    11  O    7.156850   7.577113   6.973488   1.657326   2.629804
    12  O    7.305247   5.994580   6.297992   1.651298   2.675088
    13  O    3.908851   5.868246   1.640620   7.110499   8.431243
    14  O    3.897377   3.573058   1.664822   7.046643   8.124026
    15  O    5.712725   5.402874   1.639901   6.934098   8.354834
    16  O    1.649216   5.718645   5.714070   7.378407   7.752213
    17  O    1.650971   3.704631   3.697116   7.161498   7.837592
    18  O    1.663429   5.809137   3.698006   7.089365   8.000652
    19  O    3.818898   1.683194   5.018568   6.951572   7.259204
    20  O    6.091319   1.645645   6.143920   6.674254   6.789957
    21  O    5.286667   1.636375   4.010804   6.931638   7.632883
    22  H    8.227335   6.689706   7.211735   2.257651   2.830887
    23  H    7.366409   7.266813   8.188155   2.246989   0.963876
    24  H    6.990175   7.722285   6.524433   2.266951   3.512063
    25  H    3.136510   5.865943   2.251909   7.058703   8.273152
    26  H    6.241368   6.108070   2.251066   6.789408   8.303327
    27  H    3.168693   3.583889   2.240697   7.278009   8.245380
    28  H    6.861735   2.242616   6.406342   6.985672   7.157539
    29  H    4.851553   2.247350   3.129452   6.944584   7.813799
    30  H    4.539972   2.267845   5.783493   7.839705   8.060050
    31  H    2.262111   6.699031   4.554748   7.567008   8.431582
    32  H    2.251969   5.804626   6.276159   7.063062   7.250354
    33  H    2.274816   2.943116   4.144674   7.056963   7.591327
                   11         12         13         14         15
    11  O    0.000000
    12  O    2.780799   0.000000
    13  O    7.486308   7.369182   0.000000
    14  O    7.980953   6.992972   2.743115   0.000000
    15  O    7.552844   6.564340   2.707581   2.618195   0.000000
    16  O    7.980097   8.411707   5.391706   5.442990   7.352282
    17  O    8.079173   7.676437   3.884235   2.870429   5.211882
    18  O    7.484646   7.882150   2.883751   3.953455   5.266736
    19  O    8.295693   7.165279   5.933388   3.828043   6.159409
    20  O    8.265145   6.385333   7.492554   5.134915   6.787033
    21  O    8.296130   6.547090   5.433885   2.812034   4.446440
    22  H    3.158991   0.963651   8.309114   7.878524   7.385557
    23  H    2.671722   3.501100   8.858804   8.744834   9.011698
    24  H    0.963440   3.175851   6.915071   7.684614   7.047239
    25  H    7.410824   7.521692   0.973991   3.057265   3.589994
    26  H    7.238587   6.375875   3.036537   3.511513   0.962719
    27  H    8.203708   7.416810   2.855734   0.975792   3.478490
    28  H    8.591886   6.469029   7.860578   5.421604   6.823394
    29  H    8.176229   6.627701   4.525959   1.869458   3.595648
    30  H    9.217930   8.007660   6.673131   4.439581   6.851155
    31  H    7.802891   8.489646   3.540252   4.896503   6.072934
    32  H    7.681446   8.193294   6.087524   6.033112   7.904563
    33  H    8.139270   7.495963   4.635243   3.104629   5.557018
                   16         17         18         19         20
    16  O    0.000000
    17  O    2.780826   0.000000
    18  O    2.678490   2.586162   0.000000
    19  O    4.559834   2.746232   5.173774   0.000000
    20  O    6.953311   5.194711   7.375751   2.666385   0.000000
    21  O    6.576170   4.082221   6.079254   2.765291   2.655020
    22  H    9.288147   8.584753   8.837496   7.914059   6.895686
    23  H    7.828269   8.237158   8.209621   7.820886   7.545934
    24  H    7.901943   7.935247   7.108322   8.424382   8.565593
    25  H    4.521409   3.370313   1.934557   5.695073   7.505972
    26  H    7.872472   5.941086   5.687484   6.934891   7.450177
    27  H    4.622342   1.979964   3.330344   3.397265   5.183147
    28  H    7.822274   5.905449   8.046042   3.488878   0.964036
    29  H    6.261689   3.642439   5.417543   3.074131   3.551083
    30  H    5.093292   3.343533   5.879943   0.965396   2.786475
    31  H    2.717183   3.387464   0.963767   5.975930   8.233774
    32  H    0.963559   3.404778   3.452348   4.675169   6.887549
    33  H    3.181302   0.983662   3.499423   1.782053   4.324215
                   21         22         23         24         25
    21  O    0.000000
    22  H    7.250057   0.000000
    23  H    8.408782   3.622172   0.000000
    24  H    8.296641   3.668316   3.584456   0.000000
    25  H    5.667351   8.479899   8.622367   6.879502   0.000000
    26  H    5.240596   7.164072   8.938496   6.655842   3.938208
    27  H    3.142859   8.323579   8.797579   7.938033   2.863591
    28  H    2.712983   6.905590   7.977139   8.883900   7.983169
    29  H    0.979622   7.401698   8.555258   8.066532   4.818829
    30  H    3.135266   8.717531   8.620293   9.371662   6.439863
    31  H    7.031392   9.434920   8.539987   7.401275   2.567286
    32  H    6.860845   9.023008   7.258923   7.705631   5.244071
    33  H    3.545633   8.359385   8.040267   8.101030   4.221896
                   26         27         28         29         30
    26  H    0.000000
    27  H    4.328364   0.000000
    28  H    7.462092   5.616760   0.000000
    29  H    4.445807   2.336828   3.672889   0.000000
    30  H    7.674084   3.980687   3.560065   3.552426   0.000000
    31  H    6.419854   4.264482   8.936328   6.379499   6.650595
    32  H    8.390781   5.266087   7.792470   6.658181   5.210527
    33  H    6.321294   2.334325   5.080958   3.328354   2.383563
                   31         32         33
    31  H    0.000000
    32  H    3.471830   0.000000
    33  H    4.284870   3.592589   0.000000
 Stoichiometry    H12O16Si4Zr
 Framework group  C1[X(H12O16Si4Zr)]
 Deg. of freedom    93
 Full point group                 C1      NOp   1
 Largest Abelian subgroup         C1      NOp   1
 Largest concise Abelian subgroup C1      NOp   1
                         Standard orientation:                         
 ---------------------------------------------------------------------
 Center     Atomic      Atomic             Coordinates (Angstroms)
 Number     Number       Type             X           Y           Z
 ---------------------------------------------------------------------
      1         40           0        0.648664   -0.156883   -0.133066
      2          8           0       -0.189616   -0.909053    1.453218
      3          8           0        0.127824    1.724364   -0.189402
      4          8           0       -0.337003   -1.018432   -1.615931
      5          8           0        2.580405   -0.497703   -0.224510
      6         14           0       -1.917050   -1.375274   -1.882115
      7         14           0       -1.063786    2.847964   -0.138067
      8         14           0       -1.677314   -1.062031    2.174453
      9         14           0        4.190159   -0.289959   -0.015793
     10          8           0        4.938468    0.481072   -1.268379
     11          8           0        4.946590   -1.759325    0.108727
     12          8           0        4.321236    0.660239    1.328353
     13          8           0       -2.297220   -2.541306    1.829348
     14          8           0       -2.648521    0.171136    1.619758
     15          8           0       -1.579313   -0.821720    3.793688
     16          8           0       -2.176633   -1.651849   -3.487119
     17          8           0       -2.869186   -0.201454   -1.217820
     18          8           0       -2.383602   -2.735838   -1.046537
     19          8           0       -2.056984    2.413673   -1.425735
     20          8           0       -0.555506    4.383914   -0.439161
     21          8           0       -1.849464    2.847906    1.297354
     22          1           0        5.177199    1.072432    1.489740
     23          1           0        5.335611   -0.086960   -1.938210
     24          1           0        4.514473   -2.434728    0.642884
     25          1           0       -2.351903   -2.782209    0.887204
     26          1           0       -0.952984   -1.363757    4.284336
     27          1           0       -3.042443   -0.006771    0.744918
     28          1           0       -0.422601    4.944529    0.333763
     29          1           0       -2.167853    1.977738    1.615309
     30          1           0       -2.671470    3.098562   -1.717837
     31          1           0       -2.462968   -3.546915   -1.561030
     32          1           0       -1.474664   -1.383535   -4.090189
     33          1           0       -2.646905    0.732114   -1.433768
 ---------------------------------------------------------------------
 Rotational constants (GHZ):           0.2124809           0.1345902           0.1247965
 General basis read from cards:  (5D, 7F)
 ======================================================================================================
                                       Pseudopotential Parameters
 ======================================================================================================
  Center     Atomic      Valence      Angular      Power
  Number     Number     Electrons     Momentum     of R      Exponent        Coefficient   SO-Coeffient
 ======================================================================================================
    1         40           12
                                      G and up 
                                                     2        1.0000000        0.00000000    0.00000000
                                      S - G
                                                     2        8.6365280      150.24299400    0.00000000
                                                     2        3.7176390       18.78003600    0.00000000
                                      P - G
                                                     2        7.6267280       33.19279100    0.00000000
                                                     2        7.4532070       66.38903900    0.00000000
                                                     2        3.3583890        4.62072600    0.00000000
                                                     2        3.2297380        9.26027000    0.00000000
                                      D - G
                                                     2        5.9380860       13.99338300    0.00000000
                                                     2        5.8255440       20.99588200    0.00000000
                                                     2        2.2050190        2.28516600    0.00000000
                                                     2        2.2062920        3.44126000    0.00000000
                                      F - G
                                                     2        4.8002150       -5.23932000    0.00000000
                                                     2        4.7989920       -6.98742400    0.00000000
    2          8
                                   No pseudopotential on this center.
    3          8
                                   No pseudopotential on this center.
    4          8
                                   No pseudopotential on this center.
    5          8
                                   No pseudopotential on this center.
    6         14
                                   No pseudopotential on this center.
    7         14
                                   No pseudopotential on this center.
    8         14
                                   No pseudopotential on this center.
    9         14
                                   No pseudopotential on this center.
   10          8
                                   No pseudopotential on this center.
   11          8
                                   No pseudopotential on this center.
   12          8
                                   No pseudopotential on this center.
   13          8
                                   No pseudopotential on this center.
   14          8
                                   No pseudopotential on this center.
   15          8
                                   No pseudopotential on this center.
   16          8
                                   No pseudopotential on this center.
   17          8
                                   No pseudopotential on this center.
   18          8
                                   No pseudopotential on this center.
   19          8
                                   No pseudopotential on this center.
   20          8
                                   No pseudopotential on this center.
   21          8
                                   No pseudopotential on this center.
   22          1
                                   No pseudopotential on this center.
   23          1
                                   No pseudopotential on this center.
   24          1
                                   No pseudopotential on this center.
   25          1
                                   No pseudopotential on this center.
   26          1
                                   No pseudopotential on this center.
   27          1
                                   No pseudopotential on this center.
   28          1
                                   No pseudopotential on this center.
   29          1
                                   No pseudopotential on this center.
   30          1
                                   No pseudopotential on this center.
   31          1
                                   No pseudopotential on this center.
   32          1
                                   No pseudopotential on this center.
   33          1
                                   No pseudopotential on this center.
 ======================================================================================================
 There are   570 symmetry adapted cartesian basis functions of A   symmetry.
 There are   524 symmetry adapted basis functions of A   symmetry.
   524 basis functions,  1074 primitive gaussians,   570 cartesian basis functions
   104 alpha electrons      104 beta electrons
       nuclear repulsion energy      2835.5532894727 Hartrees.
 NAtoms=   33 NActive=   33 NUniq=   33 SFac= 1.00D+00 NAtFMM=   60 NAOKFM=F Big=F
 Integral buffers will be    131072 words long.
 Raffenetti 2 integral format.
 Two-electron integral symmetry is turned on.
 Nuclear repulsion after empirical dispersion term =     2835.5124313399 Hartrees.
 One-electron integrals computed using PRISM.
 PrsmSu:  requested number of processors reduced to:   4 ShMem   1 Linda.
   1 Symmetry operations used in ECPInt.
 ECPInt:  NShTT=   13203 NPrTT=   78401 LenC2=   11536 LenP2D=   44710.
 LDataN:  DoStor=T MaxTD1= 8 Len=  415
 Number of processors reduced to  13 by ecpmxn.
 NBasis=   524 RedAO= T EigKep=  3.17D-05  NBF=   524
 NBsUse=   524 1.00D-06 EigRej= -1.00D+00 NBFU=   524
 Defaulting to unpruned grid for atomic number  40.
 ExpMin= 1.01D-02 ExpMax= 1.61D+04 ExpMxC= 2.43D+03 IAcc=3 IRadAn=         5 AccDes= 0.00D+00
 Harris functional with IExCor=  402 and IRadAn=       5 diagonalized for initial guess.
 HarFok:  IExCor=  402 AccDes= 0.00D+00 IRadAn=         5 IDoV= 1 UseB2=F ITyADJ=14
 ICtDFT=  3500011 ScaDFX=  1.000000  1.000000  1.000000  1.000000
 Defaulting to unpruned grid for atomic number  40.
 FoFCou: FMM=F IPFlag=           0 FMFlag=      100000 FMFlg1=           0
         NFxFlg=           0 DoJE=T BraDBF=F KetDBF=T FulRan=T
         wScrn=  0.000000 ICntrl=       500 IOpCl=  0 I1Cent=   200000004 NGrid=           0
         NMat0=    1 NMatS0=      1 NMatT0=    0 NMatD0=    1 NMtDS0=    0 NMtDT0=    0
 Petite list used in FoFCou.
 Requested convergence on RMS density matrix=1.00D-08 within 128 cycles.
 Requested convergence on MAX density matrix=1.00D-06.
 Requested convergence on             energy=1.00D-06.
 No special actions if energy rises.
 Defaulting to unpruned grid for atomic number  40.
 Defaulting to unpruned grid for atomic number  40.
 Defaulting to unpruned grid for atomic number  40.
 Defaulting to unpruned grid for atomic number  40.
 Defaulting to unpruned grid for atomic number  40.
 Defaulting to unpruned grid for atomic number  40.
 Defaulting to unpruned grid for atomic number  40.
 Defaulting to unpruned grid for atomic number  40.
 Defaulting to unpruned grid for atomic number  40.
 Defaulting to unpruned grid for atomic number  40.
 Defaulting to unpruned grid for atomic number  40.
 Defaulting to unpruned grid for atomic number  40.
 Defaulting to unpruned grid for atomic number  40.
 Defaulting to unpruned grid for atomic number  40.
 Defaulting to unpruned grid for atomic number  40.
 Defaulting to unpruned grid for atomic number  40.
 SCF Done:  E(RB3LYP) =  -2416.94585014     A.U. after   14 cycles
            NFock= 14  Conv=0.36D-08     -V/T= 2.0185

 **********************************************************************

            Population analysis using the SCF Density.

 **********************************************************************

 Orbital symmetries:
       Occupied  (A) (A) (A) (A) (A) (A) (A) (A) (A) (A) (A) (A)
                 (A) (A) (A) (A) (A) (A) (A) (A) (A) (A) (A) (A)
                 (A) (A) (A) (A) (A) (A) (A) (A) (A) (A) (A) (A)
                 (A) (A) (A) (A) (A) (A) (A) (A) (A) (A) (A) (A)
                 (A) (A) (A) (A) (A) (A) (A) (A) (A) (A) (A) (A)
                 (A) (A) (A) (A) (A) (A) (A) (A) (A) (A) (A) (A)
                 (A) (A) (A) (A) (A) (A) (A) (A) (A) (A) (A) (A)
                 (A) (A) (A) (A) (A) (A) (A) (A) (A) (A) (A) (A)
                 (A) (A) (A) (A) (A) (A) (A) (A)
       Virtual   (A) (A) (A) (A) (A) (A) (A) (A) (A) (A) (A) (A)
                 (A) (A) (A) (A) (A) (A) (A) (A) (A) (A) (A) (A)
                 (A) (A) (A) (A) (A) (A) (A) (A) (A) (A) (A) (A)
                 (A) (A) (A) (A) (A) (A) (A) (A) (A) (A) (A) (A)
                 (A) (A) (A) (A) (A) (A) (A) (A) (A) (A) (A) (A)
                 (A) (A) (A) (A) (A) (A) (A) (A) (A) (A) (A) (A)
                 (A) (A) (A) (A) (A) (A) (A) (A) (A) (A) (A) (A)
                 (A) (A) (A) (A) (A) (A) (A) (A) (A) (A) (A) (A)
                 (A) (A) (A) (A) (A) (A) (A) (A) (A) (A) (A) (A)
                 (A) (A) (A) (A) (A) (A) (A) (A) (A) (A) (A) (A)
                 (A) (A) (A) (A) (A) (A) (A) (A) (A) (A) (A) (A)
                 (A) (A) (A) (A) (A) (A) (A) (A) (A) (A) (A) (A)
                 (A) (A) (A) (A) (A) (A) (A) (A) (A) (A) (A) (A)
                 (A) (A) (A) (A) (A) (A) (A) (A) (A) (A) (A) (A)
                 (A) (A) (A) (A) (A) (A) (A) (A) (A) (A) (A) (A)
                 (A) (A) (A) (A) (A) (A) (A) (A) (A) (A) (A) (A)
                 (A) (A) (A) (A) (A) (A) (A) (A) (A) (A) (A) (A)
                 (A) (A) (A) (A) (A) (A) (A) (A) (A) (A) (A) (A)
                 (A) (A) (A) (A) (A) (A) (A) (A) (A) (A) (A) (A)
                 (A) (A) (A) (A) (A) (A) (A) (A) (A) (A) (A) (A)
                 (A) (A) (A) (A) (A) (A) (A) (A) (A) (A) (A) (A)
                 (A) (A) (A) (A) (A) (A) (A) (A) (A) (A) (A) (A)
                 (A) (A) (A) (A) (A) (A) (A) (A) (A) (A) (A) (A)
                 (A) (A) (A) (A) (A) (A) (A) (A) (A) (A) (A) (A)
                 (A) (A) (A) (A) (A) (A) (A) (A) (A) (A) (A) (A)
                 (A) (A) (A) (A) (A) (A) (A) (A) (A) (A) (A) (A)
                 (A) (A) (A) (A) (A) (A) (A) (A) (A) (A) (A) (A)
                 (A) (A) (A) (A) (A) (A) (A) (A) (A) (A) (A) (A)
                 (A) (A) (A) (A) (A) (A) (A) (A) (A) (A) (A) (A)
                 (A) (A) (A) (A) (A) (A) (A) (A) (A) (A) (A) (A)
                 (A) (A) (A) (A) (A) (A) (A) (A) (A) (A) (A) (A)
                 (A) (A) (A) (A) (A) (A) (A) (A) (A) (A) (A) (A)
                 (A) (A) (A) (A) (A) (A) (A) (A) (A) (A) (A) (A)
                 (A) (A) (A) (A) (A) (A) (A) (A) (A) (A) (A) (A)
                 (A) (A) (A) (A) (A) (A) (A) (A) (A) (A) (A) (A)
 The electronic state is 1-A.
 Alpha  occ. eigenvalues --  -66.22793 -66.21736 -66.21645 -66.21021 -19.18532
 Alpha  occ. eigenvalues --  -19.18335 -19.17805 -19.16961 -19.16769 -19.16697
 Alpha  occ. eigenvalues --  -19.16594 -19.16401 -19.16176 -19.16018 -19.15983
 Alpha  occ. eigenvalues --  -19.15534 -19.15433 -19.15296 -19.14856 -19.14617
 Alpha  occ. eigenvalues --   -5.36852  -5.35817  -5.35722  -5.35080  -3.72838
 Alpha  occ. eigenvalues --   -3.72813  -3.72758  -3.71807  -3.71762  -3.71727
 Alpha  occ. eigenvalues --   -3.71688  -3.71683  -3.71645  -3.71061  -3.71041
 Alpha  occ. eigenvalues --   -3.70988  -2.13375  -1.29605  -1.29543  -1.29378
 Alpha  occ. eigenvalues --   -1.05647  -1.04752  -1.04329  -1.03510  -1.02542
 Alpha  occ. eigenvalues --   -1.02137  -1.01443  -1.01128  -1.00925  -1.00689
 Alpha  occ. eigenvalues --   -0.99804  -0.99335  -0.97387  -0.96292  -0.95762
 Alpha  occ. eigenvalues --   -0.95303  -0.60913  -0.59184  -0.59093  -0.58938
 Alpha  occ. eigenvalues --   -0.55565  -0.54510  -0.54044  -0.53181  -0.53086
 Alpha  occ. eigenvalues --   -0.52578  -0.51855  -0.50178  -0.48663  -0.47870
 Alpha  occ. eigenvalues --   -0.47495  -0.47090  -0.43395  -0.42853  -0.41832
 Alpha  occ. eigenvalues --   -0.41483  -0.41220  -0.40579  -0.39837  -0.39448
 Alpha  occ. eigenvalues --   -0.38918  -0.38892  -0.38640  -0.38206  -0.38031
 Alpha  occ. eigenvalues --   -0.37610  -0.37457  -0.37092  -0.36494  -0.36375
 Alpha  occ. eigenvalues --   -0.36194  -0.35808  -0.35449  -0.35250  -0.34941
 Alpha  occ. eigenvalues --   -0.34468  -0.34078  -0.33773  -0.33589  -0.33072
 Alpha  occ. eigenvalues --   -0.32662  -0.32238  -0.32000  -0.31307
 Alpha virt. eigenvalues --   -0.04416  -0.03183  -0.03031  -0.02911  -0.02080
 Alpha virt. eigenvalues --   -0.01369  -0.00583  -0.00247  -0.00033   0.00227
 Alpha virt. eigenvalues --    0.00694   0.00844   0.00941   0.01839   0.02185
 Alpha virt. eigenvalues --    0.03006   0.03285   0.03831   0.03891   0.04127
 Alpha virt. eigenvalues --    0.04285   0.04759   0.05834   0.05938   0.06132
 Alpha virt. eigenvalues --    0.06328   0.07074   0.07541   0.07594   0.08336
 Alpha virt. eigenvalues --    0.08565   0.08790   0.09094   0.09488   0.09732
 Alpha virt. eigenvalues --    0.10331   0.10637   0.10893   0.11099   0.11600
 Alpha virt. eigenvalues --    0.11816   0.12520   0.13196   0.13309   0.13910
 Alpha virt. eigenvalues --    0.14004   0.14074   0.14845   0.15076   0.15232
 Alpha virt. eigenvalues --    0.15475   0.15756   0.16182   0.16569   0.16825
 Alpha virt. eigenvalues --    0.17135   0.17350   0.17678   0.17774   0.18512
 Alpha virt. eigenvalues --    0.18646   0.18818   0.19000   0.19336   0.19670
 Alpha virt. eigenvalues --    0.19728   0.20286   0.20862   0.21182   0.21288
 Alpha virt. eigenvalues --    0.21439   0.21830   0.22228   0.22460   0.23232
 Alpha virt. eigenvalues --    0.23633   0.23895   0.24035   0.24274   0.24629
 Alpha virt. eigenvalues --    0.24945   0.25505   0.25633   0.25883   0.26102
 Alpha virt. eigenvalues --    0.26359   0.26648   0.26809   0.27219   0.27675
 Alpha virt. eigenvalues --    0.27703   0.28367   0.28434   0.28718   0.28863
 Alpha virt. eigenvalues --    0.29502   0.29984   0.30029   0.30479   0.30552
 Alpha virt. eigenvalues --    0.30803   0.31054   0.31290   0.31594   0.32067
 Alpha virt. eigenvalues --    0.32442   0.32719   0.33185   0.33524   0.34133
 Alpha virt. eigenvalues --    0.34329   0.34881   0.35414   0.35807   0.36379
 Alpha virt. eigenvalues --    0.36534   0.37621   0.38522   0.38608   0.38901
 Alpha virt. eigenvalues --    0.39322   0.40208   0.40443   0.40862   0.41159
 Alpha virt. eigenvalues --    0.41465   0.42261   0.43256   0.43895   0.44049
 Alpha virt. eigenvalues --    0.45242   0.45755   0.46351   0.46739   0.47023
 Alpha virt. eigenvalues --    0.47152   0.48341   0.48584   0.49018   0.49341
 Alpha virt. eigenvalues --    0.49865   0.50227   0.51417   0.52328   0.52934
 Alpha virt. eigenvalues --    0.53777   0.54296   0.55454   0.56710   0.57025
 Alpha virt. eigenvalues --    0.58058   0.58395   0.59075   0.59992   0.60024
 Alpha virt. eigenvalues --    0.60814   0.61555   0.61972   0.64315   0.66156
 Alpha virt. eigenvalues --    0.66535   0.67255   0.68246   0.69071   0.69774
 Alpha virt. eigenvalues --    0.69933   0.70882   0.72670   0.74110   0.74908
 Alpha virt. eigenvalues --    0.75336   0.77168   0.78646   0.78782   0.80282
 Alpha virt. eigenvalues --    0.81106   0.81387   0.83127   0.83588   0.85394
 Alpha virt. eigenvalues --    0.86695   0.87770   0.90164   0.90588   0.90924
 Alpha virt. eigenvalues --    0.93731   0.95727   0.96264   0.96738   0.97463
 Alpha virt. eigenvalues --    0.98168   0.98754   0.99114   0.99316   1.00041
 Alpha virt. eigenvalues --    1.00248   1.01155   1.01843   1.03268   1.03578
 Alpha virt. eigenvalues --    1.04499   1.04563   1.05449   1.06700   1.08077
 Alpha virt. eigenvalues --    1.09627   1.12344   1.15257   1.16218   1.16739
 Alpha virt. eigenvalues --    1.18730   1.18999   1.20067   1.20489   1.20786
 Alpha virt. eigenvalues --    1.21548   1.22013   1.22167   1.22466   1.23658
 Alpha virt. eigenvalues --    1.23881   1.24086   1.24196   1.25176   1.25462
 Alpha virt. eigenvalues --    1.25708   1.26523   1.27562   1.27825   1.28439
 Alpha virt. eigenvalues --    1.28806   1.29442   1.30222   1.30513   1.31550
 Alpha virt. eigenvalues --    1.31997   1.32725   1.33496   1.33778   1.34790
 Alpha virt. eigenvalues --    1.35428   1.36341   1.36654   1.37118   1.38487
 Alpha virt. eigenvalues --    1.38771   1.39978   1.40052   1.40617   1.41547
 Alpha virt. eigenvalues --    1.41837   1.42721   1.43694   1.44477   1.45358
 Alpha virt. eigenvalues --    1.47445   1.49576   1.50948   1.52257   1.52647
 Alpha virt. eigenvalues --    1.56732   1.57211   1.58419   1.59318   1.59749
 Alpha virt. eigenvalues --    1.60073   1.60923   1.61140   1.62201   1.62652
 Alpha virt. eigenvalues --    1.63463   1.64201   1.65097   1.65987   1.66362
 Alpha virt. eigenvalues --    1.67285   1.67570   1.69002   1.69659   1.70012
 Alpha virt. eigenvalues --    1.70684   1.71074   1.71610   1.73054   1.73218
 Alpha virt. eigenvalues --    1.74541   1.75290   1.75556   1.76202   1.76377
 Alpha virt. eigenvalues --    1.76845   1.77402   1.78377   1.79567   1.79921
 Alpha virt. eigenvalues --    1.80433   1.81380   1.82040   1.82342   1.82693
 Alpha virt. eigenvalues --    1.83491   1.84132   1.84841   1.85606   1.86121
 Alpha virt. eigenvalues --    1.87461   1.88155   1.88790   1.89923   1.90097
 Alpha virt. eigenvalues --    1.91015   1.91636   1.92243   1.92897   1.93359
 Alpha virt. eigenvalues --    1.94121   1.95501   1.95823   1.97312   1.98047
 Alpha virt. eigenvalues --    1.98591   1.99921   2.00661   2.02571   2.05435
 Alpha virt. eigenvalues --    2.06104   2.07677   2.09138   2.10105   2.10407
 Alpha virt. eigenvalues --    2.11748   2.13435   2.14356   2.15812   2.16158
 Alpha virt. eigenvalues --    2.16496   2.19207   2.19892   2.21422   2.25883
 Alpha virt. eigenvalues --    2.31746   2.32805   2.36283   2.39484   2.40194
 Alpha virt. eigenvalues --    2.40788   2.41451   2.41792   2.42985   2.43439
 Alpha virt. eigenvalues --    2.44013   2.45316   2.46329   2.47865   2.48912
 Alpha virt. eigenvalues --    2.49384   2.50458   2.50804   2.52945   2.53431
 Alpha virt. eigenvalues --    2.54639   2.58120   2.59200   2.60004   2.60827
 Alpha virt. eigenvalues --    2.61060   2.61657   2.61827   2.62274   2.62768
 Alpha virt. eigenvalues --    2.63193   2.63555   2.64886   2.65268   2.65684
 Alpha virt. eigenvalues --    2.66208   2.66602   2.67170   2.67570   2.67891
 Alpha virt. eigenvalues --    2.69359   2.70971   2.71295   2.71788   2.72936
 Alpha virt. eigenvalues --    2.73664   2.74972   2.75766   2.76562   2.78032
 Alpha virt. eigenvalues --    2.79568   2.80377   2.80973   2.83019   2.83353
 Alpha virt. eigenvalues --    2.83906   2.84890   2.86426   2.87636   2.88152
 Alpha virt. eigenvalues --    3.15801   3.21721   3.36844   3.41017   3.46487
 Alpha virt. eigenvalues --    3.47697   3.48499   3.48792   3.48860   3.51864
 Alpha virt. eigenvalues --    3.52775   3.53630   3.59974   3.61181   3.62146
 Alpha virt. eigenvalues --    3.65889   4.37985   4.63782   7.83436  31.25073
          Condensed to atoms (all electrons):
               1          2          3          4          5          6
     1  Zr  15.033638  -0.034157  -0.007238  -0.129672  -0.190855  -0.701716
     2  O   -0.034157   8.856447   0.015259  -0.043655  -0.053435   0.064159
     3  O   -0.007238   0.015259   8.831156   0.017366  -0.047772  -0.002153
     4  O   -0.129672  -0.043655   0.017366   8.817990  -0.062242  -0.702772
     5  O   -0.190855  -0.053435  -0.047772  -0.062242   9.368156  -0.008361
     6  Si  -0.701716   0.064159  -0.002153  -0.702772  -0.008361  14.169039
     7  Si  -0.579027  -0.022464  -0.866888  -0.010627  -0.032714   0.089463
     8  Si  -0.669543  -0.767868  -0.019468   0.068445  -0.013325   0.027445
     9  Si  -0.256177  -0.034045  -0.018744  -0.023838  -1.115598   0.040321
    10  O   -0.031645   0.000856  -0.001207  -0.000093   0.119218  -0.001379
    11  O   -0.099045   0.002377   0.003380   0.002341   0.330444  -0.000005
    12  O    0.051505   0.001413   0.004684   0.001692   0.112588  -0.003010
    13  O   -0.008937   0.257864   0.001591  -0.015759  -0.000555   0.031159
    14  O   -0.033302   0.250937  -0.017209  -0.002514   0.000851   0.006878
    15  O   -0.054989   0.259239   0.000227   0.002567   0.000850  -0.006552
    16  O   -0.133814   0.005556  -0.000392   0.349438   0.003490  -0.443448
    17  O   -0.080082  -0.039635   0.010778   0.210342   0.000924  -0.448408
    18  O   -0.021689  -0.019028   0.003758   0.202837  -0.001167  -0.479910
    19  O    0.002726   0.008234   0.270523   0.012345   0.002389  -0.008611
    20  O   -0.137099  -0.000762   0.154736  -0.000649   0.001314   0.009830
    21  O    0.030293   0.010896   0.153218   0.003740   0.000276  -0.013409
    22  H   -0.010930  -0.000006   0.000027  -0.000004   0.006486   0.000106
    23  H   -0.007581  -0.000009  -0.000008  -0.000033  -0.024212   0.000145
    24  H   -0.006076  -0.000071  -0.000007   0.000005  -0.002968   0.000150
    25  H    0.022081  -0.021854  -0.000135  -0.000868  -0.000017   0.000337
    26  H   -0.007607  -0.012685   0.000018  -0.000012  -0.000020   0.000251
    27  H    0.005168  -0.020547   0.000726  -0.001648   0.000033   0.010435
    28  H    0.004520  -0.000011  -0.018189  -0.000013  -0.000011  -0.000269
    29  H   -0.000032  -0.005224  -0.019771  -0.000196  -0.000062   0.000712
    30  H   -0.000219  -0.000010   0.000181  -0.000483  -0.000008  -0.000459
    31  H    0.003166   0.000289  -0.000021  -0.018035  -0.000018   0.060682
    32  H    0.002418  -0.000028   0.000035   0.011100   0.000007   0.019626
    33  H   -0.014214   0.000942  -0.010346  -0.009417  -0.000090   0.051824
               7          8          9         10         11         12
     1  Zr  -0.579027  -0.669543  -0.256177  -0.031645  -0.099045   0.051505
     2  O   -0.022464  -0.767868  -0.034045   0.000856   0.002377   0.001413
     3  O   -0.866888  -0.019468  -0.018744  -0.001207   0.003380   0.004684
     4  O   -0.010627   0.068445  -0.023838  -0.000093   0.002341   0.001692
     5  O   -0.032714  -0.013325  -1.115598   0.119218   0.330444   0.112588
     6  Si   0.089463   0.027445   0.040321  -0.001379  -0.000005  -0.003010
     7  Si  13.752421   0.169537   0.017676   0.001308  -0.000913   0.002372
     8  Si   0.169537  13.772262   0.035067  -0.001399   0.001729  -0.002145
     9  Si   0.017676   0.035067  13.949333  -0.028680  -0.185562  -0.161341
    10  O    0.001308  -0.001399  -0.028680   8.512250   0.006926   0.036724
    11  O   -0.000913   0.001729  -0.185562   0.006926   8.544580  -0.052832
    12  O    0.002372  -0.002145  -0.161341   0.036724  -0.052832   8.587292
    13  O    0.003457  -0.141917  -0.000174  -0.000001   0.000014  -0.000018
    14  O    0.014488  -0.501298  -0.000864  -0.000003   0.000004   0.000009
    15  O   -0.003478  -0.385233  -0.001044  -0.000001  -0.000014   0.000012
    16  O    0.003751  -0.009364  -0.000999   0.000005  -0.000011  -0.000001
    17  O   -0.004011   0.095945   0.002795   0.000005   0.000005  -0.000008
    18  O   -0.001481   0.080228   0.003610   0.000003   0.000009   0.000003
    19  O   -0.426112  -0.017717   0.000857   0.000007  -0.000000  -0.000057
    20  O   -0.099421   0.009432   0.003094   0.000031  -0.000003  -0.000047
    21  O    0.024213  -0.046440  -0.001343  -0.000002   0.000001   0.000005
    22  H   -0.000028   0.000125   0.047231  -0.005916  -0.004790   0.220751
    23  H    0.000012   0.000054   0.077709   0.230615  -0.005227   0.005589
    24  H    0.000035   0.000187   0.034956   0.007270   0.241230  -0.006887
    25  H   -0.000354   0.053635  -0.000223  -0.000000  -0.000000  -0.000000
    26  H    0.000566   0.063252  -0.000240   0.000000   0.000000  -0.000002
    27  H    0.001161   0.077129   0.000021   0.000000  -0.000000   0.000000
    28  H    0.056881   0.000067  -0.000156  -0.000000  -0.000000  -0.000002
    29  H    0.048150   0.024114  -0.000087   0.000000  -0.000000  -0.000001
    30  H    0.041874   0.000118   0.000010  -0.000000   0.000000   0.000000
    31  H    0.000093  -0.002780  -0.000059   0.000000  -0.000000   0.000000
    32  H   -0.000597   0.000111   0.000013  -0.000000   0.000000  -0.000000
    33  H    0.021507  -0.000118   0.000061  -0.000000   0.000000   0.000000
              13         14         15         16         17         18
     1  Zr  -0.008937  -0.033302  -0.054989  -0.133814  -0.080082  -0.021689
     2  O    0.257864   0.250937   0.259239   0.005556  -0.039635  -0.019028
     3  O    0.001591  -0.017209   0.000227  -0.000392   0.010778   0.003758
     4  O   -0.015759  -0.002514   0.002567   0.349438   0.210342   0.202837
     5  O   -0.000555   0.000851   0.000850   0.003490   0.000924  -0.001167
     6  Si   0.031159   0.006878  -0.006552  -0.443448  -0.448408  -0.479910
     7  Si   0.003457   0.014488  -0.003478   0.003751  -0.004011  -0.001481
     8  Si  -0.141917  -0.501298  -0.385233  -0.009364   0.095945   0.080228
     9  Si  -0.000174  -0.000864  -0.001044  -0.000999   0.002795   0.003610
    10  O   -0.000001  -0.000003  -0.000001   0.000005   0.000005   0.000003
    11  O    0.000014   0.000004  -0.000014  -0.000011   0.000005   0.000009
    12  O   -0.000018   0.000009   0.000012  -0.000001  -0.000008   0.000003
    13  O    8.639776   0.024579  -0.114878   0.003888  -0.028554  -0.042247
    14  O    0.024579   8.810884   0.154945   0.002686  -0.028491  -0.022728
    15  O   -0.114878   0.154945   8.778589  -0.000163   0.003844   0.001144
    16  O    0.003888   0.002686  -0.000163   8.915411  -0.095559  -0.103443
    17  O   -0.028554  -0.028491   0.003844  -0.095559   8.942551   0.222967
    18  O   -0.042247  -0.022728   0.001144  -0.103443   0.222967   9.034443
    19  O    0.000226   0.001963   0.000330  -0.001025  -0.031068   0.000136
    20  O    0.000010  -0.000994   0.000007   0.000053  -0.000758   0.000013
    21  O   -0.000500   0.025678   0.000786  -0.000187  -0.005774   0.000401
    22  H   -0.000000  -0.000000   0.000000   0.000000   0.000000  -0.000000
    23  H    0.000000   0.000000   0.000000  -0.000000   0.000000   0.000000
    24  H   -0.000000   0.000000   0.000001   0.000000  -0.000000  -0.000000
    25  H    0.216791  -0.009352   0.007491  -0.000251   0.000578   0.015285
    26  H   -0.006657   0.001167   0.225926   0.000000  -0.000021   0.000010
    27  H   -0.004546   0.206901   0.000054   0.000292   0.017932  -0.000785
    28  H    0.000000  -0.000003  -0.000001  -0.000000   0.000002  -0.000000
    29  H    0.000780   0.013833  -0.001360  -0.000004  -0.000718  -0.000002
    30  H    0.000001  -0.000009   0.000001   0.000102  -0.000453  -0.000008
    31  H    0.002353   0.000071  -0.000020   0.005115  -0.001209   0.216404
    32  H   -0.000007  -0.000006   0.000000   0.235905  -0.003421   0.003910
    33  H    0.000244   0.001946  -0.000054   0.000202   0.229805   0.002269
              19         20         21         22         23         24
     1  Zr   0.002726  -0.137099   0.030293  -0.010930  -0.007581  -0.006076
     2  O    0.008234  -0.000762   0.010896  -0.000006  -0.000009  -0.000071
     3  O    0.270523   0.154736   0.153218   0.000027  -0.000008  -0.000007
     4  O    0.012345  -0.000649   0.003740  -0.000004  -0.000033   0.000005
     5  O    0.002389   0.001314   0.000276   0.006486  -0.024212  -0.002968
     6  Si  -0.008611   0.009830  -0.013409   0.000106   0.000145   0.000150
     7  Si  -0.426112  -0.099421   0.024213  -0.000028   0.000012   0.000035
     8  Si  -0.017717   0.009432  -0.046440   0.000125   0.000054   0.000187
     9  Si   0.000857   0.003094  -0.001343   0.047231   0.077709   0.034956
    10  O    0.000007   0.000031  -0.000002  -0.005916   0.230615   0.007270
    11  O   -0.000000  -0.000003   0.000001  -0.004790  -0.005227   0.241230
    12  O   -0.000057  -0.000047   0.000005   0.220751   0.005589  -0.006887
    13  O    0.000226   0.000010  -0.000500  -0.000000   0.000000  -0.000000
    14  O    0.001963  -0.000994   0.025678  -0.000000   0.000000   0.000000
    15  O    0.000330   0.000007   0.000786   0.000000   0.000000   0.000001
    16  O   -0.001025   0.000053  -0.000187   0.000000  -0.000000   0.000000
    17  O   -0.031068  -0.000758  -0.005774   0.000000   0.000000  -0.000000
    18  O    0.000136   0.000013   0.000401  -0.000000   0.000000  -0.000000
    19  O    8.883543   0.033219   0.024759  -0.000000   0.000000  -0.000000
    20  O    0.033219   8.654986  -0.055533   0.000000   0.000000  -0.000000
    21  O    0.024759  -0.055533   8.485398  -0.000000   0.000000   0.000000
    22  H   -0.000000   0.000000  -0.000000   0.360583   0.000057   0.000110
    23  H    0.000000   0.000000   0.000000   0.000057   0.350867   0.000019
    24  H   -0.000000  -0.000000   0.000000   0.000110   0.000019   0.368068
    25  H   -0.000034   0.000000  -0.000013   0.000000   0.000000   0.000000
    26  H    0.000000  -0.000000   0.000043  -0.000000   0.000000  -0.000000
    27  H   -0.000224   0.000222  -0.004719  -0.000000  -0.000000   0.000000
    28  H    0.004329   0.228933  -0.001629  -0.000000   0.000000  -0.000000
    29  H   -0.008646   0.008059   0.208272   0.000000  -0.000000  -0.000000
    30  H    0.223490  -0.001496  -0.007261   0.000000  -0.000000  -0.000000
    31  H    0.000002  -0.000000  -0.000000  -0.000000   0.000000   0.000000
    32  H    0.000095   0.000000   0.000001  -0.000000  -0.000000  -0.000000
    33  H    0.013445  -0.000081   0.001407  -0.000000  -0.000000  -0.000000
              25         26         27         28         29         30
     1  Zr   0.022081  -0.007607   0.005168   0.004520  -0.000032  -0.000219
     2  O   -0.021854  -0.012685  -0.020547  -0.000011  -0.005224  -0.000010
     3  O   -0.000135   0.000018   0.000726  -0.018189  -0.019771   0.000181
     4  O   -0.000868  -0.000012  -0.001648  -0.000013  -0.000196  -0.000483
     5  O   -0.000017  -0.000020   0.000033  -0.000011  -0.000062  -0.000008
     6  Si   0.000337   0.000251   0.010435  -0.000269   0.000712  -0.000459
     7  Si  -0.000354   0.000566   0.001161   0.056881   0.048150   0.041874
     8  Si   0.053635   0.063252   0.077129   0.000067   0.024114   0.000118
     9  Si  -0.000223  -0.000240   0.000021  -0.000156  -0.000087   0.000010
    10  O   -0.000000   0.000000   0.000000  -0.000000   0.000000  -0.000000
    11  O   -0.000000   0.000000  -0.000000  -0.000000  -0.000000   0.000000
    12  O   -0.000000  -0.000002   0.000000  -0.000002  -0.000001   0.000000
    13  O    0.216791  -0.006657  -0.004546   0.000000   0.000780   0.000001
    14  O   -0.009352   0.001167   0.206901  -0.000003   0.013833  -0.000009
    15  O    0.007491   0.225926   0.000054  -0.000001  -0.001360   0.000001
    16  O   -0.000251   0.000000   0.000292  -0.000000  -0.000004   0.000102
    17  O    0.000578  -0.000021   0.017932   0.000002  -0.000718  -0.000453
    18  O    0.015285   0.000010  -0.000785  -0.000000  -0.000002  -0.000008
    19  O   -0.000034   0.000000  -0.000224   0.004329  -0.008646   0.223490
    20  O    0.000000  -0.000000   0.000222   0.228933   0.008059  -0.001496
    21  O   -0.000013   0.000043  -0.004719  -0.001629   0.208272  -0.007261
    22  H    0.000000  -0.000000  -0.000000  -0.000000   0.000000   0.000000
    23  H    0.000000   0.000000  -0.000000   0.000000  -0.000000  -0.000000
    24  H    0.000000  -0.000000   0.000000  -0.000000  -0.000000  -0.000000
    25  H    0.301505  -0.000032   0.000034   0.000000   0.000001   0.000000
    26  H   -0.000032   0.369283  -0.000036   0.000000   0.000018  -0.000000
    27  H    0.000034  -0.000036   0.284757  -0.000000  -0.000990   0.000007
    28  H    0.000000   0.000000  -0.000000   0.349101  -0.000016  -0.000011
    29  H    0.000001   0.000018  -0.000990  -0.000016   0.286081   0.000166
    30  H    0.000000  -0.000000   0.000007  -0.000011   0.000166   0.334435
    31  H   -0.000201   0.000000   0.000014   0.000000   0.000000  -0.000000
    32  H   -0.000001  -0.000000  -0.000000   0.000000  -0.000000  -0.000000
    33  H    0.000006   0.000000  -0.002462  -0.000002   0.000125  -0.001046
              31         32         33
     1  Zr   0.003166   0.002418  -0.014214
     2  O    0.000289  -0.000028   0.000942
     3  O   -0.000021   0.000035  -0.010346
     4  O   -0.018035   0.011100  -0.009417
     5  O   -0.000018   0.000007  -0.000090
     6  Si   0.060682   0.019626   0.051824
     7  Si   0.000093  -0.000597   0.021507
     8  Si  -0.002780   0.000111  -0.000118
     9  Si  -0.000059   0.000013   0.000061
    10  O    0.000000  -0.000000  -0.000000
    11  O   -0.000000   0.000000   0.000000
    12  O    0.000000  -0.000000   0.000000
    13  O    0.002353  -0.000007   0.000244
    14  O    0.000071  -0.000006   0.001946
    15  O   -0.000020   0.000000  -0.000054
    16  O    0.005115   0.235905   0.000202
    17  O   -0.001209  -0.003421   0.229805
    18  O    0.216404   0.003910   0.002269
    19  O    0.000002   0.000095   0.013445
    20  O   -0.000000   0.000000  -0.000081
    21  O   -0.000000   0.000001   0.001407
    22  H   -0.000000  -0.000000  -0.000000
    23  H    0.000000  -0.000000  -0.000000
    24  H    0.000000  -0.000000  -0.000000
    25  H   -0.000201  -0.000001   0.000006
    26  H    0.000000  -0.000000   0.000000
    27  H    0.000014  -0.000000  -0.002462
    28  H    0.000000   0.000000  -0.000002
    29  H    0.000000  -0.000000   0.000125
    30  H   -0.000000  -0.000000  -0.001046
    31  H    0.327375  -0.000010  -0.000036
    32  H   -0.000010   0.349091   0.000146
    33  H   -0.000036   0.000146   0.270970
 Mulliken charges:
               1
     1  Zr   0.060129
     2  O   -0.658975
     3  O   -0.438115
     4  O   -0.677678
     5  O   -0.393594
     6  Si   2.237900
     7  Si   1.799154
     8  Si   2.099734
     9  Si   1.616420
    10  O   -0.844892
    11  O   -0.784638
    12  O   -0.798292
    13  O   -0.817986
    14  O   -0.901047
    15  O   -0.868226
    16  O   -0.737232
    17  O   -0.970303
    18  O   -1.094945
    19  O   -0.989123
    20  O   -0.807093
    21  O   -0.832579
    22  H    0.386199
    23  H    0.372003
    24  H    0.363979
    25  H    0.415589
    26  H    0.366776
    27  H    0.431072
    28  H    0.376480
    29  H    0.446798
    30  H    0.411078
    31  H    0.406826
    32  H    0.381613
    33  H    0.442968
 Sum of Mulliken charges =  -0.00000
 Mulliken charges with hydrogens summed into heavy atoms:
               1
     1  Zr   0.060129
     2  O   -0.658975
     3  O   -0.438115
     4  O   -0.677678
     5  O   -0.393594
     6  Si   2.237900
     7  Si   1.799154
     8  Si   2.099734
     9  Si   1.616420
    10  O   -0.472889
    11  O   -0.420659
    12  O   -0.412093
    13  O   -0.402397
    14  O   -0.469975
    15  O   -0.501450
    16  O   -0.355619
    17  O   -0.527335
    18  O   -0.688119
    19  O   -0.578044
    20  O   -0.430613
    21  O   -0.385781
 Electronic spatial extent (au):  <R**2>=           9823.4940
 Charge=             -0.0000 electrons
 Dipole moment (field-independent basis, Debye):
    X=              2.9820    Y=             -1.4898    Z=             -3.0433  Tot=              4.5138
 Quadrupole moment (field-independent basis, Debye-Ang):
   XX=           -167.1076   YY=           -152.2292   ZZ=           -158.5117
   XY=             -6.9822   XZ=             12.9413   YZ=              2.7927
 Traceless Quadrupole moment (field-independent basis, Debye-Ang):
   XX=             -7.8248   YY=              7.0536   ZZ=              0.7711
   XY=             -6.9822   XZ=             12.9413   YZ=              2.7927
 Octapole moment (field-independent basis, Debye-Ang**2):
  XXX=             86.0749  YYY=             -6.6154  ZZZ=            -38.5387  XYY=             -5.9629
  XXY=             27.6265  XXZ=            -21.6879  XZZ=             62.7220  YZZ=            -23.8601
  YYZ=             -2.1952  XYZ=             12.3484
 Hexadecapole moment (field-independent basis, Debye-Ang**3):
 XXXX=          -6073.5948 YYYY=          -2766.6876 ZZZZ=          -2256.7008 XXXY=             20.1097
 XXXZ=             99.2220 YYYX=            -17.7650 YYYZ=            177.8579 ZZZX=             29.3747
 ZZZY=            -86.4671 XXYY=          -1510.5260 XXZZ=          -1474.0685 YYZZ=           -930.0407
 XXYZ=             18.4176 YYXZ=            182.3896 ZZXY=            -70.0654
 N-N= 2.835512431340D+03 E-N=-1.138357362973D+04  KE= 2.373151796172D+03
 PrsmSu:  requested number of processors reduced to:   2 ShMem   1 Linda.
 PrsmSu:  requested number of processors reduced to:  10 ShMem   1 Linda.
   1 Symmetry operations used in ECPInt.
 ECPInt:  NShTT=   13203 NPrTT=   78401 LenC2=   11536 LenP2D=   44710.
 LDataN:  DoStor=T MaxTD1= 9 Len=  602
 Number of processors reduced to  14 by ecpmxn.
 Calling FoFJK, ICntrl=      2127 FMM=F ISym2X=0 I1Cent= 0 IOpClX= 0 NMat=1 NMatS=1 NMatT=0.
 CoulSu:  requested number of processors reduced to:  10 ShMem   1 Linda.
 Defaulting to unpruned grid for atomic number  40.
 Defaulting to unpruned grid for atomic number  40.
 Defaulting to unpruned grid for atomic number  40.
 Defaulting to unpruned grid for atomic number  40.
 Defaulting to unpruned grid for atomic number  40.
 Defaulting to unpruned grid for atomic number  40.
 Defaulting to unpruned grid for atomic number  40.
 Defaulting to unpruned grid for atomic number  40.
 Defaulting to unpruned grid for atomic number  40.
 Defaulting to unpruned grid for atomic number  40.
 Defaulting to unpruned grid for atomic number  40.
 Defaulting to unpruned grid for atomic number  40.
 Defaulting to unpruned grid for atomic number  40.
 Defaulting to unpruned grid for atomic number  40.
 Defaulting to unpruned grid for atomic number  40.
 Defaulting to unpruned grid for atomic number  40.
 ***** Axes restored to original set *****
 -------------------------------------------------------------------
 Center     Atomic                   Forces (Hartrees/Bohr)
 Number     Number              X              Y              Z
 -------------------------------------------------------------------
      1       40           0.000713009   -0.000136027   -0.000036474
      2        8           0.000020885    0.000029243   -0.000052896
      3        8           0.000029356    0.000063227    0.000007173
      4        8          -0.000012911    0.000022596    0.000024521
      5        8          -0.000433579   -0.000238818   -0.000152473
      6       14          -0.000048296    0.000002779   -0.000007649
      7       14          -0.000041042    0.000047690   -0.000013726
      8       14          -0.000068316   -0.000011267    0.000035628
      9       14          -0.000388599    0.000635018    0.000455754
     10        8           0.000004300   -0.000071571   -0.000088888
     11        8           0.000014783   -0.000131404   -0.000060895
     12        8           0.000087181   -0.000152249   -0.000114732
     13        8           0.000022606    0.000011821   -0.000005919
     14        8           0.000016758   -0.000013080   -0.000006454
     15        8           0.000008146   -0.000003039   -0.000017212
     16        8           0.000004356   -0.000000807    0.000013958
     17        8           0.000016455   -0.000016697    0.000002999
     18        8           0.000015905   -0.000000836   -0.000000616
     19        8           0.000006320   -0.000018192    0.000011436
     20        8           0.000008538   -0.000016506    0.000005021
     21        8           0.000014571   -0.000003334   -0.000002560
     22        1          -0.000001219   -0.000047604   -0.000045268
     23        1           0.000009765    0.000002854    0.000012685
     24        1           0.000028794    0.000013392    0.000037293
     25        1          -0.000007476    0.000000494   -0.000000366
     26        1          -0.000003106    0.000000561    0.000009483
     27        1          -0.000026369    0.000006200    0.000013691
     28        1           0.000000112    0.000010360   -0.000001276
     29        1          -0.000000615   -0.000000749   -0.000010253
     30        1           0.000001301    0.000005347   -0.000005375
     31        1          -0.000005787    0.000001582   -0.000001300
     32        1           0.000004465    0.000002522   -0.000010836
     33        1           0.000009708    0.000006494    0.000005525
 -------------------------------------------------------------------
 Cartesian Forces:  Max     0.000713009 RMS     0.000129953

 GradGradGradGradGradGradGradGradGradGradGradGradGradGradGradGradGradGrad
 Berny optimization.
 FormGI is forming the generalized inverse of G from B-inverse, IUseBI=4.
 Internal  Forces:  Max     0.000669412 RMS     0.000087133
 Search for a local minimum.
 Step number   1 out of a maximum of  148
 All quantities printed in internal units (Hartrees-Bohrs-Radians)
 Mixed Optimization -- En-DIIS/RFO-DIIS
 Second derivative matrix not updated -- first step.
 ITU=  0
     Eigenvalues ---    0.00230   0.00230   0.00230   0.00230   0.03239
     Eigenvalues ---    0.03482   0.03500   0.03541   0.03581   0.03661
     Eigenvalues ---    0.03665   0.03674   0.03688   0.03735   0.03789
     Eigenvalues ---    0.03802   0.03811   0.03828   0.03857   0.03858
     Eigenvalues ---    0.08414   0.09469   0.11097   0.11247   0.11629
     Eigenvalues ---    0.11809   0.11979   0.12095   0.12205   0.12217
     Eigenvalues ---    0.12600   0.12707   0.12970   0.13105   0.13263
     Eigenvalues ---    0.16000   0.16000   0.16000   0.16000   0.16000
     Eigenvalues ---    0.16000   0.16000   0.16000   0.16000   0.16000
     Eigenvalues ---    0.16000   0.16000   0.19184   0.19894   0.19953
     Eigenvalues ---    0.20035   0.20159   0.20200   0.20253   0.20422
     Eigenvalues ---    0.20563   0.20992   0.21009   0.21136   0.21189
     Eigenvalues ---    0.21280   0.25000   0.25000   0.25000   0.37992
     Eigenvalues ---    0.40480   0.40678   0.41116   0.41558   0.42453
     Eigenvalues ---    0.42502   0.42607   0.42768   0.43316   0.43953
     Eigenvalues ---    0.44102   0.44216   0.44422   0.44767   0.44782
     Eigenvalues ---    0.50680   0.51458   0.52211   0.52570   0.54329
     Eigenvalues ---    0.54614   0.54648   0.54671   0.54696   0.54715
     Eigenvalues ---    0.54740   0.548931000.000001000.000001000.00000
     Eigenvalues --- 1000.000001000.000001000.000001000.000001000.00000
     Eigenvalues --- 1000.000001000.000001000.000001000.000001000.00000
     Eigenvalues --- 1000.000001000.000001000.000001000.000001000.00000
     Eigenvalues --- 1000.000001000.000001000.000001000.000001000.00000
     Eigenvalues --- 1000.000001000.000001000.000001000.000001000.00000
     Eigenvalues --- 1000.000001000.000001000.000001000.000001000.00000
     Eigenvalues --- 1000.000001000.000001000.000001000.000001000.00000
     Eigenvalues --- 1000.000001000.000001000.000001000.000001000.00000
     Eigenvalues --- 1000.000001000.000001000.00000
 RFO step:  Lambda=-5.45861247D-06 EMin= 2.30000000D-03
 Linear search not attempted -- first point.
 Iteration  1 RMS(Cart)=  0.01025597 RMS(Int)=  0.00002891
 Iteration  2 RMS(Cart)=  0.00004692 RMS(Int)=  0.00000010
 Iteration  3 RMS(Cart)=  0.00000000 RMS(Int)=  0.00000010
 Iteration  1 RMS(Cart)=  0.00000000 RMS(Int)=  0.00000000
 Variable       Old X    -DE/DX   Delta X   Delta X   Delta X     New X
                                 (Linear)    (Quad)   (Total)
    R1        3.67636  -0.00001   0.00000  -0.00005  -0.00005   3.67631
    R2        3.69031   0.00008   0.00000   0.00039   0.00039   3.69070
    R3        3.73798  -0.00002   0.00000  -0.00010  -0.00010   3.73788
    R4        3.71087  -0.00067   0.00000  -0.00335  -0.00335   3.70751
    R5        3.13764   0.00006   0.00000   0.00014   0.00014   3.13779
    R6        3.09653   0.00003   0.00000   0.00007   0.00007   3.09659
    R7        3.10211   0.00000   0.00000   0.00001   0.00001   3.10212
    R8        3.09248  -0.00019   0.00000  -0.00043  -0.00043   3.09205
    R9        3.11657  -0.00000   0.00000  -0.00001  -0.00001   3.11655
   R10        3.11988  -0.00002   0.00000  -0.00004  -0.00004   3.11984
   R11        3.14342  -0.00000   0.00000  -0.00001  -0.00001   3.14341
   R12        3.18077  -0.00001   0.00000  -0.00002  -0.00002   3.18076
   R13        3.10982  -0.00001   0.00000  -0.00001  -0.00001   3.10981
   R14        3.09230  -0.00002   0.00000  -0.00003  -0.00003   3.09227
   R15        3.10032  -0.00001   0.00000  -0.00003  -0.00003   3.10029
   R16        3.14606  -0.00001   0.00000  -0.00001  -0.00001   3.14605
   R17        3.09896  -0.00001   0.00000  -0.00002  -0.00002   3.09895
   R18        3.11858   0.00004   0.00000   0.00009   0.00009   3.11867
   R19        3.13189   0.00012   0.00000   0.00029   0.00029   3.13218
   R20        3.12050  -0.00023   0.00000  -0.00055  -0.00055   3.11995
   R21        1.82146  -0.00001   0.00000  -0.00001  -0.00001   1.82145
   R22        1.82064  -0.00000   0.00000  -0.00001  -0.00001   1.82063
   R23        1.82104  -0.00003   0.00000  -0.00005  -0.00005   1.82099
   R24        1.84058   0.00000   0.00000   0.00000   0.00000   1.84058
   R25        1.84398  -0.00000   0.00000  -0.00001  -0.00001   1.84397
   R26        1.81928   0.00000   0.00000   0.00001   0.00001   1.81928
   R27        1.82086   0.00001   0.00000   0.00002   0.00002   1.82088
   R28        1.85885   0.00001   0.00000   0.00001   0.00001   1.85886
   R29        1.82126   0.00000   0.00000   0.00000   0.00000   1.82126
   R30        1.82433   0.00000   0.00000   0.00001   0.00001   1.82434
   R31        1.82176   0.00001   0.00000   0.00001   0.00001   1.82177
   R32        1.85122  -0.00000   0.00000  -0.00000  -0.00000   1.85122
    A1        1.85569   0.00004   0.00000   0.00012   0.00012   1.85582
    A2        1.80097  -0.00004   0.00000  -0.00017  -0.00017   1.80080
    A3        1.97659  -0.00002   0.00000  -0.00012  -0.00012   1.97647
    A4        1.83906  -0.00002   0.00000  -0.00009  -0.00009   1.83897
    A5        2.01332  -0.00004   0.00000  -0.00024  -0.00024   2.01309
    A6        1.96025   0.00008   0.00000   0.00049   0.00049   1.96074
    A7        2.45892   0.00014   0.00000   0.00057   0.00057   2.45949
    A8        2.59369  -0.00002   0.00000  -0.00006  -0.00006   2.59363
    A9        2.34042  -0.00005   0.00000  -0.00019  -0.00019   2.34023
   A10        2.79252  -0.00050   0.00000   0.00000   0.00000   2.79252
   A11        1.92384   0.00001   0.00000   0.00004   0.00004   1.92388
   A12        1.91272  -0.00003   0.00000  -0.00016  -0.00016   1.91256
   A13        1.94584  -0.00000   0.00000  -0.00005  -0.00005   1.94579
   A14        2.00429   0.00002   0.00000   0.00013   0.00013   2.00441
   A15        1.88341  -0.00000   0.00000   0.00003   0.00003   1.88344
   A16        1.79022   0.00000   0.00000   0.00002   0.00002   1.79024
   A17        1.80104  -0.00001   0.00000  -0.00008  -0.00008   1.80095
   A18        1.99287   0.00000   0.00000   0.00000   0.00000   1.99288
[...]
 Alpha virt. eigenvalues --    3.47687   3.48512   3.48796   3.48857   3.51817
 Alpha virt. eigenvalues --    3.52798   3.53682   3.59982   3.61191   3.62153
 Alpha virt. eigenvalues --    3.65915   4.37865   4.63646   7.84952  31.25163
          Condensed to atoms (all electrons):
               1          2          3          4          5          6
     1  Zr  15.057057  -0.038983  -0.006446  -0.132569  -0.191163  -0.699386
     2  O   -0.038983   8.855238   0.015329  -0.043277  -0.054804   0.066630
     3  O   -0.006446   0.015329   8.831378   0.017185  -0.047613  -0.002853
     4  O   -0.132569  -0.043277   0.017185   8.816186  -0.062342  -0.698410
     5  O   -0.191163  -0.054804  -0.047613  -0.062342   9.369620  -0.008183
     6  Si  -0.699386   0.066630  -0.002853  -0.698410  -0.008183  14.157895
     7  Si  -0.587652  -0.021818  -0.870143  -0.009825  -0.032768   0.090100
     8  Si  -0.669042  -0.762587  -0.019562   0.068654  -0.013216   0.024327
     9  Si  -0.262342  -0.033853  -0.017549  -0.023788  -1.118178   0.040628
    10  O   -0.029765   0.000870  -0.001382  -0.000047   0.117896  -0.001570
    11  O   -0.098587   0.002496   0.003332   0.002139   0.325176   0.000013
    12  O    0.052707   0.001060   0.004919   0.001700   0.113704  -0.003153
    13  O   -0.010464   0.256797   0.001621  -0.015884  -0.000593   0.032127
    14  O   -0.033832   0.250973  -0.017194  -0.002559   0.000865   0.007126
    15  O   -0.053460   0.257714   0.000185   0.002571   0.000847  -0.007062
    16  O   -0.133236   0.005527  -0.000309   0.348543   0.003470  -0.443598
    17  O   -0.081063  -0.040002   0.010151   0.210730   0.000880  -0.446913
    18  O   -0.021157  -0.018942   0.003723   0.202488  -0.001202  -0.478236
    19  O    0.002160   0.008265   0.270719   0.012118   0.002336  -0.008733
    20  O   -0.136650  -0.000774   0.154908  -0.000663   0.001287   0.009650
    21  O    0.030542   0.011099   0.153222   0.003685   0.000284  -0.013395
    22  H   -0.010940  -0.000005   0.000029  -0.000005   0.006415   0.000107
    23  H   -0.007640  -0.000009  -0.000006  -0.000037  -0.024215   0.000142
    24  H   -0.006286  -0.000073  -0.000006   0.000008  -0.003740   0.000145
    25  H    0.022169  -0.021774  -0.000136  -0.000875  -0.000016   0.000328
    26  H   -0.007494  -0.013097   0.000017  -0.000012  -0.000021   0.000254
    27  H    0.005868  -0.020562   0.000731  -0.001619   0.000034   0.009946
    28  H    0.004531  -0.000011  -0.018106  -0.000013  -0.000011  -0.000273
    29  H    0.000121  -0.005282  -0.019812  -0.000196  -0.000063   0.000700
    30  H   -0.000205  -0.000010   0.000130  -0.000478  -0.000008  -0.000455
    31  H    0.003071   0.000296  -0.000021  -0.018016  -0.000017   0.060568
    32  H    0.002400  -0.000028   0.000035   0.011091   0.000006   0.019721
    33  H   -0.014532   0.000968  -0.010343  -0.009479  -0.000089   0.052074
               7          8          9         10         11         12
     1  Zr  -0.587652  -0.669042  -0.262342  -0.029765  -0.098587   0.052707
     2  O   -0.021818  -0.762587  -0.033853   0.000870   0.002496   0.001060
     3  O   -0.870143  -0.019562  -0.017549  -0.001382   0.003332   0.004919
     4  O   -0.009825   0.068654  -0.023788  -0.000047   0.002139   0.001700
     5  O   -0.032768  -0.013216  -1.118178   0.117896   0.325176   0.113704
     6  Si   0.090100   0.024327   0.040628  -0.001570   0.000013  -0.003153
     7  Si  13.761348   0.170983   0.018418   0.001064  -0.000887   0.002661
     8  Si   0.170983  13.767153   0.034981  -0.001415   0.001706  -0.002199
     9  Si   0.018418   0.034981  13.955971  -0.029837  -0.178434  -0.163020
    10  O    0.001064  -0.001415  -0.029837   8.512808   0.009121   0.035720
    11  O   -0.000887   0.001706  -0.178434   0.009121   8.541872  -0.054980
    12  O    0.002661  -0.002199  -0.163020   0.035720  -0.054980   8.589500
    13  O    0.003569  -0.139123  -0.000166  -0.000001   0.000015  -0.000012
    14  O    0.014484  -0.503836  -0.000857  -0.000002   0.000004   0.000010
    15  O   -0.003602  -0.384127  -0.001057  -0.000001  -0.000015   0.000001
    16  O    0.003748  -0.009130  -0.000994   0.000006  -0.000010  -0.000001
    17  O   -0.003396   0.096498   0.002805   0.000004   0.000005  -0.000008
    18  O   -0.001426   0.079365   0.003683   0.000003   0.000008   0.000002
    19  O   -0.425544  -0.018041   0.000886   0.000008  -0.000000  -0.000056
    20  O   -0.100801   0.009487   0.003120   0.000028  -0.000003  -0.000055
    21  O    0.024875  -0.047305  -0.001398  -0.000002   0.000001   0.000006
    22  H   -0.000046   0.000125   0.047773  -0.006033  -0.004855   0.220522
    23  H    0.000021   0.000054   0.077957   0.230445  -0.005252   0.005508
    24  H    0.000038   0.000157   0.036438   0.007351   0.241236  -0.007057
    25  H   -0.000357   0.053395  -0.000223  -0.000000  -0.000000  -0.000000
    26  H    0.000566   0.063870  -0.000230   0.000000   0.000000  -0.000002
    27  H    0.001074   0.077204   0.000015   0.000000  -0.000000   0.000000
    28  H    0.056754   0.000062  -0.000155  -0.000000  -0.000000  -0.000002
    29  H    0.048161   0.024286  -0.000091   0.000000  -0.000000  -0.000001
    30  H    0.041859   0.000144   0.000012  -0.000000   0.000000   0.000000
    31  H    0.000096  -0.002736  -0.000059   0.000000  -0.000000   0.000000
    32  H   -0.000604   0.000102   0.000008  -0.000000   0.000000  -0.000000
    33  H    0.021548  -0.000127   0.000060  -0.000000   0.000000   0.000000
              13         14         15         16         17         18
     1  Zr  -0.010464  -0.033832  -0.053460  -0.133236  -0.081063  -0.021157
     2  O    0.256797   0.250973   0.257714   0.005527  -0.040002  -0.018942
     3  O    0.001621  -0.017194   0.000185  -0.000309   0.010151   0.003723
     4  O   -0.015884  -0.002559   0.002571   0.348543   0.210730   0.202488
     5  O   -0.000593   0.000865   0.000847   0.003470   0.000880  -0.001202
     6  Si   0.032127   0.007126  -0.007062  -0.443598  -0.446913  -0.478236
     7  Si   0.003569   0.014484  -0.003602   0.003748  -0.003396  -0.001426
     8  Si  -0.139123  -0.503836  -0.384127  -0.009130   0.096498   0.079365
     9  Si  -0.000166  -0.000857  -0.001057  -0.000994   0.002805   0.003683
    10  O   -0.000001  -0.000002  -0.000001   0.000006   0.000004   0.000003
    11  O    0.000015   0.000004  -0.000015  -0.000010   0.000005   0.000008
    12  O   -0.000012   0.000010   0.000001  -0.000001  -0.000008   0.000002
    13  O    8.639530   0.024255  -0.114811   0.003890  -0.028656  -0.042374
    14  O    0.024255   8.813237   0.155225   0.002690  -0.028644  -0.022741
    15  O   -0.114811   0.155225   8.777113  -0.000163   0.003823   0.001135
    16  O    0.003890   0.002690  -0.000163   8.915895  -0.095393  -0.103705
    17  O   -0.028656  -0.028644   0.003823  -0.095393   8.942997   0.222484
    18  O   -0.042374  -0.022741   0.001135  -0.103705   0.222484   9.033680
    19  O    0.000230   0.002082   0.000331  -0.001065  -0.031280   0.000141
    20  O    0.000010  -0.000995   0.000005   0.000053  -0.000753   0.000014
    21  O   -0.000500   0.025781   0.000822  -0.000186  -0.005835   0.000400
    22  H   -0.000000  -0.000000   0.000000   0.000000   0.000000  -0.000000
    23  H    0.000000   0.000000   0.000000  -0.000000   0.000000   0.000000
    24  H   -0.000000   0.000000   0.000001   0.000000  -0.000000  -0.000000
    25  H    0.216834  -0.009329   0.007515  -0.000253   0.000589   0.015318
    26  H   -0.006715   0.001234   0.225745   0.000000  -0.000021   0.000010
    27  H   -0.004544   0.206752   0.000037   0.000295   0.017899  -0.000802
    28  H    0.000000  -0.000003  -0.000001  -0.000000   0.000002  -0.000000
    29  H    0.000777   0.013725  -0.001389  -0.000004  -0.000716  -0.000002
    30  H    0.000001  -0.000009   0.000001   0.000103  -0.000437  -0.000008
    31  H    0.002360   0.000070  -0.000020   0.005164  -0.001193   0.216556
    32  H   -0.000007  -0.000006   0.000000   0.235878  -0.003444   0.003918
    33  H    0.000247   0.001959  -0.000055   0.000178   0.229663   0.002278
              19         20         21         22         23         24
     1  Zr   0.002160  -0.136650   0.030542  -0.010940  -0.007640  -0.006286
     2  O    0.008265  -0.000774   0.011099  -0.000005  -0.000009  -0.000073
     3  O    0.270719   0.154908   0.153222   0.000029  -0.000006  -0.000006
     4  O    0.012118  -0.000663   0.003685  -0.000005  -0.000037   0.000008
     5  O    0.002336   0.001287   0.000284   0.006415  -0.024215  -0.003740
     6  Si  -0.008733   0.009650  -0.013395   0.000107   0.000142   0.000145
     7  Si  -0.425544  -0.100801   0.024875  -0.000046   0.000021   0.000038
     8  Si  -0.018041   0.009487  -0.047305   0.000125   0.000054   0.000157
     9  Si   0.000886   0.003120  -0.001398   0.047773   0.077957   0.036438
    10  O    0.000008   0.000028  -0.000002  -0.006033   0.230445   0.007351
    11  O   -0.000000  -0.000003   0.000001  -0.004855  -0.005252   0.241236
    12  O   -0.000056  -0.000055   0.000006   0.220522   0.005508  -0.007057
    13  O    0.000230   0.000010  -0.000500  -0.000000   0.000000  -0.000000
    14  O    0.002082  -0.000995   0.025781  -0.000000   0.000000   0.000000
    15  O    0.000331   0.000005   0.000822   0.000000   0.000000   0.000001
    16  O   -0.001065   0.000053  -0.000186   0.000000  -0.000000   0.000000
    17  O   -0.031280  -0.000753  -0.005835   0.000000   0.000000  -0.000000
    18  O    0.000141   0.000014   0.000400  -0.000000   0.000000  -0.000000
    19  O    8.884293   0.033345   0.024944  -0.000000   0.000000  -0.000000
    20  O    0.033345   8.655702  -0.055282   0.000000   0.000000  -0.000000
    21  O    0.024944  -0.055282   8.484763  -0.000000   0.000000   0.000000
    22  H   -0.000000   0.000000  -0.000000   0.360611   0.000061   0.000118
    23  H    0.000000   0.000000   0.000000   0.000061   0.350695   0.000018
    24  H   -0.000000  -0.000000   0.000000   0.000118   0.000018   0.367985
    25  H   -0.000034   0.000000  -0.000013   0.000000   0.000000   0.000000
    26  H    0.000000  -0.000000   0.000043  -0.000000   0.000000  -0.000000
    27  H   -0.000234   0.000222  -0.004719  -0.000000  -0.000000   0.000000
    28  H    0.004325   0.228885  -0.001596  -0.000000   0.000000  -0.000000
    29  H   -0.008638   0.008054   0.208268   0.000000  -0.000000  -0.000000
    30  H    0.223345  -0.001481  -0.007236   0.000000  -0.000000  -0.000000
    31  H    0.000002  -0.000000  -0.000000  -0.000000   0.000000   0.000000
    32  H    0.000093   0.000000   0.000001  -0.000000  -0.000000  -0.000000
    33  H    0.013529  -0.000082   0.001406  -0.000000  -0.000000  -0.000000
              25         26         27         28         29         30
     1  Zr   0.022169  -0.007494   0.005868   0.004531   0.000121  -0.000205
     2  O   -0.021774  -0.013097  -0.020562  -0.000011  -0.005282  -0.000010
     3  O   -0.000136   0.000017   0.000731  -0.018106  -0.019812   0.000130
     4  O   -0.000875  -0.000012  -0.001619  -0.000013  -0.000196  -0.000478
     5  O   -0.000016  -0.000021   0.000034  -0.000011  -0.000063  -0.000008
     6  Si   0.000328   0.000254   0.009946  -0.000273   0.000700  -0.000455
     7  Si  -0.000357   0.000566   0.001074   0.056754   0.048161   0.041859
     8  Si   0.053395   0.063870   0.077204   0.000062   0.024286   0.000144
     9  Si  -0.000223  -0.000230   0.000015  -0.000155  -0.000091   0.000012
    10  O   -0.000000   0.000000   0.000000  -0.000000   0.000000  -0.000000
    11  O   -0.000000   0.000000  -0.000000  -0.000000  -0.000000   0.000000
    12  O   -0.000000  -0.000002   0.000000  -0.000002  -0.000001   0.000000
    13  O    0.216834  -0.006715  -0.004544   0.000000   0.000777   0.000001
    14  O   -0.009329   0.001234   0.206752  -0.000003   0.013725  -0.000009
    15  O    0.007515   0.225745   0.000037  -0.000001  -0.001389   0.000001
    16  O   -0.000253   0.000000   0.000295  -0.000000  -0.000004   0.000103
    17  O    0.000589  -0.000021   0.017899   0.000002  -0.000716  -0.000437
    18  O    0.015318   0.000010  -0.000802  -0.000000  -0.000002  -0.000008
    19  O   -0.000034   0.000000  -0.000234   0.004325  -0.008638   0.223345
    20  O    0.000000  -0.000000   0.000222   0.228885   0.008054  -0.001481
    21  O   -0.000013   0.000043  -0.004719  -0.001596   0.208268  -0.007236
    22  H    0.000000  -0.000000  -0.000000  -0.000000   0.000000   0.000000
    23  H    0.000000   0.000000  -0.000000   0.000000  -0.000000  -0.000000
    24  H    0.000000  -0.000000   0.000000  -0.000000  -0.000000  -0.000000
    25  H    0.301341  -0.000032   0.000036   0.000000   0.000001   0.000000
    26  H   -0.000032   0.369253  -0.000037   0.000000   0.000017  -0.000000
    27  H    0.000036  -0.000037   0.284740  -0.000000  -0.000986   0.000007
    28  H    0.000000   0.000000  -0.000000   0.349134  -0.000016  -0.000011
    29  H    0.000001   0.000017  -0.000986  -0.000016   0.286111   0.000165
    30  H    0.000000  -0.000000   0.000007  -0.000011   0.000165   0.334376
    31  H   -0.000204   0.000000   0.000014   0.000000   0.000000  -0.000000
    32  H   -0.000001  -0.000000  -0.000000   0.000000  -0.000000  -0.000000
    33  H    0.000006   0.000000  -0.002458  -0.000002   0.000126  -0.001043
              31         32         33
     1  Zr   0.003071   0.002400  -0.014532
     2  O    0.000296  -0.000028   0.000968
     3  O   -0.000021   0.000035  -0.010343
     4  O   -0.018016   0.011091  -0.009479
     5  O   -0.000017   0.000006  -0.000089
     6  Si   0.060568   0.019721   0.052074
     7  Si   0.000096  -0.000604   0.021548
     8  Si  -0.002736   0.000102  -0.000127
     9  Si  -0.000059   0.000008   0.000060
    10  O    0.000000  -0.000000  -0.000000
    11  O   -0.000000   0.000000   0.000000
    12  O    0.000000  -0.000000   0.000000
    13  O    0.002360  -0.000007   0.000247
    14  O    0.000070  -0.000006   0.001959
    15  O   -0.000020   0.000000  -0.000055
    16  O    0.005164   0.235878   0.000178
    17  O   -0.001193  -0.003444   0.229663
    18  O    0.216556   0.003918   0.002278
    19  O    0.000002   0.000093   0.013529
    20  O   -0.000000   0.000000  -0.000082
    21  O   -0.000000   0.000001   0.001406
    22  H   -0.000000  -0.000000  -0.000000
    23  H    0.000000  -0.000000  -0.000000
    24  H    0.000000  -0.000000  -0.000000
    25  H   -0.000204  -0.000001   0.000006
    26  H    0.000000  -0.000000   0.000000
    27  H    0.000014  -0.000000  -0.002458
    28  H    0.000000   0.000000  -0.000002
    29  H    0.000000  -0.000000   0.000126
    30  H   -0.000000  -0.000000  -0.001043
    31  H    0.327256  -0.000011  -0.000036
    32  H   -0.000011   0.349099   0.000147
    33  H   -0.000036   0.000147   0.270986
 Mulliken charges:
               1
     1  Zr   0.052263
     2  O   -0.657370
     3  O   -0.436132
     4  O   -0.677002
     5  O   -0.384577
     6  Si   2.239741
     7  Si   1.797498
     8  Si   2.099892
     9  Si   1.609476
    10  O   -0.845271
    11  O   -0.784101
    12  O   -0.797475
    13  O   -0.818412
    14  O   -0.900461
    15  O   -0.867309
    16  O   -0.737394
    17  O   -0.970779
    18  O   -1.094610
    19  O   -0.989527
    20  O   -0.807233
    21  O   -0.832676
    22  H    0.386122
    23  H    0.372258
    24  H    0.363667
    25  H    0.415714
    26  H    0.366650
    27  H    0.431084
    28  H    0.376508
    29  H    0.446685
    30  H    0.411240
    31  H    0.406859
    32  H    0.381602
    33  H    0.443071
 Sum of Mulliken charges =  -0.00000
 Mulliken charges with hydrogens summed into heavy atoms:
               1
     1  Zr   0.052263
     2  O   -0.657370
     3  O   -0.436132
     4  O   -0.677002
     5  O   -0.384577
     6  Si   2.239741
     7  Si   1.797498
     8  Si   2.099892
     9  Si   1.609476
    10  O   -0.473013
    11  O   -0.420434
    12  O   -0.411353
    13  O   -0.402697
    14  O   -0.469377
    15  O   -0.500659
    16  O   -0.355792
    17  O   -0.527708
    18  O   -0.687751
    19  O   -0.578287
    20  O   -0.430725
    21  O   -0.385991
 Electronic spatial extent (au):  <R**2>=           9822.9700
 Charge=              0.0000 electrons
 Dipole moment (field-independent basis, Debye):
    X=              3.0231    Y=             -1.4976    Z=             -2.9480  Tot=              4.4802
 Quadrupole moment (field-independent basis, Debye-Ang):
   XX=           -166.9784   YY=           -152.1991   ZZ=           -158.3955
   XY=             -6.8815   XZ=             13.1416   YZ=              2.5841
 Traceless Quadrupole moment (field-independent basis, Debye-Ang):
   XX=             -7.7874   YY=              6.9919   ZZ=              0.7955
   XY=             -6.8815   XZ=             13.1416   YZ=              2.5841
 Octapole moment (field-independent basis, Debye-Ang**2):
  XXX=             89.0762  YYY=             -4.8976  ZZZ=            -36.8002  XYY=             -5.6644
  XXY=             27.2537  XXZ=            -21.1525  XZZ=             61.7766  YZZ=            -25.9695
  YYZ=             -2.0979  XYZ=             12.8537
 Hexadecapole moment (field-independent basis, Debye-Ang**3):
 XXXX=          -6063.4084 YYYY=          -2768.6107 ZZZZ=          -2256.0113 XXXY=             21.5532
 XXXZ=            100.3113 YYYX=            -10.1099 YYYZ=            174.4103 ZZZX=             28.0000
 ZZZY=            -89.6289 XXYY=          -1505.8698 XXZZ=          -1479.9737 YYZZ=           -924.5500
 XXYZ=             22.2625 YYXZ=            183.1659 ZZXY=            -77.2386
 N-N= 2.835595154504D+03 E-N=-1.138375149642D+04  KE= 2.373154576376D+03
 1\1\GINC-GRA1010\FOpt\RB3LYP\Gen\H12O16Si4Zr1\SARASHS\02-Aug-2020\0\\#
 n B3LYP/Gen Pseudo=cards EmpiricalDispersion=GD3 Opt=modredundant\\Tit
 le\\0,1\Zr,0.6462839075,-0.1947291672,-0.1450839058\O,-0.198700281,-0.
 9385180841,1.4417323948\O,0.1769676647,1.7008301413,-0.1790663959\O,-0
 .3757837753,-1.0140847598,-1.6272459369\O,2.5658442709,-0.5870827934,-
 0.2524714367\Si,-1.966977237,-1.3262023152,-1.8828359608\Si,-0.9843393
 28,2.8545106282,-0.1056389078\Si,-1.6838278994,-1.0607763208,2.1740990
 036\Si,4.183411578,-0.4085272479,-0.0834509547\O,4.9202233373,0.293867
 6838,-1.3825198671\O,4.9103772525,-1.8890993637,0.0818280203\O,4.36655
 52844,0.5876329584,1.2200741117\O,-2.3448979839,-2.5195627208,1.818515
 2459\O,-2.6266198964,0.2037191907,1.6414866403\O,-1.5662800317,-0.8416
 224504,3.795084091\O,-2.2479855467,-1.5784700127,-3.4882199411\O,-2.88
 16838754,-0.1348919348,-1.1974379755\O,-2.4618779043,-2.6830072511,-1.
 0575296324\O,-2.0006353038,2.459036221,-1.3877843228\O,-0.4390564102,4
 .3796623733,-0.3966694576\O,-1.756327851,2.8605322446,1.337212099\H,5.
 2361741132,0.982848958,1.347288341\H,5.2957858048,-0.3101881832,-2.032
 9924326\H,4.4865656292,-2.5272570721,0.6660828764\H,-2.4139671448,-2.7
 492404125,0.8744950374\H,-0.9580497994,-1.4123197922,4.2758894466\H,-3
 .033627235,0.045313455,0.7689170877\H,-0.285216903,4.9293009406,0.3802
 437516\H,-2.0959084873,1.9961629499,1.6489711438\H,-2.5977710212,3.163
 4547128,-1.6692261939\H,-2.5670928041,-3.4861700239,-1.5797363729\H,-1
 .5448693072,-1.3215815631,-4.0949332624\H,-2.6363428164,0.7946190114,-
 1.4058663343\\Version=ES64L-G16RevB.01\State=1-A\HF=-2416.9458577\RMSD
 =2.919e-09\RMSF=2.104e-05\Dipole=1.159028,-0.6036309,-1.1828915\Quadru
 pole=-5.7326581,5.386313,0.3463451,-4.9409827,9.8510592,1.8224516\PG=C
 01 [X(H12O16Si4Zr1)]\\@


 "TIGER, TIGER BURNING BRIGHT
 IN THE FOREST OF THE NIGHT.
 WHAT IMMORTAL HAND OR EYE
 CAN FRAME THY FEARFUL SYMMETRYE?"
                     - WILLIAM BLAKE
 Job cpu time:       0 days 16 hours 47 minutes 58.8 seconds.
 Elapsed time:       0 days  1 hours 15 minutes 45.9 seconds.
 File lengths (MBytes):  RWF=    167 Int=      0 D2E=      0 Chk=     21 Scr=      1
 Normal termination of Gaussian 16 at Sun Aug  2 08:21:30 2020.
