 Entering Gaussian System, Link 0=g16
 Initial command:
 /opt/software/gaussian/g16.b01/l1.exe "/localscratch/sarashs.36760149.0/Gau-264800.inp" -scrdir="/localscratch/sarashs.36760149.0/"
 Entering Link 1 = /opt/software/gaussian/g16.b01/l1.exe PID=    264802.
  
 Copyright (c) 1988-2017, Gaussian, Inc.  All Rights Reserved.
  
 This is part of the Gaussian(R) 16 program.  It is based on
 the Gaussian(R) 09 system (copyright 2009, Gaussian, Inc.),
 the Gaussian(R) 03 system (copyright 2003, Gaussian, Inc.),
 the Gaussian(R) 98 system (copyright 1998, Gaussian, Inc.),
 the Gaussian(R) 94 system (copyright 1995, Gaussian, Inc.),
 the Gaussian 92(TM) system (copyright 1992, Gaussian, Inc.),
 the Gaussian 90(TM) system (copyright 1990, Gaussian, Inc.),
 the Gaussian 88(TM) system (copyright 1988, Gaussian, Inc.),
 the Gaussian 86(TM) system (copyright 1986, Carnegie Mellon
 University), and the Gaussian 82(TM) system (copyright 1983,
 Carnegie Mellon University). Gaussian is a federally registered
 trademark of Gaussian, Inc.
  
 This software contains proprietary and confidential information,
 including trade secrets, belonging to Gaussian, Inc.
  
 This software is provided under written license and may be
 used, copied, transmitted, or stored only in accord with that
 written license.
  
 The following legend is applicable only to US Government
 contracts under FAR:
  
                    RESTRICTED RIGHTS LEGEND
  
 Use, reproduction and disclosure by the US Government is
 subject to restrictions as set forth in subparagraphs (a)
 and (c) of the Commercial Computer Software - Restricted
 Rights clause in FAR 52.227-19.
  
 Gaussian, Inc.
 340 Quinnipiac St., Bldg. 40, Wallingford CT 06492
  
  
 ---------------------------------------------------------------
 Warning -- This program may not be used in any manner that
 competes with the business of Gaussian, Inc. or will provide
 assistance to any competitor of Gaussian, Inc.  The licensee
 of this program is prohibited from giving any competitor of
 Gaussian, Inc. access to this program.  By using this program,
 the user acknowledges that Gaussian, Inc. is engaged in the
 business of creating and licensing software in the field of
 computational chemistry and represents and warrants to the
 licensee that it is not a competitor of Gaussian, Inc. and that
 it will not use this program in any manner prohibited above.
 ---------------------------------------------------------------
  

 Cite this work as:
 Gaussian 16, Revision B.01,
 M. J. Frisch, G. W. Trucks, H. B. Schlegel, G. E. Scuseria, 
 M. A. Robb, J. R. Cheeseman, G. Scalmani, V. Barone, 
 G. A. Petersson, H. Nakatsuji, X. Li, M. Caricato, A. V. Marenich, 
 J. Bloino, B. G. Janesko, R. Gomperts, B. Mennucci, H. P. Hratchian, 
 J. V. Ortiz, A. F. Izmaylov, J. L. Sonnenberg, D. Williams-Young, 
 F. Ding, F. Lipparini, F. Egidi, J. Goings, B. Peng, A. Petrone, 
 T. Henderson, D. Ranasinghe, V. G. Zakrzewski, J. Gao, N. Rega, 
 G. Zheng, W. Liang, M. Hada, M. Ehara, K. Toyota, R. Fukuda, 
 J. Hasegawa, M. Ishida, T. Nakajima, Y. Honda, O. Kitao, H. Nakai, 
 T. Vreven, K. Throssell, J. A. Montgomery, Jr., J. E. Peralta, 
 F. Ogliaro, M. J. Bearpark, J. J. Heyd, E. N. Brothers, K. N. Kudin, 
 V. N. Staroverov, T. A. Keith, R. Kobayashi, J. Normand, 
 K. Raghavachari, A. P. Rendell, J. C. Burant, S. S. Iyengar, 
 J. Tomasi, M. Cossi, J. M. Millam, M. Klene, C. Adamo, R. Cammi, 
 J. W. Ochterski, R. L. Martin, K. Morokuma, O. Farkas, 
 J. B. Foresman, and D. J. Fox, Gaussian, Inc., Wallingford CT, 2016.
 
 ******************************************
 Gaussian 16:  ES64L-G16RevB.01 20-Dec-2017
                 2-Aug-2020 
 ******************************************
 %NProcShared=16
 Will use up to   16 processors via shared memory.
 ------------------------------------------------------------------
 #n B3LYP/Gen Pseudo=cards EmpiricalDispersion=GD3 Opt=modredundant
 ------------------------------------------------------------------
 1/18=120,19=15,26=3,38=1/1,3;
 2/9=110,12=2,17=6,18=5,40=1/2;
 3/5=7,11=2,16=1,17=8,25=1,30=1,71=1,74=-5,124=31/1,2,3;
 4//1;
 5/5=2,38=5/2;
 6/7=2,8=2,9=2,10=2,28=1/1;
 7//1,2,3,16;
 1/18=20,19=15,26=3/3(2);
 2/9=110/2;
 99//99;
 2/9=110/2;
 3/5=7,6=1,11=2,16=1,17=8,25=1,30=1,71=1,74=-5,82=7,124=31/1,2,3;
 4/5=5,16=3,69=1/1;
 5/5=2,38=5/2;
 7//1,2,3,16;
 1/18=20,19=15,26=3/3(-5);
 2/9=110/2;
 6/7=2,8=2,9=2,10=2,19=2,28=1/1;
 99/9=1/99;
 -----
 Title
 -----
 Symbolic Z-matrix:
 Charge =  0 Multiplicity = 1
 Zr                    0.64646  -0.19013  -0.1519 
 O                    -0.19212  -0.93131   1.43939 
 O                     0.17263   1.70395  -0.1904 
 O                    -0.37772  -1.01692  -1.62844 
 O                     2.5678   -0.57883  -0.26812 
 Si                   -1.96924  -1.33216  -1.87829 
 Si                   -0.98958   2.85681  -0.11809 
 Si                   -1.67476  -1.05152   2.17706 
 Si                    4.15071  -0.2673    0.00643 
 O                     4.89784   0.55406  -1.21447 
 O                     4.99551  -1.68464   0.16197 
 O                     4.16449   0.68591   1.35475 
 O                    -2.33574  -2.51245   1.83004 
 O                    -2.6209    0.20928   1.64149 
 O                    -1.552    -0.82432   3.7965 
 O                    -2.25427  -1.59164  -3.48183 
 O                    -2.88371  -0.13912  -1.19557 
 O                    -2.46027  -2.68598  -1.04579 
 O                    -2.00825   2.45605  -1.3967 
 O                    -0.44623   4.38142  -0.41555 
 O                    -1.75835   2.86715   1.32642 
 H                     4.98446   1.15251   1.55109 
 H                     5.35823   0.01483  -1.8674 
 H                     4.5868   -2.38813   0.678 
 H                    -2.40738  -2.74575   0.88712 
 H                    -0.93391  -1.38513   4.27638 
 H                    -3.02928   0.04705   0.77024 
 H                    -0.29029   4.93346   0.35924 
 H                    -2.09489   2.00321   1.64266 
 H                    -2.6086    3.15807  -1.6773 
 H                    -2.56602  -3.49143  -1.56436 
 H                    -1.55278  -1.33714  -4.09141 
 H                    -2.64046   0.78995  -1.40829 
 
 The following ModRedundant input section has been read:
 A       1       5       9 F                                                   
 

 GradGradGradGradGradGradGradGradGradGradGradGradGradGradGradGradGradGrad
 Berny optimization.
 Initialization pass.
                           ----------------------------
                           !    Initial Parameters    !
                           ! (Angstroms and Degrees)  !
 --------------------------                            --------------------------
 ! Name  Definition              Value          Derivative Info.                !
 --------------------------------------------------------------------------------
 ! R1    R(1,2)                  1.9454         estimate D2E/DX2                !
 ! R2    R(1,3)                  1.9528         estimate D2E/DX2                !
 ! R3    R(1,4)                  1.9781         estimate D2E/DX2                !
 ! R4    R(1,5)                  1.9637         estimate D2E/DX2                !
 ! R5    R(2,8)                  1.6604         estimate D2E/DX2                !
 ! R6    R(3,7)                  1.6386         estimate D2E/DX2                !
 ! R7    R(4,6)                  1.6416         estimate D2E/DX2                !
 ! R8    R(5,9)                  1.6365         estimate D2E/DX2                !
 ! R9    R(6,16)                 1.6492         estimate D2E/DX2                !
 ! R10   R(6,17)                 1.651          estimate D2E/DX2                !
 ! R11   R(6,18)                 1.6634         estimate D2E/DX2                !
 ! R12   R(7,19)                 1.6832         estimate D2E/DX2                !
 ! R13   R(7,20)                 1.6456         estimate D2E/DX2                !
 ! R14   R(7,21)                 1.6364         estimate D2E/DX2                !
 ! R15   R(8,13)                 1.6406         estimate D2E/DX2                !
 ! R16   R(8,14)                 1.6648         estimate D2E/DX2                !
 ! R17   R(8,15)                 1.6399         estimate D2E/DX2                !
 ! R18   R(9,10)                 1.6503         estimate D2E/DX2                !
 ! R19   R(9,11)                 1.6573         estimate D2E/DX2                !
 ! R20   R(9,12)                 1.6513         estimate D2E/DX2                !
 ! R21   R(10,23)                0.9639         estimate D2E/DX2                !
 ! R22   R(11,24)                0.9634         estimate D2E/DX2                !
 ! R23   R(12,22)                0.9636         estimate D2E/DX2                !
 ! R24   R(13,25)                0.974          estimate D2E/DX2                !
 ! R25   R(14,27)                0.9758         estimate D2E/DX2                !
 ! R26   R(15,26)                0.9627         estimate D2E/DX2                !
 ! R27   R(16,32)                0.9636         estimate D2E/DX2                !
 ! R28   R(17,33)                0.9837         estimate D2E/DX2                !
 ! R29   R(18,31)                0.9638         estimate D2E/DX2                !
 ! R30   R(19,30)                0.9654         estimate D2E/DX2                !
 ! R31   R(20,28)                0.964          estimate D2E/DX2                !
 ! R32   R(21,29)                0.9796         estimate D2E/DX2                !
 ! A1    A(2,1,3)              106.3234         estimate D2E/DX2                !
 ! A2    A(2,1,4)              103.1879         estimate D2E/DX2                !
 ! A3    A(2,1,5)              113.2501         estimate D2E/DX2                !
 ! A4    A(3,1,4)              105.3705         estimate D2E/DX2                !
 ! A5    A(3,1,5)              115.3549         estimate D2E/DX2                !
 ! A6    A(4,1,5)              112.3142         estimate D2E/DX2                !
 ! A7    A(1,2,8)              140.8859         estimate D2E/DX2                !
 ! A8    A(1,3,7)              148.6074         estimate D2E/DX2                !
 ! A9    A(1,4,6)              134.0964         estimate D2E/DX2                !
 ! A10   A(1,5,9)              153.9997         Frozen                          !
 ! A11   A(4,6,16)             110.2282         estimate D2E/DX2                !
 ! A12   A(4,6,17)             109.5909         estimate D2E/DX2                !
 ! A13   A(4,6,18)             111.4884         estimate D2E/DX2                !
 ! A14   A(16,6,17)            114.8371         estimate D2E/DX2                !
 ! A15   A(16,6,18)            107.9112         estimate D2E/DX2                !
 ! A16   A(17,6,18)            102.5719         estimate D2E/DX2                !
 ! A17   A(3,7,19)             103.1918         estimate D2E/DX2                !
 ! A18   A(3,7,20)             114.1832         estimate D2E/DX2                !
 ! A19   A(3,7,21)             112.1241         estimate D2E/DX2                !
 ! A20   A(19,7,20)            106.4451         estimate D2E/DX2                !
 ! A21   A(19,7,21)            112.8144         estimate D2E/DX2                !
 ! A22   A(20,7,21)            107.9884         estimate D2E/DX2                !
 ! A23   A(2,8,13)             109.2843         estimate D2E/DX2                !
 ! A24   A(2,8,14)             108.0427         estimate D2E/DX2                !
 ! A25   A(2,8,15)             111.2146         estimate D2E/DX2                !
 ! A26   A(13,8,14)            112.1704         estimate D2E/DX2                !
 ! A27   A(13,8,15)            111.2482         estimate D2E/DX2                !
 ! A28   A(14,8,15)            104.7916         estimate D2E/DX2                !
 ! A29   A(5,9,10)             114.1132         estimate D2E/DX2                !
 ! A30   A(5,9,11)             110.2427         estimate D2E/DX2                !
 ! A31   A(5,9,12)             104.7706         estimate D2E/DX2                !
 ! A32   A(10,9,11)            105.3252         estimate D2E/DX2                !
 ! A33   A(10,9,12)            108.2398         estimate D2E/DX2                !
 ! A34   A(11,9,12)            114.3795         estimate D2E/DX2                !
 ! A35   A(9,10,23)            116.0374         estimate D2E/DX2                !
 ! A36   A(9,11,24)            117.2888         estimate D2E/DX2                !
 ! A37   A(9,12,22)            116.9345         estimate D2E/DX2                !
 ! A38   A(8,13,25)            116.5961         estimate D2E/DX2                !
 ! A39   A(8,14,27)            113.5263         estimate D2E/DX2                !
 ! A40   A(8,15,26)            117.3612         estimate D2E/DX2                !
 ! A41   A(6,16,32)            116.5984         estimate D2E/DX2                !
 ! A42   A(6,17,33)            117.1373         estimate D2E/DX2                !
 ! A43   A(6,18,31)            116.3135         estimate D2E/DX2                !
 ! A44   A(7,19,30)            115.0881         estimate D2E/DX2                !
 ! A45   A(7,20,28)            116.018          estimate D2E/DX2                !
 ! A46   A(7,21,29)            116.1544         estimate D2E/DX2                !
 ! D1    D(3,1,2,8)             54.013          estimate D2E/DX2                !
 ! D2    D(4,1,2,8)            -56.615          estimate D2E/DX2                !
 ! D3    D(5,1,2,8)           -178.2908         estimate D2E/DX2                !
 ! D4    D(2,1,3,7)            -51.1331         estimate D2E/DX2                !
 ! D5    D(4,1,3,7)             57.9568         estimate D2E/DX2                !
 ! D6    D(5,1,3,7)           -177.5709         estimate D2E/DX2                !
 ! D7    D(2,1,4,6)             41.2968         estimate D2E/DX2                !
 ! D8    D(3,1,4,6)            -70.0365         estimate D2E/DX2                !
 ! D9    D(5,1,4,6)            163.602          estimate D2E/DX2                !
 ! D10   D(2,1,5,9)            -89.6364         estimate D2E/DX2                !
 ! D11   D(3,1,5,9)             33.1902         estimate D2E/DX2                !
 ! D12   D(4,1,5,9)            153.9568         estimate D2E/DX2                !
 ! D13   D(1,2,8,13)            98.0767         estimate D2E/DX2                !
 ! D14   D(1,2,8,14)           -24.2296         estimate D2E/DX2                !
 ! D15   D(1,2,8,15)          -138.7156         estimate D2E/DX2                !
 ! D16   D(1,3,7,19)           -58.6416         estimate D2E/DX2                !
 ! D17   D(1,3,7,20)          -173.7291         estimate D2E/DX2                !
 ! D18   D(1,3,7,21)            63.0404         estimate D2E/DX2                !
 ! D19   D(1,4,6,16)           161.8736         estimate D2E/DX2                !
 ! D20   D(1,4,6,17)            34.551          estimate D2E/DX2                !
 ! D21   D(1,4,6,18)           -78.3045         estimate D2E/DX2                !
 ! D22   D(1,5,9,10)           -93.0136         estimate D2E/DX2                !
 ! D23   D(1,5,9,11)           148.7123         estimate D2E/DX2                !
 ! D24   D(1,5,9,12)            25.1929         estimate D2E/DX2                !
 ! D25   D(4,6,16,32)          -13.7229         estimate D2E/DX2                !
 ! D26   D(17,6,16,32)         110.6319         estimate D2E/DX2                !
 ! D27   D(18,6,16,32)        -135.686          estimate D2E/DX2                !
 ! D28   D(4,6,17,33)           49.7998         estimate D2E/DX2                !
 ! D29   D(16,6,17,33)         -74.8906         estimate D2E/DX2                !
 ! D30   D(18,6,17,33)         168.3378         estimate D2E/DX2                !
 ! D31   D(4,6,18,31)         -102.9126         estimate D2E/DX2                !
 ! D32   D(16,6,18,31)          18.2691         estimate D2E/DX2                !
 ! D33   D(17,6,18,31)         139.8941         estimate D2E/DX2                !
 ! D34   D(3,7,19,30)         -162.9704         estimate D2E/DX2                !
 ! D35   D(20,7,19,30)         -42.4468         estimate D2E/DX2                !
 ! D36   D(21,7,19,30)          75.8144         estimate D2E/DX2                !
 ! D37   D(3,7,20,28)         -100.1112         estimate D2E/DX2                !
 ! D38   D(19,7,20,28)         146.7232         estimate D2E/DX2                !
 ! D39   D(21,7,20,28)          25.3303         estimate D2E/DX2                !
 ! D40   D(3,7,21,29)          -50.5298         estimate D2E/DX2                !
 ! D41   D(19,7,21,29)          65.4642         estimate D2E/DX2                !
 ! D42   D(20,7,21,29)        -177.1813         estimate D2E/DX2                !
 ! D43   D(2,8,13,25)          -54.0971         estimate D2E/DX2                !
 ! D44   D(14,8,13,25)          65.6987         estimate D2E/DX2                !
 ! D45   D(15,8,13,25)        -177.2849         estimate D2E/DX2                !
 ! D46   D(2,8,14,27)           81.1206         estimate D2E/DX2                !
 ! D47   D(13,8,14,27)         -39.3971         estimate D2E/DX2                !
 ! D48   D(15,8,14,27)        -160.2179         estimate D2E/DX2                !
 ! D49   D(2,8,15,26)          -54.9076         estimate D2E/DX2                !
 ! D50   D(13,8,15,26)          67.168          estimate D2E/DX2                !
 ! D51   D(14,8,15,26)        -171.403          estimate D2E/DX2                !
 ! D52   D(5,9,10,23)          -94.3732         estimate D2E/DX2                !
 ! D53   D(11,9,10,23)          26.6719         estimate D2E/DX2                !
 ! D54   D(12,9,10,23)         149.4203         estimate D2E/DX2                !
 ! D55   D(5,9,11,24)          -42.1578         estimate D2E/DX2                !
 ! D56   D(10,9,11,24)        -165.6998         estimate D2E/DX2                !
 ! D57   D(12,9,11,24)          75.5822         estimate D2E/DX2                !
 ! D58   D(5,9,12,22)         -165.3212         estimate D2E/DX2                !
 ! D59   D(10,9,12,22)         -43.1978         estimate D2E/DX2                !
 ! D60   D(11,9,12,22)          73.8589         estimate D2E/DX2                !
 --------------------------------------------------------------------------------
 Trust Radius=3.00D-01 FncErr=1.00D-07 GrdErr=1.00D-06 EigMax=2.50D+02 EigMin=1.00D-04
 Number of steps in this run=    148 maximum allowed number of steps=    198.
 GradGradGradGradGradGradGradGradGradGradGradGradGradGradGradGradGradGrad

                          Input orientation:                          
 ---------------------------------------------------------------------
 Center     Atomic      Atomic             Coordinates (Angstroms)
 Number     Number       Type             X           Y           Z
 ---------------------------------------------------------------------
      1         40           0        0.646460   -0.190130   -0.151900
      2          8           0       -0.192120   -0.931310    1.439390
      3          8           0        0.172630    1.703950   -0.190400
      4          8           0       -0.377720   -1.016920   -1.628440
      5          8           0        2.567800   -0.578830   -0.268120
      6         14           0       -1.969240   -1.332160   -1.878290
      7         14           0       -0.989580    2.856810   -0.118090
      8         14           0       -1.674760   -1.051520    2.177060
      9         14           0        4.150710   -0.267300    0.006430
     10          8           0        4.897840    0.554060   -1.214470
     11          8           0        4.995510   -1.684640    0.161970
     12          8           0        4.164490    0.685910    1.354750
     13          8           0       -2.335740   -2.512450    1.830040
     14          8           0       -2.620900    0.209280    1.641490
     15          8           0       -1.552000   -0.824320    3.796500
     16          8           0       -2.254270   -1.591640   -3.481830
     17          8           0       -2.883710   -0.139120   -1.195570
     18          8           0       -2.460270   -2.685980   -1.045790
     19          8           0       -2.008250    2.456050   -1.396700
     20          8           0       -0.446230    4.381420   -0.415550
     21          8           0       -1.758350    2.867150    1.326420
     22          1           0        4.984460    1.152510    1.551090
     23          1           0        5.358230    0.014830   -1.867400
     24          1           0        4.586800   -2.388130    0.678000
     25          1           0       -2.407380   -2.745750    0.887120
     26          1           0       -0.933910   -1.385130    4.276380
     27          1           0       -3.029280    0.047050    0.770240
     28          1           0       -0.290290    4.933460    0.359240
     29          1           0       -2.094890    2.003210    1.642660
     30          1           0       -2.608600    3.158070   -1.677300
     31          1           0       -2.566020   -3.491430   -1.564360
     32          1           0       -1.552780   -1.337140   -4.091410
     33          1           0       -2.640460    0.789950   -1.408290
 ---------------------------------------------------------------------
                    Distance matrix (angstroms):
                    1          2          3          4          5
     1  Zr   0.000000
     2  O    1.945448   0.000000
     3  O    1.952828   3.119912   0.000000
     4  O    1.978054   3.074631   3.126336   0.000000
     5  O    1.963706   3.264505   3.309677   3.273909   0.000000
     6  Si   3.335647   3.784949   4.080998   1.641565   4.872872
     7  Si   3.458557   4.172714   1.638611   4.202537   4.947836
     8  Si   3.399134   1.660370   4.075577   4.020614   4.919518
     9  Si   3.508674   4.621088   4.444062   4.872516   1.636470
    10  O    4.444897   5.929333   4.969766   5.520044   2.758279
    11  O    4.609372   5.395444   5.904818   5.702896   2.702142
    12  O    3.926064   4.647861   4.399868   5.694798   2.604360
    13  O    4.267877   2.692159   5.305858   4.246356   5.673259
    14  O    3.748522   2.690866   3.659736   4.150646   5.584831
    15  O    4.563473   2.723360   5.026119   5.553918   5.792595
    16  O    4.633238   5.376514   5.252073   2.699407   5.882693
    17  O    3.681569   3.849056   3.707895   2.690334   5.547294
    18  O    4.084125   3.794666   5.189927   2.731713   5.506936
    19  O    3.949592   4.776604   2.603277   3.843677   5.605749
    20  O    4.707712   5.632981   2.757268   5.533342   5.806048
    21  O    4.161190   4.110248   2.717068   5.071818   5.756119
    22  H    4.849856   5.581376   5.146900   6.600668   3.485299
    23  H    5.018538   6.529657   5.705778   5.832901   3.270570
    24  H    4.587616   5.053723   6.081458   5.643256   2.871423
    25  H    4.115422   2.916260   5.255219   3.665572   5.548201
    26  H    4.851315   2.967274   5.542470   5.942375   5.793494
    27  H    3.797060   3.074805   3.731002   3.730478   5.726886
    28  H    5.233540   5.964217   3.308494   6.274196   6.240801
    29  H    3.942865   3.503321   2.931094   4.771787   5.662039
    30  H    4.912505   5.681211   3.472834   4.733894   6.537991
    31  H    4.818055   4.605663   6.031579   3.303931   6.043144
    32  H    4.655322   5.710153   5.238621   2.747640   5.672016
    33  H    3.652796   4.131148   3.198770   2.904004   5.504500
                    6          7          8          9         10
     6  Si   0.000000
     7  Si   4.648172   0.000000
     8  Si   4.075701   4.583910   0.000000
     9  Si   6.491524   6.016490   6.265998   0.000000
    10  O    7.152291   6.416106   7.568318   1.650282   0.000000
    11  O    7.265992   7.518278   6.996709   1.657327   2.629811
    12  O    7.221343   5.783295   6.147495   1.651292   2.675085
    13  O    3.908851   5.868246   1.640620   7.102132   8.425984
    14  O    3.897377   3.573058   1.664822   6.982496   8.050269
    15  O    5.712725   5.402874   1.639901   6.869920   8.283127
    16  O    1.649216   5.718645   5.714070   7.412530   7.803693
    17  O    1.650971   3.704631   3.697116   7.137528   7.812386
    18  O    1.663429   5.809137   3.698006   7.117741   8.041648
    19  O    3.818898   1.683194   5.018568   6.878822   7.165532
    20  O    6.091319   1.645645   6.143920   6.551376   6.621634
    21  O    5.286667   1.636375   4.010804   6.817928   7.490752
    22  H    8.141755   6.432725   7.042357   2.257648   2.830895
    23  H    7.450256   7.171585   8.182769   2.246985   0.963870
    24  H    7.115571   7.696699   6.575777   2.266958   3.512075
    25  H    3.136510   5.865943   2.251909   7.065895   8.286837
    26  H    6.241368   6.108070   2.251066   6.733155   8.241311
    27  H    3.168693   3.583889   2.240697   7.227342   8.187513
    28  H    6.861735   2.242616   6.406342   6.847982   6.969390
    29  H    4.851553   2.247350   3.129452   6.843974   7.691651
    30  H    4.539972   2.267845   5.783493   7.762498   7.958751
    31  H    2.262111   6.699031   4.554748   7.614254   8.496918
    32  H    2.251969   5.804626   6.276159   7.103988   7.311903
    33  H    2.274816   2.943116   4.144674   7.017065   7.544480
                   11         12         13         14         15
    11  O    0.000000
    12  O    2.780796   0.000000
    13  O    7.564057   7.260055   0.000000
    14  O    7.986590   6.808151   2.743115   0.000000
    15  O    7.537894   6.396968   2.707581   2.618195   0.000000
    16  O    8.114508   8.353456   5.391706   5.442990   7.352282
    17  O    8.143320   7.540685   3.884235   2.870429   5.211882
    18  O    7.619056   7.811509   2.883751   3.953455   5.266736
    19  O    8.284167   6.986171   5.933388   3.828043   6.159409
    20  O    8.169648   6.168427   7.492554   5.134915   6.787033
    21  O    8.227354   6.311786   5.433885   2.812034   4.446440
    22  H    3.158987   0.963647   8.191158   7.664160   7.188535
    23  H    2.671724   3.501088   8.902549   8.718752   8.974141
    24  H    0.963446   3.175856   7.018847   7.721774   7.060836
    25  H    7.513626   7.428623   0.973991   3.057265   3.589994
    26  H    7.223302   6.230474   3.036537   3.511513   0.962719
    27  H    8.232011   7.245697   2.855734   0.975792   3.478490
    28  H    8.472181   6.235205   7.860578   5.421604   6.823394
    29  H    8.128127   6.402969   4.525959   1.869458   3.595648
    30  H    9.200937   7.821742   6.673131   4.439581   6.851155
    31  H    7.963758   8.442223   3.540252   4.896503   6.072934
    32  H    7.816144   8.151108   6.087524   6.033112   7.904563
    33  H    8.179080   7.345241   4.635243   3.104629   5.557018
                   16         17         18         19         20
    16  O    0.000000
    17  O    2.780826   0.000000
    18  O    2.678490   2.586162   0.000000
    19  O    4.559834   2.746232   5.173774   0.000000
    20  O    6.953311   5.194711   7.375751   2.666385   0.000000
    21  O    6.576170   4.082221   6.079254   2.765291   2.655020
    22  H    9.233626   8.433300   8.769367   7.699784   6.617094
    23  H    7.945897   8.270709   8.312542   7.774712   7.407208
    24  H    8.046044   8.023517   7.260948   8.441869   8.506118
    25  H    4.521409   3.370313   1.934557   5.695073   7.505972
    26  H    7.872472   5.941086   5.687484   6.934891   7.450177
    27  H    4.622342   1.979964   3.330344   3.397265   5.183147
    28  H    7.822274   5.905449   8.046042   3.488878   0.964036
    29  H    6.261689   3.642439   5.417543   3.074131   3.551083
    30  H    5.093292   3.343533   5.879943   0.965396   2.786475
    31  H    2.717183   3.387464   0.963767   5.975930   8.233774
    32  H    0.963559   3.404778   3.452348   4.675169   6.887549
    33  H    3.181302   0.983662   3.499423   1.782053   4.324215
                   21         22         23         24         25
    21  O    0.000000
    22  H    6.961031   0.000000
    23  H    8.305536   3.622167   0.000000
    24  H    8.264342   3.668317   3.584464   0.000000
    25  H    5.667351   8.383113   8.689815   7.006438   0.000000
    26  H    5.240596   6.992419   8.904883   6.665777   3.938208
    27  H    3.142859   8.127226   8.792526   7.996454   2.863591
    28  H    2.712983   6.598415   7.813874   8.803028   7.983169
    29  H    0.979622   7.130868   8.474855   8.053534   4.818829
    30  H    3.135266   8.491133   8.566591   9.385177   6.439863
    31  H    7.031392   9.395848   8.670607   7.576825   2.567286
    32  H    6.860845   8.987306   7.384856   7.845145   5.244071
    33  H    3.545633   8.187111   8.049263   8.166155   4.221896
                   26         27         28         29         30
    26  H    0.000000
    27  H    4.328364   0.000000
    28  H    7.462092   5.616760   0.000000
    29  H    4.445807   2.336828   3.672889   0.000000
    30  H    7.674084   3.980687   3.560065   3.552426   0.000000
    31  H    6.419854   4.264482   8.936328   6.379499   6.650595
    32  H    8.390781   5.266087   7.792470   6.658181   5.210527
    33  H    6.321294   2.334325   5.080958   3.328354   2.383563
                   31         32         33
    31  H    0.000000
    32  H    3.471830   0.000000
    33  H    4.284870   3.592589   0.000000
 Stoichiometry    H12O16Si4Zr
 Framework group  C1[X(H12O16Si4Zr)]
 Deg. of freedom    93
 Full point group                 C1      NOp   1
 Largest Abelian subgroup         C1      NOp   1
 Largest concise Abelian subgroup C1      NOp   1
                         Standard orientation:                         
 ---------------------------------------------------------------------
 Center     Atomic      Atomic             Coordinates (Angstroms)
 Number     Number       Type             X           Y           Z
 ---------------------------------------------------------------------
      1         40           0        0.644516   -0.215012   -0.166478
      2          8           0       -0.194007   -0.949044    1.428152
      3          8           0        0.206671    1.687948   -0.190361
      4          8           0       -0.408279   -1.013760   -1.638321
      5          8           0        2.556971   -0.639625   -0.301985
      6         14           0       -2.007680   -1.297170   -1.875669
      7         14           0       -0.932597    2.862339   -0.101354
      8         14           0       -1.672106   -1.045120    2.178366
      9         14           0        4.147910   -0.359899   -0.039881
     10          8           0        4.899805    0.453948   -1.262885
     11          8           0        4.966792   -1.793951    0.100335
     12          8           0        4.191816    0.585240    1.313467
     13          8           0       -2.363939   -2.491193    1.829261
     14          8           0       -2.598653    0.236503    1.658188
     15          8           0       -1.530735   -0.829458    3.797866
     16          8           0       -2.311762   -1.542100   -3.477997
     17          8           0       -2.893107   -0.090782   -1.178278
     18          8           0       -2.517142   -2.646061   -1.046250
     19          8           0       -1.969990    2.488313   -1.372991
     20          8           0       -0.362838    4.377965   -0.395294
     21          8           0       -1.688249    2.879176    1.350000
     22          1           0        5.022259    1.034998    1.505030
     23          1           0        5.344019   -0.090267   -1.922848
     24          1           0        4.549275   -2.492422    0.616131
     25          1           0       -2.448347   -2.717751    0.885754
     26          1           0       -0.919271   -1.404658    4.269125
     27          1           0       -3.017734    0.087018    0.789744
     28          1           0       -0.189538    4.922542    0.381087
     29          1           0       -2.038445    2.020039    1.664493
     30          1           0       -2.559259    3.203231   -1.644365
     31          1           0       -2.642848   -3.446404   -1.568262
     32          1           0       -1.610941   -1.297585   -4.092415
     33          1           0       -2.634022    0.834667   -1.388067
 ---------------------------------------------------------------------
 Rotational constants (GHZ):           0.2133706           0.1355938           0.1259243
 General basis read from cards:  (5D, 7F)
 ======================================================================================================
                                       Pseudopotential Parameters
 ======================================================================================================
  Center     Atomic      Valence      Angular      Power
  Number     Number     Electrons     Momentum     of R      Exponent        Coefficient   SO-Coeffient
 ======================================================================================================
    1         40           12
                                      G and up 
                                                     2        1.0000000        0.00000000    0.00000000
                                      S - G
                                                     2        8.6365280      150.24299400    0.00000000
                                                     2        3.7176390       18.78003600    0.00000000
                                      P - G
                                                     2        7.6267280       33.19279100    0.00000000
                                                     2        7.4532070       66.38903900    0.00000000
                                                     2        3.3583890        4.62072600    0.00000000
                                                     2        3.2297380        9.26027000    0.00000000
                                      D - G
                                                     2        5.9380860       13.99338300    0.00000000
                                                     2        5.8255440       20.99588200    0.00000000
                                                     2        2.2050190        2.28516600    0.00000000
                                                     2        2.2062920        3.44126000    0.00000000
                                      F - G
                                                     2        4.8002150       -5.23932000    0.00000000
                                                     2        4.7989920       -6.98742400    0.00000000
    2          8
                                   No pseudopotential on this center.
    3          8
                                   No pseudopotential on this center.
    4          8
                                   No pseudopotential on this center.
    5          8
                                   No pseudopotential on this center.
    6         14
                                   No pseudopotential on this center.
    7         14
                                   No pseudopotential on this center.
    8         14
                                   No pseudopotential on this center.
    9         14
                                   No pseudopotential on this center.
   10          8
                                   No pseudopotential on this center.
   11          8
                                   No pseudopotential on this center.
   12          8
                                   No pseudopotential on this center.
   13          8
                                   No pseudopotential on this center.
   14          8
                                   No pseudopotential on this center.
   15          8
                                   No pseudopotential on this center.
   16          8
                                   No pseudopotential on this center.
   17          8
                                   No pseudopotential on this center.
   18          8
                                   No pseudopotential on this center.
   19          8
                                   No pseudopotential on this center.
   20          8
                                   No pseudopotential on this center.
   21          8
                                   No pseudopotential on this center.
   22          1
                                   No pseudopotential on this center.
   23          1
                                   No pseudopotential on this center.
   24          1
                                   No pseudopotential on this center.
   25          1
                                   No pseudopotential on this center.
   26          1
                                   No pseudopotential on this center.
   27          1
                                   No pseudopotential on this center.
   28          1
                                   No pseudopotential on this center.
   29          1
                                   No pseudopotential on this center.
   30          1
                                   No pseudopotential on this center.
   31          1
                                   No pseudopotential on this center.
   32          1
                                   No pseudopotential on this center.
   33          1
                                   No pseudopotential on this center.
 ======================================================================================================
 There are   570 symmetry adapted cartesian basis functions of A   symmetry.
 There are   524 symmetry adapted basis functions of A   symmetry.
   524 basis functions,  1074 primitive gaussians,   570 cartesian basis functions
   104 alpha electrons      104 beta electrons
       nuclear repulsion energy      2840.4975103547 Hartrees.
 NAtoms=   33 NActive=   33 NUniq=   33 SFac= 1.00D+00 NAtFMM=   60 NAOKFM=F Big=F
 Integral buffers will be    131072 words long.
 Raffenetti 2 integral format.
 Two-electron integral symmetry is turned on.
 Nuclear repulsion after empirical dispersion term =     2840.4565721979 Hartrees.
 One-electron integrals computed using PRISM.
 PrsmSu:  requested number of processors reduced to:   4 ShMem   1 Linda.
   1 Symmetry operations used in ECPInt.
 ECPInt:  NShTT=   13203 NPrTT=   78401 LenC2=   11539 LenP2D=   44771.
 LDataN:  DoStor=T MaxTD1= 8 Len=  415
 Number of processors reduced to  13 by ecpmxn.
 NBasis=   524 RedAO= T EigKep=  3.12D-05  NBF=   524
 NBsUse=   524 1.00D-06 EigRej= -1.00D+00 NBFU=   524
 Defaulting to unpruned grid for atomic number  40.
 ExpMin= 1.01D-02 ExpMax= 1.61D+04 ExpMxC= 2.43D+03 IAcc=3 IRadAn=         5 AccDes= 0.00D+00
 Harris functional with IExCor=  402 and IRadAn=       5 diagonalized for initial guess.
 HarFok:  IExCor=  402 AccDes= 0.00D+00 IRadAn=         5 IDoV= 1 UseB2=F ITyADJ=14
 ICtDFT=  3500011 ScaDFX=  1.000000  1.000000  1.000000  1.000000
 Defaulting to unpruned grid for atomic number  40.
 FoFCou: FMM=F IPFlag=           0 FMFlag=      100000 FMFlg1=           0
         NFxFlg=           0 DoJE=T BraDBF=F KetDBF=T FulRan=T
         wScrn=  0.000000 ICntrl=       500 IOpCl=  0 I1Cent=   200000004 NGrid=           0
         NMat0=    1 NMatS0=      1 NMatT0=    0 NMatD0=    1 NMtDS0=    0 NMtDT0=    0
 Petite list used in FoFCou.
 Requested convergence on RMS density matrix=1.00D-08 within 128 cycles.
 Requested convergence on MAX density matrix=1.00D-06.
 Requested convergence on             energy=1.00D-06.
 No special actions if energy rises.
 Defaulting to unpruned grid for atomic number  40.
 Defaulting to unpruned grid for atomic number  40.
 Defaulting to unpruned grid for atomic number  40.
 Defaulting to unpruned grid for atomic number  40.
 Defaulting to unpruned grid for atomic number  40.
 Defaulting to unpruned grid for atomic number  40.
 Defaulting to unpruned grid for atomic number  40.
 Defaulting to unpruned grid for atomic number  40.
 Defaulting to unpruned grid for atomic number  40.
 Defaulting to unpruned grid for atomic number  40.
 Defaulting to unpruned grid for atomic number  40.
 Defaulting to unpruned grid for atomic number  40.
 Defaulting to unpruned grid for atomic number  40.
 Defaulting to unpruned grid for atomic number  40.
 Defaulting to unpruned grid for atomic number  40.
 Defaulting to unpruned grid for atomic number  40.
 SCF Done:  E(RB3LYP) =  -2416.94585889     A.U. after   14 cycles
            NFock= 14  Conv=0.34D-08     -V/T= 2.0185

 **********************************************************************

            Population analysis using the SCF Density.

 **********************************************************************

 Orbital symmetries:
       Occupied  (A) (A) (A) (A) (A) (A) (A) (A) (A) (A) (A) (A)
                 (A) (A) (A) (A) (A) (A) (A) (A) (A) (A) (A) (A)
                 (A) (A) (A) (A) (A) (A) (A) (A) (A) (A) (A) (A)
                 (A) (A) (A) (A) (A) (A) (A) (A) (A) (A) (A) (A)
                 (A) (A) (A) (A) (A) (A) (A) (A) (A) (A) (A) (A)
                 (A) (A) (A) (A) (A) (A) (A) (A) (A) (A) (A) (A)
                 (A) (A) (A) (A) (A) (A) (A) (A) (A) (A) (A) (A)
                 (A) (A) (A) (A) (A) (A) (A) (A) (A) (A) (A) (A)
                 (A) (A) (A) (A) (A) (A) (A) (A)
       Virtual   (A) (A) (A) (A) (A) (A) (A) (A) (A) (A) (A) (A)
                 (A) (A) (A) (A) (A) (A) (A) (A) (A) (A) (A) (A)
                 (A) (A) (A) (A) (A) (A) (A) (A) (A) (A) (A) (A)
                 (A) (A) (A) (A) (A) (A) (A) (A) (A) (A) (A) (A)
                 (A) (A) (A) (A) (A) (A) (A) (A) (A) (A) (A) (A)
                 (A) (A) (A) (A) (A) (A) (A) (A) (A) (A) (A) (A)
                 (A) (A) (A) (A) (A) (A) (A) (A) (A) (A) (A) (A)
                 (A) (A) (A) (A) (A) (A) (A) (A) (A) (A) (A) (A)
                 (A) (A) (A) (A) (A) (A) (A) (A) (A) (A) (A) (A)
                 (A) (A) (A) (A) (A) (A) (A) (A) (A) (A) (A) (A)
                 (A) (A) (A) (A) (A) (A) (A) (A) (A) (A) (A) (A)
                 (A) (A) (A) (A) (A) (A) (A) (A) (A) (A) (A) (A)
                 (A) (A) (A) (A) (A) (A) (A) (A) (A) (A) (A) (A)
                 (A) (A) (A) (A) (A) (A) (A) (A) (A) (A) (A) (A)
                 (A) (A) (A) (A) (A) (A) (A) (A) (A) (A) (A) (A)
                 (A) (A) (A) (A) (A) (A) (A) (A) (A) (A) (A) (A)
                 (A) (A) (A) (A) (A) (A) (A) (A) (A) (A) (A) (A)
                 (A) (A) (A) (A) (A) (A) (A) (A) (A) (A) (A) (A)
                 (A) (A) (A) (A) (A) (A) (A) (A) (A) (A) (A) (A)
                 (A) (A) (A) (A) (A) (A) (A) (A) (A) (A) (A) (A)
                 (A) (A) (A) (A) (A) (A) (A) (A) (A) (A) (A) (A)
                 (A) (A) (A) (A) (A) (A) (A) (A) (A) (A) (A) (A)
                 (A) (A) (A) (A) (A) (A) (A) (A) (A) (A) (A) (A)
                 (A) (A) (A) (A) (A) (A) (A) (A) (A) (A) (A) (A)
                 (A) (A) (A) (A) (A) (A) (A) (A) (A) (A) (A) (A)
                 (A) (A) (A) (A) (A) (A) (A) (A) (A) (A) (A) (A)
                 (A) (A) (A) (A) (A) (A) (A) (A) (A) (A) (A) (A)
                 (A) (A) (A) (A) (A) (A) (A) (A) (A) (A) (A) (A)
                 (A) (A) (A) (A) (A) (A) (A) (A) (A) (A) (A) (A)
                 (A) (A) (A) (A) (A) (A) (A) (A) (A) (A) (A) (A)
                 (A) (A) (A) (A) (A) (A) (A) (A) (A) (A) (A) (A)
                 (A) (A) (A) (A) (A) (A) (A) (A) (A) (A) (A) (A)
                 (A) (A) (A) (A) (A) (A) (A) (A) (A) (A) (A) (A)
                 (A) (A) (A) (A) (A) (A) (A) (A) (A) (A) (A) (A)
                 (A) (A) (A) (A) (A) (A) (A) (A) (A) (A) (A) (A)
 The electronic state is 1-A.
 Alpha  occ. eigenvalues --  -66.22757 -66.21707 -66.21659 -66.20983 -19.18497
 Alpha  occ. eigenvalues --  -19.18308 -19.17772 -19.16929 -19.16769 -19.16673
 Alpha  occ. eigenvalues --  -19.16612 -19.16512 -19.16141 -19.15975 -19.15950
 Alpha  occ. eigenvalues --  -19.15500 -19.15455 -19.15245 -19.14827 -19.14581
 Alpha  occ. eigenvalues --   -5.36816  -5.35788  -5.35743  -5.35041  -3.72802
 Alpha  occ. eigenvalues --   -3.72777  -3.72722  -3.71778  -3.71733  -3.71708
 Alpha  occ. eigenvalues --   -3.71702  -3.71698  -3.71666  -3.71022  -3.71003
 Alpha  occ. eigenvalues --   -3.70950  -2.13320  -1.29562  -1.29492  -1.29328
 Alpha  occ. eigenvalues --   -1.05613  -1.04724  -1.04368  -1.03475  -1.02508
 Alpha  occ. eigenvalues --   -1.02109  -1.01414  -1.01184  -1.00957  -1.00657
 Alpha  occ. eigenvalues --   -0.99772  -0.99301  -0.97376  -0.96257  -0.95753
 Alpha  occ. eigenvalues --   -0.95264  -0.60879  -0.59196  -0.59074  -0.58904
 Alpha  occ. eigenvalues --   -0.55532  -0.54482  -0.54085  -0.53232  -0.53056
 Alpha  occ. eigenvalues --   -0.52545  -0.51823  -0.50144  -0.48626  -0.47817
 Alpha  occ. eigenvalues --   -0.47463  -0.47032  -0.43365  -0.42819  -0.41799
 Alpha  occ. eigenvalues --   -0.41481  -0.41239  -0.40531  -0.39812  -0.39431
 Alpha  occ. eigenvalues --   -0.38942  -0.38856  -0.38630  -0.38176  -0.38006
 Alpha  occ. eigenvalues --   -0.37596  -0.37425  -0.37058  -0.36491  -0.36388
 Alpha  occ. eigenvalues --   -0.36181  -0.35822  -0.35423  -0.35274  -0.34924
 Alpha  occ. eigenvalues --   -0.34439  -0.34049  -0.33759  -0.33577  -0.33053
 Alpha  occ. eigenvalues --   -0.32676  -0.32244  -0.31970  -0.31270
 Alpha virt. eigenvalues --   -0.04384  -0.03133  -0.03006  -0.02914  -0.02052
 Alpha virt. eigenvalues --   -0.01332  -0.00533  -0.00181  -0.00055   0.00228
 Alpha virt. eigenvalues --    0.00715   0.00888   0.00976   0.01886   0.02198
 Alpha virt. eigenvalues --    0.02931   0.03298   0.03847   0.03891   0.04139
 Alpha virt. eigenvalues --    0.04377   0.04773   0.05845   0.05985   0.06126
 Alpha virt. eigenvalues --    0.06395   0.06983   0.07578   0.07612   0.08337
 Alpha virt. eigenvalues --    0.08598   0.08804   0.09136   0.09502   0.09827
 Alpha virt. eigenvalues --    0.10369   0.10649   0.10930   0.11108   0.11590
 Alpha virt. eigenvalues --    0.11854   0.12546   0.13135   0.13407   0.13811
 Alpha virt. eigenvalues --    0.14021   0.14131   0.14887   0.14960   0.15263
 Alpha virt. eigenvalues --    0.15522   0.15697   0.16203   0.16580   0.16878
 Alpha virt. eigenvalues --    0.17129   0.17389   0.17639   0.17745   0.18507
 Alpha virt. eigenvalues --    0.18655   0.18827   0.19070   0.19383   0.19661
 Alpha virt. eigenvalues --    0.19909   0.20326   0.20908   0.21224   0.21354
 Alpha virt. eigenvalues --    0.21504   0.21864   0.22292   0.22445   0.23276
 Alpha virt. eigenvalues --    0.23615   0.23947   0.24061   0.24424   0.24659
 Alpha virt. eigenvalues --    0.24929   0.25634   0.25708   0.25995   0.26113
 Alpha virt. eigenvalues --    0.26526   0.26723   0.26799   0.27243   0.27650
 Alpha virt. eigenvalues --    0.27797   0.28418   0.28515   0.28711   0.28843
 Alpha virt. eigenvalues --    0.29580   0.29992   0.30120   0.30573   0.30677
 Alpha virt. eigenvalues --    0.30766   0.31144   0.31482   0.31736   0.32230
 Alpha virt. eigenvalues --    0.32473   0.32842   0.33232   0.33543   0.34140
 Alpha virt. eigenvalues --    0.34295   0.35007   0.35363   0.35902   0.36482
 Alpha virt. eigenvalues --    0.36693   0.37654   0.38551   0.38817   0.39237
 Alpha virt. eigenvalues --    0.39273   0.40203   0.40292   0.40971   0.41288
 Alpha virt. eigenvalues --    0.41638   0.42132   0.43124   0.43912   0.44050
 Alpha virt. eigenvalues --    0.45208   0.45875   0.46341   0.46664   0.46990
 Alpha virt. eigenvalues --    0.47251   0.48517   0.48588   0.49023   0.49700
 Alpha virt. eigenvalues --    0.50031   0.50515   0.51759   0.52166   0.53257
 Alpha virt. eigenvalues --    0.54012   0.54230   0.55570   0.56681   0.57038
 Alpha virt. eigenvalues --    0.57657   0.58403   0.59076   0.60115   0.60338
 Alpha virt. eigenvalues --    0.60693   0.61497   0.61944   0.64893   0.66085
 Alpha virt. eigenvalues --    0.66625   0.67070   0.68199   0.69031   0.69485
 Alpha virt. eigenvalues --    0.70400   0.70885   0.72936   0.73788   0.74854
 Alpha virt. eigenvalues --    0.75388   0.77150   0.78574   0.78708   0.80089
 Alpha virt. eigenvalues --    0.80951   0.81647   0.83324   0.83576   0.85536
 Alpha virt. eigenvalues --    0.86543   0.87871   0.90276   0.90629   0.91062
 Alpha virt. eigenvalues --    0.93614   0.95825   0.96218   0.96794   0.97500
 Alpha virt. eigenvalues --    0.97976   0.98514   0.99007   0.99351   1.00165
 Alpha virt. eigenvalues --    1.00522   1.01135   1.01820   1.03393   1.03547
 Alpha virt. eigenvalues --    1.04495   1.04652   1.05506   1.06876   1.08089
 Alpha virt. eigenvalues --    1.09672   1.12108   1.15259   1.16249   1.16772
 Alpha virt. eigenvalues --    1.18769   1.19186   1.20053   1.20399   1.20863
 Alpha virt. eigenvalues --    1.21686   1.22152   1.22239   1.22491   1.23687
 Alpha virt. eigenvalues --    1.24058   1.24166   1.24297   1.25123   1.25490
 Alpha virt. eigenvalues --    1.25942   1.26610   1.27688   1.27881   1.28718
 Alpha virt. eigenvalues --    1.28942   1.29459   1.30430   1.30616   1.31628
 Alpha virt. eigenvalues --    1.32035   1.32667   1.33746   1.33849   1.34910
 Alpha virt. eigenvalues --    1.35525   1.36386   1.36718   1.37186   1.38512
 Alpha virt. eigenvalues --    1.38989   1.39779   1.40175   1.40639   1.41488
 Alpha virt. eigenvalues --    1.41958   1.42719   1.43899   1.44657   1.45470
 Alpha virt. eigenvalues --    1.47306   1.49512   1.51047   1.51997   1.52713
 Alpha virt. eigenvalues --    1.56639   1.57105   1.58614   1.59448   1.59492
 Alpha virt. eigenvalues --    1.60189   1.60936   1.61047   1.62176   1.62765
 Alpha virt. eigenvalues --    1.63454   1.64418   1.65052   1.66102   1.66264
 Alpha virt. eigenvalues --    1.67459   1.67646   1.68805   1.69732   1.70171
 Alpha virt. eigenvalues --    1.70786   1.71150   1.71471   1.72868   1.73389
 Alpha virt. eigenvalues --    1.74373   1.75255   1.75710   1.76156   1.76438
 Alpha virt. eigenvalues --    1.76824   1.77957   1.78723   1.79662   1.79896
 Alpha virt. eigenvalues --    1.80320   1.81143   1.82261   1.82567   1.82715
 Alpha virt. eigenvalues --    1.83561   1.84424   1.84500   1.85850   1.86093
 Alpha virt. eigenvalues --    1.87212   1.88090   1.88745   1.89949   1.90202
 Alpha virt. eigenvalues --    1.90923   1.91788   1.92578   1.92872   1.93565
 Alpha virt. eigenvalues --    1.94088   1.95187   1.95868   1.97265   1.97977
 Alpha virt. eigenvalues --    1.98714   2.00117   2.00563   2.03010   2.05394
 Alpha virt. eigenvalues --    2.06318   2.07998   2.09109   2.10164   2.10786
 Alpha virt. eigenvalues --    2.11646   2.13454   2.14181   2.15674   2.16106
 Alpha virt. eigenvalues --    2.16497   2.19751   2.19923   2.21814   2.25459
 Alpha virt. eigenvalues --    2.31946   2.32908   2.36353   2.39501   2.40161
 Alpha virt. eigenvalues --    2.40799   2.41451   2.42055   2.43030   2.43408
 Alpha virt. eigenvalues --    2.44057   2.45375   2.46134   2.47927   2.49074
 Alpha virt. eigenvalues --    2.49359   2.50437   2.50848   2.53022   2.53472
 Alpha virt. eigenvalues --    2.54663   2.58012   2.59748   2.60068   2.60838
 Alpha virt. eigenvalues --    2.61108   2.61605   2.61816   2.62285   2.62846
 Alpha virt. eigenvalues --    2.63272   2.63583   2.64994   2.65339   2.65682
 Alpha virt. eigenvalues --    2.66405   2.66654   2.67302   2.67707   2.67966
 Alpha virt. eigenvalues --    2.69438   2.71085   2.71306   2.71963   2.73297
 Alpha virt. eigenvalues --    2.74159   2.75377   2.76156   2.76754   2.78080
 Alpha virt. eigenvalues --    2.79579   2.80370   2.81163   2.83094   2.83498
 Alpha virt. eigenvalues --    2.83826   2.85035   2.86570   2.87714   2.88184
 Alpha virt. eigenvalues --    3.16026   3.22458   3.36997   3.40602   3.46410
 Alpha virt. eigenvalues --    3.47713   3.48733   3.48883   3.48914   3.51718
 Alpha virt. eigenvalues --    3.52768   3.53852   3.59998   3.61218   3.62166
 Alpha virt. eigenvalues --    3.65903   4.39430   4.72542   7.71512  31.22274
          Condensed to atoms (all electrons):
               1          2          3          4          5          6
     1  Zr  15.266582  -0.055803  -0.001815  -0.150764  -0.170119  -0.738869
     2  O   -0.055803   8.850444   0.013679  -0.044437  -0.051149   0.066786
     3  O   -0.001815   0.013679   8.835263   0.015465  -0.049023  -0.004074
     4  O   -0.150764  -0.044437   0.015465   8.828393  -0.064763  -0.720410
     5  O   -0.170119  -0.051149  -0.049023  -0.064763   9.306780  -0.004790
     6  Si  -0.738869   0.066786  -0.004074  -0.720410  -0.004790  14.201951
     7  Si  -0.600735  -0.019780  -0.883586  -0.011050  -0.030688   0.100743
     8  Si  -0.679315  -0.746320  -0.025468   0.072642  -0.010789   0.025767
     9  Si  -0.336960  -0.025772  -0.001961  -0.013492  -1.076072   0.048817
    10  O   -0.035472   0.000633  -0.001927  -0.000408   0.115964  -0.001358
    11  O   -0.116502   0.002063   0.003300   0.002196   0.331030   0.000090
    12  O    0.056540   0.001408   0.006312   0.001530   0.114827  -0.003209
    13  O    0.002212   0.261109   0.001437  -0.015016  -0.000620   0.025213
    14  O   -0.051212   0.247055  -0.018035  -0.003015   0.000267   0.011928
    15  O   -0.059410   0.254267   0.000330   0.002522   0.000794  -0.004760
    16  O   -0.126279   0.005501  -0.000367   0.348675   0.003274  -0.447991
    17  O   -0.103499  -0.038953   0.009843   0.211145   0.000369  -0.437269
    18  O   -0.034067  -0.019475   0.003575   0.211790  -0.001255  -0.482991
    19  O    0.002208   0.008087   0.277532   0.013738   0.002375  -0.009586
    20  O   -0.136492  -0.000786   0.150183  -0.000569   0.001115   0.010175
    21  O    0.036124   0.011013   0.157961   0.003994   0.000510  -0.015729
    22  H   -0.013493   0.000001   0.000066  -0.000003   0.005828   0.000136
    23  H   -0.007032  -0.000009  -0.000005  -0.000032  -0.024117   0.000138
    24  H   -0.006665  -0.000051   0.000000   0.000009  -0.002564   0.000133
    25  H    0.020813  -0.021765  -0.000127  -0.001089  -0.000014   0.001075
    26  H   -0.007749  -0.012510   0.000015  -0.000012  -0.000020   0.000193
    27  H    0.009248  -0.020718   0.000740  -0.001596   0.000038   0.009416
    28  H    0.004379  -0.000012  -0.017796  -0.000013  -0.000009  -0.000287
    29  H   -0.000459  -0.005132  -0.019682  -0.000195  -0.000057   0.000654
    30  H   -0.000362  -0.000009   0.000007  -0.000499  -0.000008  -0.000454
    31  H    0.003704   0.000286  -0.000022  -0.018240  -0.000018   0.061107
    32  H    0.002644  -0.000029   0.000035   0.011328   0.000009   0.019022
    33  H   -0.015196   0.000939  -0.010473  -0.009569  -0.000078   0.052863
               7          8          9         10         11         12
     1  Zr  -0.600735  -0.679315  -0.336960  -0.035472  -0.116502   0.056540
     2  O   -0.019780  -0.746320  -0.025772   0.000633   0.002063   0.001408
     3  O   -0.883586  -0.025468  -0.001961  -0.001927   0.003300   0.006312
     4  O   -0.011050   0.072642  -0.013492  -0.000408   0.002196   0.001530
     5  O   -0.030688  -0.010789  -1.076072   0.115964   0.331030   0.114827
     6  Si   0.100743   0.025767   0.048817  -0.001358   0.000090  -0.003209
     7  Si  13.776028   0.174128   0.023391   0.001618  -0.000723   0.002434
     8  Si   0.174128  13.736838   0.040659  -0.001513   0.002143  -0.002774
     9  Si   0.023391   0.040659  13.910197  -0.014000  -0.185903  -0.187888
    10  O    0.001618  -0.001513  -0.014000   8.517236  -0.004142   0.044228
    11  O   -0.000723   0.002143  -0.185903  -0.004142   8.570915  -0.053522
    12  O    0.002434  -0.002774  -0.187888   0.044228  -0.053522   8.602394
    13  O    0.002744  -0.148640  -0.000813  -0.000001   0.000017  -0.000027
    14  O    0.019686  -0.486002  -0.000435  -0.000002   0.000006   0.000023
    15  O   -0.002862  -0.379630  -0.000769  -0.000000  -0.000018   0.000038
    16  O    0.003729  -0.010217  -0.001315   0.000006  -0.000009  -0.000001
    17  O    0.000157   0.101521   0.003469   0.000006   0.000005  -0.000011
    18  O   -0.001863   0.082440   0.003713   0.000005   0.000006   0.000004
    19  O   -0.436896  -0.018449   0.000826   0.000007   0.000001  -0.000086
    20  O   -0.093335   0.009362   0.003445   0.000047  -0.000002  -0.000065
    21  O    0.015583  -0.048390  -0.001899  -0.000003   0.000003  -0.000007
    22  H   -0.000001   0.000175   0.050357  -0.005402  -0.004886   0.221041
    23  H   -0.000011   0.000053   0.076093   0.231430  -0.005016   0.005451
    24  H    0.000041   0.000187   0.037444   0.007467   0.238486  -0.006808
    25  H   -0.000314   0.054111  -0.000206  -0.000000  -0.000000   0.000000
    26  H    0.000557   0.063608  -0.000321   0.000000   0.000000  -0.000004
    27  H    0.000421   0.075393  -0.000007   0.000000  -0.000000   0.000000
    28  H    0.056281   0.000078  -0.000165  -0.000000  -0.000000  -0.000003
    29  H    0.048422   0.023906  -0.000089   0.000000  -0.000000  -0.000001
    30  H    0.042653   0.000163   0.000007  -0.000000   0.000000   0.000000
    31  H    0.000095  -0.002966  -0.000060   0.000000  -0.000000   0.000000
    32  H   -0.000621   0.000139  -0.000011  -0.000000   0.000000  -0.000000
    33  H    0.021598  -0.000014   0.000076  -0.000000   0.000000   0.000000
              13         14         15         16         17         18
     1  Zr   0.002212  -0.051212  -0.059410  -0.126279  -0.103499  -0.034067
     2  O    0.261109   0.247055   0.254267   0.005501  -0.038953  -0.019475
     3  O    0.001437  -0.018035   0.000330  -0.000367   0.009843   0.003575
     4  O   -0.015016  -0.003015   0.002522   0.348675   0.211145   0.211790
     5  O   -0.000620   0.000267   0.000794   0.003274   0.000369  -0.001255
     6  Si   0.025213   0.011928  -0.004760  -0.447991  -0.437269  -0.482991
     7  Si   0.002744   0.019686  -0.002862   0.003729   0.000157  -0.001863
     8  Si  -0.148640  -0.486002  -0.379630  -0.010217   0.101521   0.082440
     9  Si  -0.000813  -0.000435  -0.000769  -0.001315   0.003469   0.003713
    10  O   -0.000001  -0.000002  -0.000000   0.000006   0.000006   0.000005
    11  O    0.000017   0.000006  -0.000018  -0.000009   0.000005   0.000006
    12  O   -0.000027   0.000023   0.000038  -0.000001  -0.000011   0.000004
    13  O    8.641158   0.024191  -0.116274   0.003924  -0.028587  -0.042306
    14  O    0.024191   8.810565   0.155045   0.002540  -0.028069  -0.022790
    15  O   -0.116274   0.155045   8.780881  -0.000164   0.003880   0.001154
    16  O    0.003924   0.002540  -0.000164   8.912461  -0.096315  -0.102257
    17  O   -0.028587  -0.028069   0.003880  -0.096315   8.943308   0.224355
    18  O   -0.042306  -0.022790   0.001154  -0.102257   0.224355   9.036597
    19  O    0.000234   0.001635   0.000333  -0.000928  -0.030661   0.000150
    20  O    0.000009  -0.001111   0.000003   0.000045  -0.000833   0.000016
    21  O   -0.000455   0.025816   0.000778  -0.000174  -0.005895   0.000398
    22  H   -0.000000  -0.000000   0.000001  -0.000000   0.000000  -0.000000
    23  H    0.000000   0.000000   0.000000  -0.000000   0.000000   0.000000
    24  H   -0.000000   0.000000   0.000001   0.000000  -0.000000  -0.000000
    25  H    0.217002  -0.009269   0.007485  -0.000259   0.000558   0.015202
    26  H   -0.006677   0.001122   0.225795   0.000000  -0.000022   0.000009
    27  H   -0.004534   0.206624   0.000052   0.000308   0.017746  -0.000822
    28  H    0.000000  -0.000003  -0.000001  -0.000000   0.000003   0.000000
    29  H    0.000779   0.014049  -0.001360  -0.000004  -0.000707  -0.000002
    30  H    0.000001   0.000003   0.000001   0.000103  -0.000424  -0.000009
    31  H    0.002326   0.000075  -0.000020   0.005085  -0.001221   0.215935
    32  H   -0.000007  -0.000006   0.000000   0.236211  -0.003416   0.003903
    33  H    0.000251   0.001997  -0.000056   0.000209   0.229795   0.002240
              19         20         21         22         23         24
     1  Zr   0.002208  -0.136492   0.036124  -0.013493  -0.007032  -0.006665
     2  O    0.008087  -0.000786   0.011013   0.000001  -0.000009  -0.000051
     3  O    0.277532   0.150183   0.157961   0.000066  -0.000005   0.000000
     4  O    0.013738  -0.000569   0.003994  -0.000003  -0.000032   0.000009
     5  O    0.002375   0.001115   0.000510   0.005828  -0.024117  -0.002564
     6  Si  -0.009586   0.010175  -0.015729   0.000136   0.000138   0.000133
     7  Si  -0.436896  -0.093335   0.015583  -0.000001  -0.000011   0.000041
     8  Si  -0.018449   0.009362  -0.048390   0.000175   0.000053   0.000187
     9  Si   0.000826   0.003445  -0.001899   0.050357   0.076093   0.037444
    10  O    0.000007   0.000047  -0.000003  -0.005402   0.231430   0.007467
    11  O    0.000001  -0.000002   0.000003  -0.004886  -0.005016   0.238486
    12  O   -0.000086  -0.000065  -0.000007   0.221041   0.005451  -0.006808
    13  O    0.000234   0.000009  -0.000455  -0.000000   0.000000  -0.000000
    14  O    0.001635  -0.001111   0.025816  -0.000000   0.000000   0.000000
    15  O    0.000333   0.000003   0.000778   0.000001   0.000000   0.000001
    16  O   -0.000928   0.000045  -0.000174  -0.000000  -0.000000   0.000000
    17  O   -0.030661  -0.000833  -0.005895   0.000000   0.000000  -0.000000
    18  O    0.000150   0.000016   0.000398  -0.000000   0.000000  -0.000000
    19  O    8.887761   0.033011   0.026176  -0.000000   0.000000  -0.000000
    20  O    0.033011   8.652770  -0.055881   0.000000   0.000000  -0.000000
    21  O    0.026176  -0.055881   8.487711  -0.000001   0.000000   0.000000
    22  H   -0.000000   0.000000  -0.000001   0.357154   0.000054   0.000110
    23  H    0.000000   0.000000   0.000000   0.000054   0.350699   0.000022
    24  H   -0.000000  -0.000000   0.000000   0.000110   0.000022   0.368313
    25  H   -0.000034   0.000000  -0.000012   0.000000   0.000000   0.000000
    26  H    0.000000  -0.000000   0.000044  -0.000000  -0.000000  -0.000000
    27  H   -0.000229   0.000224  -0.004740  -0.000000  -0.000000   0.000000
    28  H    0.004363   0.228945  -0.001553  -0.000000   0.000000  -0.000000
    29  H   -0.008628   0.008091   0.208412   0.000000  -0.000000  -0.000000
    30  H    0.223028  -0.001513  -0.007354   0.000000  -0.000000  -0.000000
    31  H    0.000002  -0.000000  -0.000000  -0.000000   0.000000   0.000000
    32  H    0.000091   0.000000   0.000001  -0.000000  -0.000000  -0.000000
    33  H    0.013263  -0.000058   0.001379  -0.000000  -0.000000  -0.000000
              25         26         27         28         29         30
     1  Zr   0.020813  -0.007749   0.009248   0.004379  -0.000459  -0.000362
     2  O   -0.021765  -0.012510  -0.020718  -0.000012  -0.005132  -0.000009
     3  O   -0.000127   0.000015   0.000740  -0.017796  -0.019682   0.000007
     4  O   -0.001089  -0.000012  -0.001596  -0.000013  -0.000195  -0.000499
     5  O   -0.000014  -0.000020   0.000038  -0.000009  -0.000057  -0.000008
     6  Si   0.001075   0.000193   0.009416  -0.000287   0.000654  -0.000454
     7  Si  -0.000314   0.000557   0.000421   0.056281   0.048422   0.042653
     8  Si   0.054111   0.063608   0.075393   0.000078   0.023906   0.000163
     9  Si  -0.000206  -0.000321  -0.000007  -0.000165  -0.000089   0.000007
    10  O   -0.000000   0.000000   0.000000  -0.000000   0.000000  -0.000000
    11  O   -0.000000   0.000000  -0.000000  -0.000000  -0.000000   0.000000
    12  O    0.000000  -0.000004   0.000000  -0.000003  -0.000001   0.000000
    13  O    0.217002  -0.006677  -0.004534   0.000000   0.000779   0.000001
    14  O   -0.009269   0.001122   0.206624  -0.000003   0.014049   0.000003
    15  O    0.007485   0.225795   0.000052  -0.000001  -0.001360   0.000001
    16  O   -0.000259   0.000000   0.000308  -0.000000  -0.000004   0.000103
    17  O    0.000558  -0.000022   0.017746   0.000003  -0.000707  -0.000424
    18  O    0.015202   0.000009  -0.000822   0.000000  -0.000002  -0.000009
    19  O   -0.000034   0.000000  -0.000229   0.004363  -0.008628   0.223028
    20  O    0.000000  -0.000000   0.000224   0.228945   0.008091  -0.001513
    21  O   -0.000012   0.000044  -0.004740  -0.001553   0.208412  -0.007354
    22  H    0.000000  -0.000000  -0.000000  -0.000000   0.000000   0.000000
    23  H    0.000000  -0.000000  -0.000000   0.000000  -0.000000  -0.000000
    24  H    0.000000  -0.000000   0.000000  -0.000000  -0.000000  -0.000000
    25  H    0.301511  -0.000031   0.000026   0.000000   0.000001   0.000000
    26  H   -0.000031   0.369336  -0.000036   0.000000   0.000018  -0.000000
    27  H    0.000026  -0.000036   0.284862  -0.000000  -0.000996   0.000006
    28  H    0.000000   0.000000  -0.000000   0.349332  -0.000017  -0.000011
    29  H    0.000001   0.000018  -0.000996  -0.000017   0.285988   0.000167
    30  H    0.000000  -0.000000   0.000006  -0.000011   0.000167   0.334654
    31  H   -0.000184   0.000000   0.000014   0.000000   0.000000  -0.000000
    32  H   -0.000001  -0.000000  -0.000000   0.000000  -0.000000  -0.000000
    33  H    0.000005   0.000000  -0.002449  -0.000002   0.000128  -0.001048
              31         32         33
     1  Zr   0.003704   0.002644  -0.015196
     2  O    0.000286  -0.000029   0.000939
     3  O   -0.000022   0.000035  -0.010473
     4  O   -0.018240   0.011328  -0.009569
     5  O   -0.000018   0.000009  -0.000078
     6  Si   0.061107   0.019022   0.052863
     7  Si   0.000095  -0.000621   0.021598
     8  Si  -0.002966   0.000139  -0.000014
     9  Si  -0.000060  -0.000011   0.000076
    10  O    0.000000  -0.000000  -0.000000
    11  O   -0.000000   0.000000   0.000000
    12  O    0.000000  -0.000000   0.000000
    13  O    0.002326  -0.000007   0.000251
    14  O    0.000075  -0.000006   0.001997
    15  O   -0.000020   0.000000  -0.000056
    16  O    0.005085   0.236211   0.000209
    17  O   -0.001221  -0.003416   0.229795
    18  O    0.215935   0.003903   0.002240
    19  O    0.000002   0.000091   0.013263
    20  O   -0.000000   0.000000  -0.000058
    21  O   -0.000000   0.000001   0.001379
    22  H   -0.000000  -0.000000  -0.000000
    23  H    0.000000  -0.000000  -0.000000
    24  H    0.000000  -0.000000  -0.000000
    25  H   -0.000184  -0.000001   0.000005
    26  H    0.000000  -0.000000   0.000000
    27  H    0.000014  -0.000000  -0.002449
    28  H    0.000000   0.000000  -0.000002
    29  H    0.000000  -0.000000   0.000128
    30  H   -0.000000  -0.000000  -0.001048
    31  H    0.327456  -0.000010  -0.000036
    32  H   -0.000010   0.349028   0.000147
    33  H   -0.000036   0.000147   0.270982
 Mulliken charges:
               1
     1  Zr   0.043818
     2  O   -0.660560
     3  O   -0.441382
     4  O   -0.668258
     5  O   -0.397029
     6  Si   2.235568
     7  Si   1.792158
     8  Si   2.097175
     9  Si   1.649642
    10  O   -0.854420
    11  O   -0.779537
    12  O   -0.801825
    13  O   -0.818650
    14  O   -0.902677
    15  O   -0.868038
    16  O   -0.735793
    17  O   -0.970282
    18  O   -1.093655
    19  O   -0.989324
    20  O   -0.806798
    21  O   -0.833813
    22  H    0.388864
    23  H    0.372281
    24  H    0.363877
    25  H    0.415515
    26  H    0.366683
    27  H    0.431010
    28  H    0.376494
    29  H    0.446714
    30  H    0.410898
    31  H    0.406692
    32  H    0.381545
    33  H    0.443107
 Sum of Mulliken charges =  -0.00000
 Mulliken charges with hydrogens summed into heavy atoms:
               1
     1  Zr   0.043818
     2  O   -0.660560
     3  O   -0.441382
     4  O   -0.668258
     5  O   -0.397029
     6  Si   2.235568
     7  Si   1.792158
     8  Si   2.097175
     9  Si   1.649642
    10  O   -0.482140
    11  O   -0.415660
    12  O   -0.412961
    13  O   -0.403135
    14  O   -0.471668
    15  O   -0.501355
    16  O   -0.354249
    17  O   -0.527174
    18  O   -0.686963
    19  O   -0.578425
    20  O   -0.430304
    21  O   -0.387098
 Electronic spatial extent (au):  <R**2>=           9751.3688
 Charge=             -0.0000 electrons
 Dipole moment (field-independent basis, Debye):
    X=              2.9968    Y=             -1.4811    Z=             -3.0494  Tot=              4.5248
 Quadrupole moment (field-independent basis, Debye-Ang):
   XX=           -166.6873   YY=           -151.5875   ZZ=           -158.8354
   XY=             -6.1251   XZ=             13.2875   YZ=              2.6128
 Traceless Quadrupole moment (field-independent basis, Debye-Ang):
   XX=             -7.6506   YY=              7.4493   ZZ=              0.2013
   XY=             -6.1251   XZ=             13.2875   YZ=              2.6128
 Octapole moment (field-independent basis, Debye-Ang**2):
  XXX=             85.8306  YYY=             -7.0160  ZZZ=            -41.8619  XYY=             -6.0281
  XXY=             25.1372  XXZ=            -20.7508  XZZ=             62.7521  YZZ=            -25.5849
  YYZ=             -2.0595  XYZ=             11.2385
 Hexadecapole moment (field-independent basis, Debye-Ang**3):
 XXXX=          -6053.9412 YYYY=          -2754.9744 ZZZZ=          -2263.7430 XXXY=             24.3535
 XXXZ=             70.5788 YYYX=            -14.7195 YYYZ=            163.2580 ZZZX=             37.3630
 ZZZY=            -86.3889 XXYY=          -1476.0848 XXZZ=          -1462.3281 YYZZ=           -918.8168
 XXYZ=             28.6825 YYXZ=            194.2358 ZZXY=            -60.2023
 N-N= 2.840456572198D+03 E-N=-1.139350534439D+04  KE= 2.373156467390D+03
 PrsmSu:  requested number of processors reduced to:   2 ShMem   1 Linda.
 PrsmSu:  requested number of processors reduced to:  10 ShMem   1 Linda.
   1 Symmetry operations used in ECPInt.
 ECPInt:  NShTT=   13203 NPrTT=   78401 LenC2=   11539 LenP2D=   44771.
 LDataN:  DoStor=T MaxTD1= 9 Len=  602
 Number of processors reduced to  14 by ecpmxn.
 Calling FoFJK, ICntrl=      2127 FMM=F ISym2X=0 I1Cent= 0 IOpClX= 0 NMat=1 NMatS=1 NMatT=0.
 CoulSu:  requested number of processors reduced to:  10 ShMem   1 Linda.
 Defaulting to unpruned grid for atomic number  40.
 Defaulting to unpruned grid for atomic number  40.
 Defaulting to unpruned grid for atomic number  40.
 Defaulting to unpruned grid for atomic number  40.
 Defaulting to unpruned grid for atomic number  40.
 Defaulting to unpruned grid for atomic number  40.
 Defaulting to unpruned grid for atomic number  40.
 Defaulting to unpruned grid for atomic number  40.
 Defaulting to unpruned grid for atomic number  40.
 Defaulting to unpruned grid for atomic number  40.
 Defaulting to unpruned grid for atomic number  40.
 Defaulting to unpruned grid for atomic number  40.
 Defaulting to unpruned grid for atomic number  40.
 Defaulting to unpruned grid for atomic number  40.
 Defaulting to unpruned grid for atomic number  40.
 Defaulting to unpruned grid for atomic number  40.
 ***** Axes restored to original set *****
 -------------------------------------------------------------------
 Center     Atomic                   Forces (Hartrees/Bohr)
 Number     Number              X              Y              Z
 -------------------------------------------------------------------
      1       40          -0.000627727    0.000090519    0.000042847
      2        8          -0.000014037   -0.000017500    0.000027938
      3        8          -0.000016532   -0.000026050   -0.000013930
      4        8           0.000006971   -0.000029107   -0.000022053
      5        8           0.000337769    0.000195272    0.000109829
      6       14           0.000039562   -0.000002106    0.000021323
      7       14           0.000020432   -0.000042084    0.000015331
      8       14           0.000059276    0.000002677   -0.000040157
      9       14           0.000391861   -0.000488695   -0.000348705
     10        8          -0.000007898    0.000049206    0.000069064
     11        8          -0.000015596    0.000097583    0.000057073
     12        8          -0.000080400    0.000098048    0.000094982
     13        8          -0.000020846    0.000000794    0.000010293
     14        8          -0.000013282    0.000008325   -0.000004673
     15        8          -0.000012198   -0.000004879    0.000020188
     16        8          -0.000017594   -0.000000127   -0.000008492
     17        8          -0.000010734    0.000010021   -0.000007832
     18        8          -0.000013433   -0.000003837   -0.000004079
     19        8          -0.000005212    0.000007168   -0.000001273
     20        8           0.000007654    0.000021434   -0.000003560
     21        8          -0.000003782    0.000015033   -0.000012895
     22        1          -0.000011900    0.000048712    0.000038858
     23        1          -0.000006051   -0.000005675   -0.000005035
     24        1          -0.000023638   -0.000019798   -0.000024961
     25        1           0.000004078   -0.000000637    0.000001906
     26        1          -0.000001043    0.000006699   -0.000009100
     27        1           0.000022365    0.000001446   -0.000005005
     28        1          -0.000001835   -0.000009307   -0.000003839
     29        1          -0.000011375   -0.000008083    0.000013492
     30        1           0.000000402    0.000001418   -0.000004526
     31        1           0.000006888    0.000004115    0.000001368
     32        1           0.000011346   -0.000001819   -0.000002338
     33        1           0.000006509    0.000001234   -0.000002040
 -------------------------------------------------------------------
 Cartesian Forces:  Max     0.000627727 RMS     0.000107848

 GradGradGradGradGradGradGradGradGradGradGradGradGradGradGradGradGradGrad
 Berny optimization.
 FormGI is forming the generalized inverse of G from B-inverse, IUseBI=4.
 Internal  Forces:  Max     0.000577615 RMS     0.000074385
 Search for a local minimum.
 Step number   1 out of a maximum of  148
 All quantities printed in internal units (Hartrees-Bohrs-Radians)
 Mixed Optimization -- En-DIIS/RFO-DIIS
 Second derivative matrix not updated -- first step.
 ITU=  0
     Eigenvalues ---    0.00230   0.00230   0.00230   0.00230   0.03239
     Eigenvalues ---    0.03482   0.03500   0.03541   0.03581   0.03661
     Eigenvalues ---    0.03665   0.03674   0.03688   0.03735   0.03789
     Eigenvalues ---    0.03802   0.03811   0.03828   0.03857   0.03858
     Eigenvalues ---    0.08414   0.09469   0.11097   0.11247   0.11629
     Eigenvalues ---    0.11809   0.11979   0.12095   0.12205   0.12217
     Eigenvalues ---    0.12600   0.12707   0.12970   0.13105   0.13263
     Eigenvalues ---    0.16000   0.16000   0.16000   0.16000   0.16000
     Eigenvalues ---    0.16000   0.16000   0.16000   0.16000   0.16000
     Eigenvalues ---    0.16000   0.16000   0.19184   0.19894   0.19953
     Eigenvalues ---    0.20035   0.20159   0.20200   0.20253   0.20422
     Eigenvalues ---    0.20563   0.20992   0.21009   0.21136   0.21189
     Eigenvalues ---    0.21280   0.25000   0.25000   0.25000   0.37992
     Eigenvalues ---    0.40480   0.40678   0.41116   0.41558   0.42454
     Eigenvalues ---    0.42502   0.42606   0.42768   0.43316   0.43953
     Eigenvalues ---    0.44102   0.44216   0.44422   0.44766   0.44782
     Eigenvalues ---    0.50680   0.51458   0.52211   0.52570   0.54329
     Eigenvalues ---    0.54614   0.54649   0.54671   0.54696   0.54715
     Eigenvalues ---    0.54739   0.548931000.000001000.000001000.00000
     Eigenvalues --- 1000.000001000.000001000.000001000.000001000.00000
     Eigenvalues --- 1000.000001000.000001000.000001000.000001000.00000
     Eigenvalues --- 1000.000001000.000001000.000001000.000001000.00000
     Eigenvalues --- 1000.000001000.000001000.000001000.000001000.00000
     Eigenvalues --- 1000.000001000.000001000.000001000.000001000.00000
     Eigenvalues --- 1000.000001000.000001000.000001000.000001000.00000
     Eigenvalues --- 1000.000001000.000001000.000001000.000001000.00000
     Eigenvalues --- 1000.000001000.000001000.000001000.000001000.00000
     Eigenvalues --- 1000.000001000.000001000.00000
 RFO step:  Lambda=-4.16246157D-06 EMin= 2.30000000D-03
 Linear search not attempted -- first point.
 Iteration  1 RMS(Cart)=  0.00977995 RMS(Int)=  0.00002535
 Iteration  2 RMS(Cart)=  0.00004211 RMS(Int)=  0.00000007
 Iteration  3 RMS(Cart)=  0.00000000 RMS(Int)=  0.00000007
 Iteration  1 RMS(Cart)=  0.00000000 RMS(Int)=  0.00000000
 Variable       Old X    -DE/DX   Delta X   Delta X   Delta X     New X
                                 (Linear)    (Quad)   (Total)
    R1        3.67636  -0.00001   0.00000  -0.00003  -0.00003   3.67633
    R2        3.69031  -0.00004   0.00000  -0.00018  -0.00018   3.69013
    R3        3.73798   0.00001   0.00000   0.00006   0.00006   3.73804
    R4        3.71087   0.00058   0.00000   0.00289   0.00289   3.71376
    R5        3.13764  -0.00005   0.00000  -0.00013  -0.00013   3.13752
    R6        3.09653  -0.00001   0.00000  -0.00003  -0.00003   3.09650
    R7        3.10211  -0.00002   0.00000  -0.00004  -0.00004   3.10207
    R8        3.09248   0.00018   0.00000   0.00039   0.00039   3.09287
    R9        3.11657   0.00001   0.00000   0.00003   0.00003   3.11659
   R10        3.11988   0.00001   0.00000   0.00002   0.00002   3.11990
   R11        3.14342   0.00000   0.00000   0.00000   0.00000   3.14343
   R12        3.18077   0.00000   0.00000   0.00001   0.00001   3.18079
   R13        3.10982   0.00001   0.00000   0.00003   0.00003   3.10985
   R14        3.09230   0.00001   0.00000   0.00002   0.00002   3.09232
   R15        3.10032   0.00000   0.00000   0.00001   0.00001   3.10033
   R16        3.14606   0.00000   0.00000   0.00001   0.00001   3.14607
   R17        3.09896   0.00001   0.00000   0.00002   0.00002   3.09899
   R18        3.11858  -0.00003   0.00000  -0.00007  -0.00007   3.11852
   R19        3.13189  -0.00008   0.00000  -0.00020  -0.00020   3.13169
   R20        3.12049   0.00019   0.00000   0.00045   0.00045   3.12094
   R21        1.82145   0.00000   0.00000   0.00001   0.00001   1.82146
   R22        1.82065   0.00001   0.00000   0.00002   0.00002   1.82067
   R23        1.82103   0.00002   0.00000   0.00004   0.00004   1.82107
   R24        1.84058  -0.00000   0.00000  -0.00000  -0.00000   1.84057
   R25        1.84398  -0.00001   0.00000  -0.00001  -0.00001   1.84397
   R26        1.81928  -0.00001   0.00000  -0.00001  -0.00001   1.81926
   R27        1.82086   0.00001   0.00000   0.00001   0.00001   1.82088
   R28        1.85885   0.00000   0.00000   0.00001   0.00001   1.85886
   R29        1.82126  -0.00001   0.00000  -0.00001  -0.00001   1.82125
   R30        1.82433   0.00000   0.00000   0.00000   0.00000   1.82434
   R31        1.82176  -0.00001   0.00000  -0.00001  -0.00001   1.82175
   R32        1.85122   0.00002   0.00000   0.00003   0.00003   1.85125
    A1        1.85569  -0.00002   0.00000  -0.00002  -0.00002   1.85567
    A2        1.80097   0.00003   0.00000   0.00013   0.00013   1.80110
    A3        1.97659   0.00000   0.00000   0.00001   0.00001   1.97659
    A4        1.83906   0.00001   0.00000   0.00005   0.00005   1.83911
    A5        2.01332   0.00004   0.00000   0.00023   0.00023   2.01355
    A6        1.96025  -0.00006   0.00000  -0.00039  -0.00039   1.95986
    A7        2.45892  -0.00010   0.00000  -0.00038  -0.00038   2.45854
    A8        2.59369   0.00001   0.00000   0.00005   0.00005   2.59374
    A9        2.34042  -0.00000   0.00000  -0.00001  -0.00001   2.34042
   A10        2.68780   0.00044   0.00000   0.00000   0.00000   2.68780
   A11        1.92384   0.00000   0.00000  -0.00001  -0.00001   1.92384
   A12        1.91272  -0.00000   0.00000  -0.00002  -0.00002   1.91270
   A13        1.94584   0.00001   0.00000   0.00009   0.00009   1.94593
   A14        2.00429  -0.00001   0.00000  -0.00007  -0.00007   2.00421
   A15        1.88341  -0.00001   0.00000  -0.00002  -0.00002   1.88339
   A16        1.79022   0.00001   0.00000   0.00005   0.00005   1.79027
   A17        1.80104   0.00001   0.00000   0.00006   0.00006   1.80110
   A18        1.99287  -0.00001   0.00000  -0.00006  -0.00006   1.99281
[...]
 Alpha virt. eigenvalues --    3.52738   3.53830   3.59961   3.61214   3.62160
 Alpha virt. eigenvalues --    3.65882   4.39528   4.73058   7.69526  31.22167
          Condensed to atoms (all electrons):
               1          2          3          4          5          6
     1  Zr  15.227447  -0.051603  -0.001910  -0.144171  -0.168746  -0.741187
     2  O   -0.051603   8.852972   0.013666  -0.045493  -0.050197   0.064649
     3  O   -0.001910   0.013666   8.834996   0.015439  -0.048856  -0.003288
     4  O   -0.144171  -0.045493   0.015439   8.830039  -0.064530  -0.726767
     5  O   -0.168746  -0.050197  -0.048856  -0.064530   9.301599  -0.004860
     6  Si  -0.741187   0.064649  -0.003288  -0.726767  -0.004860  14.214219
     7  Si  -0.592774  -0.020275  -0.879988  -0.012336  -0.030682   0.100624
     8  Si  -0.670561  -0.753174  -0.025309   0.071846  -0.010885   0.028247
     9  Si  -0.329097  -0.025779  -0.003799  -0.013412  -1.068007   0.048188
    10  O   -0.038668   0.000639  -0.001883  -0.000418   0.116891  -0.001147
    11  O   -0.115093   0.001915   0.003335   0.002303   0.331724   0.000010
    12  O    0.053315   0.001751   0.006022   0.001543   0.114435  -0.003054
    13  O    0.004420   0.262294   0.001396  -0.015181  -0.000559   0.024541
    14  O   -0.052338   0.247378  -0.018057  -0.003059   0.000278   0.012113
    15  O   -0.061916   0.257172   0.000390   0.002551   0.000802  -0.004218
    16  O   -0.126503   0.005544  -0.000423   0.349311   0.003283  -0.446784
    17  O   -0.100525  -0.038734   0.010261   0.211108   0.000419  -0.439590
    18  O   -0.032919  -0.019632   0.003576   0.212256  -0.001202  -0.484817
    19  O    0.003528   0.008040   0.277565   0.013967   0.002442  -0.009781
    20  O   -0.137233  -0.000780   0.150318  -0.000563   0.001148   0.010377
    21  O    0.036393   0.010858   0.156687   0.004066   0.000493  -0.015721
    22  H   -0.013203  -0.000002   0.000061  -0.000003   0.005818   0.000134
    23  H   -0.006778  -0.000009  -0.000006  -0.000029  -0.024145   0.000135
    24  H   -0.006227  -0.000057  -0.000001   0.000007  -0.002013   0.000134
    25  H    0.020697  -0.021965  -0.000126  -0.001055  -0.000016   0.001023
    26  H   -0.007847  -0.011974   0.000016  -0.000012  -0.000019   0.000186
    27  H    0.008221  -0.020606   0.000741  -0.001605   0.000036   0.009900
    28  H    0.004405  -0.000012  -0.017834  -0.000013  -0.000009  -0.000285
    29  H   -0.000588  -0.005061  -0.019618  -0.000196  -0.000056   0.000663
    30  H   -0.000397  -0.000009   0.000015  -0.000506  -0.000008  -0.000427
    31  H    0.003584   0.000275  -0.000022  -0.018283  -0.000019   0.061366
    32  H    0.002692  -0.000029   0.000035   0.011397   0.000010   0.018773
    33  H   -0.015125   0.000919  -0.010472  -0.009523  -0.000080   0.052800
               7          8          9         10         11         12
     1  Zr  -0.592774  -0.670561  -0.329097  -0.038668  -0.115093   0.053315
     2  O   -0.020275  -0.753174  -0.025779   0.000639   0.001915   0.001751
     3  O   -0.879988  -0.025309  -0.003799  -0.001883   0.003335   0.006022
     4  O   -0.012336   0.071846  -0.013412  -0.000418   0.002303   0.001543
     5  O   -0.030682  -0.010885  -1.068007   0.116891   0.331724   0.114435
     6  Si   0.100624   0.028247   0.048188  -0.001147   0.000010  -0.003054
     7  Si  13.768204   0.171516   0.023202   0.001746  -0.000791   0.002203
     8  Si   0.171516  13.740430   0.040352  -0.001489   0.002159  -0.002661
     9  Si   0.023202   0.040352  13.891180  -0.011157  -0.186116  -0.187669
    10  O    0.001746  -0.001489  -0.011157   8.517904  -0.006699   0.044559
    11  O   -0.000791   0.002159  -0.186116  -0.006699   8.570547  -0.050959
    12  O    0.002203  -0.002661  -0.187669   0.044559  -0.050959   8.601973
    13  O    0.002543  -0.151949  -0.000898  -0.000001   0.000017  -0.000034
    14  O    0.019973  -0.483302  -0.000381  -0.000002   0.000006   0.000023
    15  O   -0.002729  -0.382823  -0.000693  -0.000000  -0.000018   0.000054
    16  O    0.003765  -0.010400  -0.001337   0.000006  -0.000010  -0.000001
    17  O   -0.000435   0.100609   0.003441   0.000006   0.000005  -0.000011
    18  O   -0.001998   0.082568   0.003658   0.000004   0.000006   0.000005
    19  O   -0.438567  -0.018215   0.000763   0.000006   0.000001  -0.000087
    20  O   -0.092988   0.009258   0.003452   0.000048  -0.000003  -0.000054
    21  O    0.016254  -0.047511  -0.001841  -0.000002   0.000003  -0.000007
    22  H    0.000013   0.000176   0.049537  -0.005210  -0.004798   0.221308
    23  H   -0.000018   0.000053   0.075725   0.231478  -0.005005   0.005560
    24  H    0.000039   0.000201   0.036109   0.007459   0.238426  -0.006687
    25  H   -0.000308   0.054548  -0.000207  -0.000000  -0.000000  -0.000000
    26  H    0.000556   0.062831  -0.000339   0.000000   0.000000  -0.000004
    27  H    0.000514   0.075288   0.000001   0.000000  -0.000000   0.000000
    28  H    0.056314   0.000081  -0.000166  -0.000000  -0.000000  -0.000003
    29  H    0.048353   0.023753  -0.000086   0.000000  -0.000000  -0.000001
    30  H    0.042713   0.000140   0.000006  -0.000000   0.000000   0.000000
    31  H    0.000094  -0.002948  -0.000060   0.000000  -0.000000   0.000000
    32  H   -0.000616   0.000147  -0.000007  -0.000000   0.000000  -0.000000
    33  H    0.021581   0.000000   0.000079  -0.000000   0.000000   0.000000
              13         14         15         16         17         18
     1  Zr   0.004420  -0.052338  -0.061916  -0.126503  -0.100525  -0.032919
     2  O    0.262294   0.247378   0.257172   0.005544  -0.038734  -0.019632
     3  O    0.001396  -0.018057   0.000390  -0.000423   0.010261   0.003576
     4  O   -0.015181  -0.003059   0.002551   0.349311   0.211108   0.212256
     5  O   -0.000559   0.000278   0.000802   0.003283   0.000419  -0.001202
     6  Si   0.024541   0.012113  -0.004218  -0.446784  -0.439590  -0.484817
     7  Si   0.002543   0.019973  -0.002729   0.003765  -0.000435  -0.001998
     8  Si  -0.151949  -0.483302  -0.382823  -0.010400   0.100609   0.082568
     9  Si  -0.000898  -0.000381  -0.000693  -0.001337   0.003441   0.003658
    10  O   -0.000001  -0.000002  -0.000000   0.000006   0.000006   0.000004
    11  O    0.000017   0.000006  -0.000018  -0.000010   0.000005   0.000006
    12  O   -0.000034   0.000023   0.000054  -0.000001  -0.000011   0.000005
    13  O    8.641476   0.024875  -0.115899   0.003929  -0.028644  -0.042521
    14  O    0.024875   8.808567   0.154563   0.002542  -0.028073  -0.022723
    15  O   -0.115899   0.154563   8.783289  -0.000164   0.003900   0.001178
    16  O    0.003929   0.002542  -0.000164   8.910906  -0.096447  -0.101988
    17  O   -0.028644  -0.028073   0.003900  -0.096447   8.942357   0.224804
    18  O   -0.042521  -0.022723   0.001178  -0.101988   0.224804   9.036425
    19  O    0.000231   0.001533   0.000334  -0.000879  -0.030487   0.000138
    20  O    0.000009  -0.001095   0.000005   0.000045  -0.000820   0.000016
    21  O   -0.000449   0.025642   0.000734  -0.000174  -0.005887   0.000399
    22  H   -0.000000   0.000000   0.000001  -0.000000   0.000000  -0.000000
    23  H    0.000000   0.000000   0.000000  -0.000000   0.000000   0.000000
    24  H   -0.000000   0.000000   0.000001   0.000000  -0.000000  -0.000000
    25  H    0.216924  -0.009323   0.007452  -0.000256   0.000564   0.015227
    26  H   -0.006626   0.001031   0.226006   0.000000  -0.000022   0.000008
    27  H   -0.004525   0.207059   0.000080   0.000304   0.017747  -0.000806
    28  H    0.000000  -0.000003  -0.000001  -0.000000   0.000003   0.000000
    29  H    0.000782   0.014134  -0.001341  -0.000004  -0.000708  -0.000002
    30  H    0.000001   0.000002   0.000001   0.000102  -0.000433  -0.000009
    31  H    0.002327   0.000075  -0.000020   0.005025  -0.001220   0.215890
    32  H   -0.000007  -0.000006   0.000000   0.236305  -0.003375   0.003886
    33  H    0.000249   0.001994  -0.000055   0.000228   0.229853   0.002225
              19         20         21         22         23         24
     1  Zr   0.003528  -0.137233   0.036393  -0.013203  -0.006778  -0.006227
     2  O    0.008040  -0.000780   0.010858  -0.000002  -0.000009  -0.000057
     3  O    0.277565   0.150318   0.156687   0.000061  -0.000006  -0.000001
     4  O    0.013967  -0.000563   0.004066  -0.000003  -0.000029   0.000007
     5  O    0.002442   0.001148   0.000493   0.005818  -0.024145  -0.002013
     6  Si  -0.009781   0.010377  -0.015721   0.000134   0.000135   0.000134
     7  Si  -0.438567  -0.092988   0.016254   0.000013  -0.000018   0.000039
     8  Si  -0.018215   0.009258  -0.047511   0.000176   0.000053   0.000201
     9  Si   0.000763   0.003452  -0.001841   0.049537   0.075725   0.036109
    10  O    0.000006   0.000048  -0.000002  -0.005210   0.231478   0.007459
    11  O    0.000001  -0.000003   0.000003  -0.004798  -0.005005   0.238426
    12  O   -0.000087  -0.000054  -0.000007   0.221308   0.005560  -0.006687
    13  O    0.000231   0.000009  -0.000449  -0.000000   0.000000  -0.000000
    14  O    0.001533  -0.001095   0.025642   0.000000   0.000000   0.000000
    15  O    0.000334   0.000005   0.000734   0.000001   0.000000   0.000001
    16  O   -0.000879   0.000045  -0.000174  -0.000000  -0.000000   0.000000
    17  O   -0.030487  -0.000820  -0.005887   0.000000   0.000000  -0.000000
    18  O    0.000138   0.000016   0.000399  -0.000000   0.000000  -0.000000
    19  O    8.888465   0.032865   0.025915  -0.000000   0.000000  -0.000000
    20  O    0.032865   8.652990  -0.055980   0.000000   0.000000  -0.000000
    21  O    0.025915  -0.055980   8.487733  -0.000001   0.000000   0.000000
    22  H   -0.000000   0.000000  -0.000001   0.356749   0.000048   0.000103
    23  H    0.000000   0.000000   0.000000   0.000048   0.350781   0.000022
    24  H   -0.000000  -0.000000   0.000000   0.000103   0.000022   0.368373
    25  H   -0.000034   0.000000  -0.000011   0.000000   0.000000   0.000000
    26  H    0.000000  -0.000000   0.000045  -0.000000  -0.000000  -0.000000
    27  H   -0.000228   0.000224  -0.004721  -0.000000  -0.000000   0.000000
    28  H    0.004356   0.228959  -0.001550  -0.000000   0.000000  -0.000000
    29  H   -0.008627   0.008099   0.208450   0.000000  -0.000000  -0.000000
    30  H    0.222998  -0.001495  -0.007353   0.000000  -0.000000  -0.000000
    31  H    0.000002  -0.000000  -0.000000  -0.000000   0.000000   0.000000
    32  H    0.000092   0.000000   0.000001  -0.000000  -0.000000  -0.000000
    33  H    0.013193  -0.000058   0.001388  -0.000000  -0.000000  -0.000000
              25         26         27         28         29         30
     1  Zr   0.020697  -0.007847   0.008221   0.004405  -0.000588  -0.000397
     2  O   -0.021965  -0.011974  -0.020606  -0.000012  -0.005061  -0.000009
     3  O   -0.000126   0.000016   0.000741  -0.017834  -0.019618   0.000015
     4  O   -0.001055  -0.000012  -0.001605  -0.000013  -0.000196  -0.000506
     5  O   -0.000016  -0.000019   0.000036  -0.000009  -0.000056  -0.000008
     6  Si   0.001023   0.000186   0.009900  -0.000285   0.000663  -0.000427
     7  Si  -0.000308   0.000556   0.000514   0.056314   0.048353   0.042713
     8  Si   0.054548   0.062831   0.075288   0.000081   0.023753   0.000140
     9  Si  -0.000207  -0.000339   0.000001  -0.000166  -0.000086   0.000006
    10  O   -0.000000   0.000000   0.000000  -0.000000   0.000000  -0.000000
    11  O   -0.000000   0.000000  -0.000000  -0.000000  -0.000000   0.000000
    12  O   -0.000000  -0.000004   0.000000  -0.000003  -0.000001   0.000000
    13  O    0.216924  -0.006626  -0.004525   0.000000   0.000782   0.000001
    14  O   -0.009323   0.001031   0.207059  -0.000003   0.014134   0.000002
    15  O    0.007452   0.226006   0.000080  -0.000001  -0.001341   0.000001
    16  O   -0.000256   0.000000   0.000304  -0.000000  -0.000004   0.000102
    17  O    0.000564  -0.000022   0.017747   0.000003  -0.000708  -0.000433
    18  O    0.015227   0.000008  -0.000806   0.000000  -0.000002  -0.000009
    19  O   -0.000034   0.000000  -0.000228   0.004356  -0.008627   0.222998
    20  O    0.000000  -0.000000   0.000224   0.228959   0.008099  -0.001495
    21  O   -0.000011   0.000045  -0.004721  -0.001550   0.208450  -0.007353
    22  H    0.000000  -0.000000  -0.000000  -0.000000   0.000000   0.000000
    23  H    0.000000  -0.000000  -0.000000   0.000000  -0.000000  -0.000000
    24  H    0.000000  -0.000000   0.000000  -0.000000  -0.000000  -0.000000
    25  H    0.301563  -0.000030   0.000025   0.000000   0.000001   0.000000
    26  H   -0.000030   0.369452  -0.000036   0.000000   0.000018  -0.000000
    27  H    0.000025  -0.000036   0.284838  -0.000000  -0.000992   0.000006
    28  H    0.000000   0.000000  -0.000000   0.349285  -0.000017  -0.000011
    29  H    0.000001   0.000018  -0.000992  -0.000017   0.285945   0.000167
    30  H    0.000000  -0.000000   0.000006  -0.000011   0.000167   0.334638
    31  H   -0.000190   0.000000   0.000014   0.000000   0.000000  -0.000000
    32  H   -0.000001  -0.000000  -0.000000   0.000000  -0.000000  -0.000000
    33  H    0.000005   0.000000  -0.002443  -0.000002   0.000128  -0.001046
              31         32         33
     1  Zr   0.003584   0.002692  -0.015125
     2  O    0.000275  -0.000029   0.000919
     3  O   -0.000022   0.000035  -0.010472
     4  O   -0.018283   0.011397  -0.009523
     5  O   -0.000019   0.000010  -0.000080
     6  Si   0.061366   0.018773   0.052800
     7  Si   0.000094  -0.000616   0.021581
     8  Si  -0.002948   0.000147   0.000000
     9  Si  -0.000060  -0.000007   0.000079
    10  O    0.000000  -0.000000  -0.000000
    11  O   -0.000000   0.000000   0.000000
    12  O    0.000000  -0.000000   0.000000
    13  O    0.002327  -0.000007   0.000249
    14  O    0.000075  -0.000006   0.001994
    15  O   -0.000020   0.000000  -0.000055
    16  O    0.005025   0.236305   0.000228
    17  O   -0.001220  -0.003375   0.229853
    18  O    0.215890   0.003886   0.002225
    19  O    0.000002   0.000092   0.013193
    20  O   -0.000000   0.000000  -0.000058
    21  O   -0.000000   0.000001   0.001388
    22  H   -0.000000  -0.000000  -0.000000
    23  H    0.000000  -0.000000  -0.000000
    24  H    0.000000  -0.000000  -0.000000
    25  H   -0.000190  -0.000001   0.000005
    26  H    0.000000  -0.000000   0.000000
    27  H    0.000014  -0.000000  -0.002443
    28  H    0.000000   0.000000  -0.000002
    29  H    0.000000  -0.000000   0.000128
    30  H   -0.000000  -0.000000  -0.001046
    31  H    0.327533  -0.000010  -0.000036
    32  H   -0.000010   0.348986   0.000146
    33  H   -0.000036   0.000146   0.270998
 Mulliken charges:
               1
     1  Zr   0.050705
     2  O   -0.662682
     3  O   -0.442927
     4  O   -0.668678
     5  O   -0.404486
     6  Si   2.233843
     7  Si   1.794295
     8  Si   2.097027
     9  Si   1.655358
    10  O   -0.854070
    11  O   -0.780969
    12  O   -0.801520
    13  O   -0.818721
    14  O   -0.903426
    15  O   -0.868635
    16  O   -0.735924
    17  O   -0.969665
    18  O   -1.093653
    19  O   -0.989528
    20  O   -0.806745
    21  O   -0.833852
    22  H    0.389268
    23  H    0.372188
    24  H    0.364111
    25  H    0.415492
    26  H    0.366759
    27  H    0.430966
    28  H    0.376504
    29  H    0.446805
    30  H    0.410904
    31  H    0.406622
    32  H    0.381580
    33  H    0.443054
 Sum of Mulliken charges =  -0.00000
 Mulliken charges with hydrogens summed into heavy atoms:
               1
     1  Zr   0.050705
     2  O   -0.662682
     3  O   -0.442927
     4  O   -0.668678
     5  O   -0.404486
     6  Si   2.233843
     7  Si   1.794295
     8  Si   2.097027
     9  Si   1.655358
    10  O   -0.481882
    11  O   -0.416859
    12  O   -0.412252
    13  O   -0.403229
    14  O   -0.472460
    15  O   -0.501876
    16  O   -0.354344
    17  O   -0.526611
    18  O   -0.687030
    19  O   -0.578624
    20  O   -0.430241
    21  O   -0.387047
 Electronic spatial extent (au):  <R**2>=           9751.7439
 Charge=              0.0000 electrons
 Dipole moment (field-independent basis, Debye):
    X=              2.9564    Y=             -1.4540    Z=             -3.1193  Tot=              4.5370
 Quadrupole moment (field-independent basis, Debye-Ang):
   XX=           -166.6895   YY=           -151.6862   ZZ=           -158.9956
   XY=             -6.2863   XZ=             13.1809   YZ=              2.8973
 Traceless Quadrupole moment (field-independent basis, Debye-Ang):
   XX=             -7.5657   YY=              7.4376   ZZ=              0.1282
   XY=             -6.2863   XZ=             13.1809   YZ=              2.8973
 Octapole moment (field-independent basis, Debye-Ang**2):
  XXX=             83.0685  YYY=             -7.9388  ZZZ=            -43.4831  XYY=             -6.3456
  XXY=             25.8699  XXZ=            -21.1709  XZZ=             63.7023  YZZ=            -23.7912
  YYZ=             -2.4364  XYZ=             10.7602
 Hexadecapole moment (field-independent basis, Debye-Ang**3):
 XXXX=          -6057.0570 YYYY=          -2756.6728 ZZZZ=          -2266.1592 XXXY=             22.2944
 XXXZ=             65.5035 YYYX=            -20.2230 YYYZ=            168.6614 ZZZX=             42.8784
 ZZZY=            -82.7197 XXYY=          -1479.6799 XXZZ=          -1457.4476 YYZZ=           -923.8100
 XXYZ=             26.3285 YYXZ=            191.6120 ZZXY=            -56.4658
 N-N= 2.840386601010D+03 E-N=-1.139335288524D+04  KE= 2.373154037542D+03
 1\1\GINC-GRA1249\FOpt\RB3LYP\Gen\H12O16Si4Zr1\SARASHS\02-Aug-2020\0\\#
 n B3LYP/Gen Pseudo=cards EmpiricalDispersion=GD3 Opt=modredundant\\Tit
 le\\0,1\Zr,0.6470064145,-0.181634235,-0.1621510025\O,-0.181829948,-0.9
 220679943,1.4344764127\O,0.1674172165,1.7108737687,-0.2028430949\O,-0.
 3808816819,-1.0151411279,-1.6321266723\O,2.5698888909,-0.5656303094,-0
 .2896930542\Si,-1.9724315012,-1.33475312,-1.8763225748\Si,-0.997758309
 8,2.8605763297,-0.1279882246\Si,-1.6616096854,-1.0449216171,2.17741625
 36\Si,4.1516761665,-0.2729097056,0.0122611065\O,4.9208318602,0.5791580
 857,-1.1732126989\O,4.9843335896,-1.6999837509,0.1392134801\O,4.152386
 3228,0.6429253932,1.3868439634\O,-2.3202775755,-2.5080690566,1.8356191
 184\O,-2.6135257909,0.2118393014,1.6423749596\O,-1.5332341913,-0.81373
 87298,3.795834045\O,-2.2616696164,-1.5984919314,-3.4784357825\O,-2.887
 7672061,-0.1425680352,-1.1934619733\O,-2.45742605,-2.6879114605,-1.039
 2116152\O,-2.020179386,2.4546241457,-1.4019529991\O,-0.4596789868,4.38
 61390126,-0.4302891113\O,-1.7609709985,2.8715622239,1.3194393169\H,4.9
 705920161,1.1023931811,1.6060416058\H,5.3818176649,0.0566983841,-1.839
 2212097\H,4.5572127896,-2.4190508831,0.6174831205\H,-2.3957768491,-2.7
 430973139,0.8934332415\H,-0.9013146327,-1.3620139824,4.272177017\H,-3.
 0260975403,0.0460632911,0.7738182194\H,-0.3030822428,4.9401696832,0.34
 294208\H,-2.0939442013,2.0072899103,1.6385982091\H,-2.6235386319,3.154
 4316072,-1.6816263081\H,-2.5623796217,-3.4949152146,-1.5555136054\H,-1
 .5620807678,-1.3447795776,-4.0905378383\H,-2.6475275161,0.7867437277,-
 1.4085143845\\Version=ES64L-G16RevB.01\State=1-A\HF=-2416.9458613\RMSD
 =7.193e-09\RMSF=1.768e-05\Dipole=1.1869521,-0.5656332,-1.2072482\Quadr
 upole=-5.7313342,5.4286971,0.3026371,-4.7782834,9.7359878,2.1915967\PG
 =C01 [X(H12O16Si4Zr1)]\\@


 THE MOST SERIOUS THREAT TO THE SURVIVAL OF MANKIND IS NOT NOW
 IGNORANCE IN THE TRADITIONAL SENSE,
 BUT A MORALLY NEUTRAL, AN INSENSITIVE OR INHIBITED HUMAN INTELLIGENCE.

                     -- MARGO JEFFERSON IN NEWSWEEK, SEPTEMBER 2, 1974
 Job cpu time:       0 days 19 hours 16 minutes 57.1 seconds.
 Elapsed time:       0 days  1 hours 27 minutes 10.3 seconds.
 File lengths (MBytes):  RWF=    167 Int=      0 D2E=      0 Chk=     21 Scr=      1
 Normal termination of Gaussian 16 at Sun Aug  2 08:35:37 2020.
