 Entering Gaussian System, Link 0=g16
 Initial command:
 /opt/software/gaussian/g16.b01/l1.exe "/localscratch/sarashs.36760138.0/Gau-96503.inp" -scrdir="/localscratch/sarashs.36760138.0/"
 Entering Link 1 = /opt/software/gaussian/g16.b01/l1.exe PID=     96504.
  
 Copyright (c) 1988-2017, Gaussian, Inc.  All Rights Reserved.
  
 This is part of the Gaussian(R) 16 program.  It is based on
 the Gaussian(R) 09 system (copyright 2009, Gaussian, Inc.),
 the Gaussian(R) 03 system (copyright 2003, Gaussian, Inc.),
 the Gaussian(R) 98 system (copyright 1998, Gaussian, Inc.),
 the Gaussian(R) 94 system (copyright 1995, Gaussian, Inc.),
 the Gaussian 92(TM) system (copyright 1992, Gaussian, Inc.),
 the Gaussian 90(TM) system (copyright 1990, Gaussian, Inc.),
 the Gaussian 88(TM) system (copyright 1988, Gaussian, Inc.),
 the Gaussian 86(TM) system (copyright 1986, Carnegie Mellon
 University), and the Gaussian 82(TM) system (copyright 1983,
 Carnegie Mellon University). Gaussian is a federally registered
 trademark of Gaussian, Inc.
  
 This software contains proprietary and confidential information,
 including trade secrets, belonging to Gaussian, Inc.
  
 This software is provided under written license and may be
 used, copied, transmitted, or stored only in accord with that
 written license.
  
 The following legend is applicable only to US Government
 contracts under FAR:
  
                    RESTRICTED RIGHTS LEGEND
  
 Use, reproduction and disclosure by the US Government is
 subject to restrictions as set forth in subparagraphs (a)
 and (c) of the Commercial Computer Software - Restricted
 Rights clause in FAR 52.227-19.
  
 Gaussian, Inc.
 340 Quinnipiac St., Bldg. 40, Wallingford CT 06492
  
  
 ---------------------------------------------------------------
 Warning -- This program may not be used in any manner that
 competes with the business of Gaussian, Inc. or will provide
 assistance to any competitor of Gaussian, Inc.  The licensee
 of this program is prohibited from giving any competitor of
 Gaussian, Inc. access to this program.  By using this program,
 the user acknowledges that Gaussian, Inc. is engaged in the
 business of creating and licensing software in the field of
 computational chemistry and represents and warrants to the
 licensee that it is not a competitor of Gaussian, Inc. and that
 it will not use this program in any manner prohibited above.
 ---------------------------------------------------------------
  

 Cite this work as:
 Gaussian 16, Revision B.01,
 M. J. Frisch, G. W. Trucks, H. B. Schlegel, G. E. Scuseria, 
 M. A. Robb, J. R. Cheeseman, G. Scalmani, V. Barone, 
 G. A. Petersson, H. Nakatsuji, X. Li, M. Caricato, A. V. Marenich, 
 J. Bloino, B. G. Janesko, R. Gomperts, B. Mennucci, H. P. Hratchian, 
 J. V. Ortiz, A. F. Izmaylov, J. L. Sonnenberg, D. Williams-Young, 
 F. Ding, F. Lipparini, F. Egidi, J. Goings, B. Peng, A. Petrone, 
 T. Henderson, D. Ranasinghe, V. G. Zakrzewski, J. Gao, N. Rega, 
 G. Zheng, W. Liang, M. Hada, M. Ehara, K. Toyota, R. Fukuda, 
 J. Hasegawa, M. Ishida, T. Nakajima, Y. Honda, O. Kitao, H. Nakai, 
 T. Vreven, K. Throssell, J. A. Montgomery, Jr., J. E. Peralta, 
 F. Ogliaro, M. J. Bearpark, J. J. Heyd, E. N. Brothers, K. N. Kudin, 
 V. N. Staroverov, T. A. Keith, R. Kobayashi, J. Normand, 
 K. Raghavachari, A. P. Rendell, J. C. Burant, S. S. Iyengar, 
 J. Tomasi, M. Cossi, J. M. Millam, M. Klene, C. Adamo, R. Cammi, 
 J. W. Ochterski, R. L. Martin, K. Morokuma, O. Farkas, 
 J. B. Foresman, and D. J. Fox, Gaussian, Inc., Wallingford CT, 2016.
 
 ******************************************
 Gaussian 16:  ES64L-G16RevB.01 20-Dec-2017
                 2-Aug-2020 
 ******************************************
 %NProcShared=16
 Will use up to   16 processors via shared memory.
 ------------------------------------------------------------------
 #n B3LYP/Gen Pseudo=cards EmpiricalDispersion=GD3 Opt=modredundant
 ------------------------------------------------------------------
 1/18=120,19=15,26=3,38=1/1,3;
 2/9=110,12=2,17=6,18=5,40=1/2;
 3/5=7,11=2,16=1,17=8,25=1,30=1,71=1,74=-5,124=31/1,2,3;
 4//1;
 5/5=2,38=5/2;
 6/7=2,8=2,9=2,10=2,28=1/1;
 7//1,2,3,16;
 1/18=20,19=15,26=3/3(2);
 2/9=110/2;
 99//99;
 2/9=110/2;
 3/5=7,6=1,11=2,16=1,17=8,25=1,30=1,71=1,74=-5,82=7,124=31/1,2,3;
 4/5=5,16=3,69=1/1;
 5/5=2,38=5/2;
 7//1,2,3,16;
 1/18=20,19=15,26=3/3(-5);
 2/9=110/2;
 6/7=2,8=2,9=2,10=2,19=2,28=1/1;
 99/9=1/99;
 -----
 Title
 -----
 Symbolic Z-matrix:
 Charge =  0 Multiplicity = 1
 Zr                    0.64646  -0.19013  -0.1519 
 O                    -0.19212  -0.93131   1.43939 
 O                     0.17263   1.70395  -0.1904 
 O                    -0.37772  -1.01692  -1.62844 
 O                     2.5678   -0.57883  -0.26812 
 Si                   -1.96924  -1.33216  -1.87829 
 Si                   -0.98958   2.85681  -0.11809 
 Si                   -1.67476  -1.05152   2.17706 
 Si                    4.16985  -0.33983  -0.03497 
 O                     4.92083   0.45095  -1.27357 
 O                     4.95363  -1.79429   0.09526 
 O                     4.26218   0.60745   1.31444 
 O                    -2.33574  -2.51245   1.83004 
 O                    -2.6209    0.20928   1.64149 
 O                    -1.552    -0.82432   3.7965 
 O                    -2.25427  -1.59164  -3.48183 
 O                    -2.88371  -0.13912  -1.19557 
 O                    -2.46027  -2.68598  -1.04579 
 O                    -2.00825   2.45605  -1.3967 
 O                    -0.44623   4.38142  -0.41555 
 O                    -1.75835   2.86715   1.32642 
 H                     5.10727   1.036     1.48993 
 H                     5.33903  -0.10637  -1.93956 
 H                     4.52734  -2.4803    0.62052 
 H                    -2.40738  -2.74575   0.88712 
 H                    -0.93391  -1.38513   4.27638 
 H                    -3.02928   0.04705   0.77024 
 H                    -0.29029   4.93346   0.35924 
 H                    -2.09489   2.00321   1.64266 
 H                    -2.6086    3.15807  -1.6773 
 H                    -2.56602  -3.49143  -1.56436 
 H                    -1.55278  -1.33714  -4.09141 
 H                    -2.64046   0.78995  -1.40829 
 
 The following ModRedundant input section has been read:
 A       1       5       9 F                                                   
 

 GradGradGradGradGradGradGradGradGradGradGradGradGradGradGradGradGradGrad
 Berny optimization.
 Initialization pass.
                           ----------------------------
                           !    Initial Parameters    !
                           ! (Angstroms and Degrees)  !
 --------------------------                            --------------------------
 ! Name  Definition              Value          Derivative Info.                !
 --------------------------------------------------------------------------------
 ! R1    R(1,2)                  1.9454         estimate D2E/DX2                !
 ! R2    R(1,3)                  1.9528         estimate D2E/DX2                !
 ! R3    R(1,4)                  1.9781         estimate D2E/DX2                !
 ! R4    R(1,5)                  1.9637         estimate D2E/DX2                !
 ! R5    R(2,8)                  1.6604         estimate D2E/DX2                !
 ! R6    R(3,7)                  1.6386         estimate D2E/DX2                !
 ! R7    R(4,6)                  1.6416         estimate D2E/DX2                !
 ! R8    R(5,9)                  1.6365         estimate D2E/DX2                !
 ! R9    R(6,16)                 1.6492         estimate D2E/DX2                !
 ! R10   R(6,17)                 1.651          estimate D2E/DX2                !
 ! R11   R(6,18)                 1.6634         estimate D2E/DX2                !
 ! R12   R(7,19)                 1.6832         estimate D2E/DX2                !
 ! R13   R(7,20)                 1.6456         estimate D2E/DX2                !
 ! R14   R(7,21)                 1.6364         estimate D2E/DX2                !
 ! R15   R(8,13)                 1.6406         estimate D2E/DX2                !
 ! R16   R(8,14)                 1.6648         estimate D2E/DX2                !
 ! R17   R(8,15)                 1.6399         estimate D2E/DX2                !
 ! R18   R(9,10)                 1.6503         estimate D2E/DX2                !
 ! R19   R(9,11)                 1.6573         estimate D2E/DX2                !
 ! R20   R(9,12)                 1.6513         estimate D2E/DX2                !
 ! R21   R(10,23)                0.9639         estimate D2E/DX2                !
 ! R22   R(11,24)                0.9634         estimate D2E/DX2                !
 ! R23   R(12,22)                0.9637         estimate D2E/DX2                !
 ! R24   R(13,25)                0.974          estimate D2E/DX2                !
 ! R25   R(14,27)                0.9758         estimate D2E/DX2                !
 ! R26   R(15,26)                0.9627         estimate D2E/DX2                !
 ! R27   R(16,32)                0.9636         estimate D2E/DX2                !
 ! R28   R(17,33)                0.9837         estimate D2E/DX2                !
 ! R29   R(18,31)                0.9638         estimate D2E/DX2                !
 ! R30   R(19,30)                0.9654         estimate D2E/DX2                !
 ! R31   R(20,28)                0.964          estimate D2E/DX2                !
 ! R32   R(21,29)                0.9796         estimate D2E/DX2                !
 ! A1    A(2,1,3)              106.3234         estimate D2E/DX2                !
 ! A2    A(2,1,4)              103.1879         estimate D2E/DX2                !
 ! A3    A(2,1,5)              113.2501         estimate D2E/DX2                !
 ! A4    A(3,1,4)              105.3705         estimate D2E/DX2                !
 ! A5    A(3,1,5)              115.3549         estimate D2E/DX2                !
 ! A6    A(4,1,5)              112.3142         estimate D2E/DX2                !
 ! A7    A(1,2,8)              140.8859         estimate D2E/DX2                !
 ! A8    A(1,3,7)              148.6074         estimate D2E/DX2                !
 ! A9    A(1,4,6)              134.0964         estimate D2E/DX2                !
 ! A10   A(1,5,9)              156.9998         Frozen                          !
 ! A11   A(4,6,16)             110.2282         estimate D2E/DX2                !
 ! A12   A(4,6,17)             109.5909         estimate D2E/DX2                !
 ! A13   A(4,6,18)             111.4884         estimate D2E/DX2                !
 ! A14   A(16,6,17)            114.8371         estimate D2E/DX2                !
 ! A15   A(16,6,18)            107.9112         estimate D2E/DX2                !
 ! A16   A(17,6,18)            102.5719         estimate D2E/DX2                !
 ! A17   A(3,7,19)             103.1918         estimate D2E/DX2                !
 ! A18   A(3,7,20)             114.1832         estimate D2E/DX2                !
 ! A19   A(3,7,21)             112.1241         estimate D2E/DX2                !
 ! A20   A(19,7,20)            106.4451         estimate D2E/DX2                !
 ! A21   A(19,7,21)            112.8144         estimate D2E/DX2                !
 ! A22   A(20,7,21)            107.9884         estimate D2E/DX2                !
 ! A23   A(2,8,13)             109.2843         estimate D2E/DX2                !
 ! A24   A(2,8,14)             108.0427         estimate D2E/DX2                !
 ! A25   A(2,8,15)             111.2146         estimate D2E/DX2                !
 ! A26   A(13,8,14)            112.1704         estimate D2E/DX2                !
 ! A27   A(13,8,15)            111.2482         estimate D2E/DX2                !
 ! A28   A(14,8,15)            104.7916         estimate D2E/DX2                !
 ! A29   A(5,9,10)             114.1132         estimate D2E/DX2                !
 ! A30   A(5,9,11)             110.2427         estimate D2E/DX2                !
 ! A31   A(5,9,12)             104.7702         estimate D2E/DX2                !
 ! A32   A(10,9,11)            105.325          estimate D2E/DX2                !
 ! A33   A(10,9,12)            108.24           estimate D2E/DX2                !
 ! A34   A(11,9,12)            114.3799         estimate D2E/DX2                !
 ! A35   A(9,10,23)            116.0377         estimate D2E/DX2                !
 ! A36   A(9,11,24)            117.2885         estimate D2E/DX2                !
 ! A37   A(9,12,22)            116.9341         estimate D2E/DX2                !
 ! A38   A(8,13,25)            116.5961         estimate D2E/DX2                !
 ! A39   A(8,14,27)            113.5263         estimate D2E/DX2                !
 ! A40   A(8,15,26)            117.3612         estimate D2E/DX2                !
 ! A41   A(6,16,32)            116.5984         estimate D2E/DX2                !
 ! A42   A(6,17,33)            117.1373         estimate D2E/DX2                !
 ! A43   A(6,18,31)            116.3135         estimate D2E/DX2                !
 ! A44   A(7,19,30)            115.0881         estimate D2E/DX2                !
 ! A45   A(7,20,28)            116.018          estimate D2E/DX2                !
 ! A46   A(7,21,29)            116.1544         estimate D2E/DX2                !
 ! D1    D(3,1,2,8)             54.013          estimate D2E/DX2                !
 ! D2    D(4,1,2,8)            -56.615          estimate D2E/DX2                !
 ! D3    D(5,1,2,8)           -178.2908         estimate D2E/DX2                !
 ! D4    D(2,1,3,7)            -51.1331         estimate D2E/DX2                !
 ! D5    D(4,1,3,7)             57.9568         estimate D2E/DX2                !
 ! D6    D(5,1,3,7)           -177.5709         estimate D2E/DX2                !
 ! D7    D(2,1,4,6)             41.2968         estimate D2E/DX2                !
 ! D8    D(3,1,4,6)            -70.0365         estimate D2E/DX2                !
 ! D9    D(5,1,4,6)            163.602          estimate D2E/DX2                !
 ! D10   D(2,1,5,9)            -89.6364         estimate D2E/DX2                !
 ! D11   D(3,1,5,9)             33.1903         estimate D2E/DX2                !
 ! D12   D(4,1,5,9)            153.9569         estimate D2E/DX2                !
 ! D13   D(1,2,8,13)            98.0767         estimate D2E/DX2                !
 ! D14   D(1,2,8,14)           -24.2296         estimate D2E/DX2                !
 ! D15   D(1,2,8,15)          -138.7156         estimate D2E/DX2                !
 ! D16   D(1,3,7,19)           -58.6416         estimate D2E/DX2                !
 ! D17   D(1,3,7,20)          -173.7291         estimate D2E/DX2                !
 ! D18   D(1,3,7,21)            63.0404         estimate D2E/DX2                !
 ! D19   D(1,4,6,16)           161.8736         estimate D2E/DX2                !
 ! D20   D(1,4,6,17)            34.551          estimate D2E/DX2                !
 ! D21   D(1,4,6,18)           -78.3045         estimate D2E/DX2                !
 ! D22   D(1,5,9,10)           -93.0137         estimate D2E/DX2                !
 ! D23   D(1,5,9,11)           148.7125         estimate D2E/DX2                !
 ! D24   D(1,5,9,12)            25.1929         estimate D2E/DX2                !
 ! D25   D(4,6,16,32)          -13.7229         estimate D2E/DX2                !
 ! D26   D(17,6,16,32)         110.6319         estimate D2E/DX2                !
 ! D27   D(18,6,16,32)        -135.686          estimate D2E/DX2                !
 ! D28   D(4,6,17,33)           49.7998         estimate D2E/DX2                !
 ! D29   D(16,6,17,33)         -74.8906         estimate D2E/DX2                !
 ! D30   D(18,6,17,33)         168.3378         estimate D2E/DX2                !
 ! D31   D(4,6,18,31)         -102.9126         estimate D2E/DX2                !
 ! D32   D(16,6,18,31)          18.2691         estimate D2E/DX2                !
 ! D33   D(17,6,18,31)         139.8941         estimate D2E/DX2                !
 ! D34   D(3,7,19,30)         -162.9704         estimate D2E/DX2                !
 ! D35   D(20,7,19,30)         -42.4468         estimate D2E/DX2                !
 ! D36   D(21,7,19,30)          75.8144         estimate D2E/DX2                !
 ! D37   D(3,7,20,28)         -100.1112         estimate D2E/DX2                !
 ! D38   D(19,7,20,28)         146.7232         estimate D2E/DX2                !
 ! D39   D(21,7,20,28)          25.3303         estimate D2E/DX2                !
 ! D40   D(3,7,21,29)          -50.5298         estimate D2E/DX2                !
 ! D41   D(19,7,21,29)          65.4642         estimate D2E/DX2                !
 ! D42   D(20,7,21,29)        -177.1813         estimate D2E/DX2                !
 ! D43   D(2,8,13,25)          -54.0971         estimate D2E/DX2                !
 ! D44   D(14,8,13,25)          65.6987         estimate D2E/DX2                !
 ! D45   D(15,8,13,25)        -177.2849         estimate D2E/DX2                !
 ! D46   D(2,8,14,27)           81.1206         estimate D2E/DX2                !
 ! D47   D(13,8,14,27)         -39.3971         estimate D2E/DX2                !
 ! D48   D(15,8,14,27)        -160.2179         estimate D2E/DX2                !
 ! D49   D(2,8,15,26)          -54.9076         estimate D2E/DX2                !
 ! D50   D(13,8,15,26)          67.168          estimate D2E/DX2                !
 ! D51   D(14,8,15,26)        -171.403          estimate D2E/DX2                !
 ! D52   D(5,9,10,23)          -94.3728         estimate D2E/DX2                !
 ! D53   D(11,9,10,23)          26.6721         estimate D2E/DX2                !
 ! D54   D(12,9,10,23)         149.421          estimate D2E/DX2                !
 ! D55   D(5,9,11,24)          -42.1585         estimate D2E/DX2                !
 ! D56   D(10,9,11,24)        -165.7005         estimate D2E/DX2                !
 ! D57   D(12,9,11,24)          75.5812         estimate D2E/DX2                !
 ! D58   D(5,9,12,22)         -165.3208         estimate D2E/DX2                !
 ! D59   D(10,9,12,22)         -43.1975         estimate D2E/DX2                !
 ! D60   D(11,9,12,22)          73.8593         estimate D2E/DX2                !
 --------------------------------------------------------------------------------
 Trust Radius=3.00D-01 FncErr=1.00D-07 GrdErr=1.00D-06 EigMax=2.50D+02 EigMin=1.00D-04
 Number of steps in this run=    148 maximum allowed number of steps=    198.
 GradGradGradGradGradGradGradGradGradGradGradGradGradGradGradGradGradGrad

                          Input orientation:                          
 ---------------------------------------------------------------------
 Center     Atomic      Atomic             Coordinates (Angstroms)
 Number     Number       Type             X           Y           Z
 ---------------------------------------------------------------------
      1         40           0        0.646460   -0.190130   -0.151900
      2          8           0       -0.192120   -0.931310    1.439390
      3          8           0        0.172630    1.703950   -0.190400
      4          8           0       -0.377720   -1.016920   -1.628440
      5          8           0        2.567800   -0.578830   -0.268120
      6         14           0       -1.969240   -1.332160   -1.878290
      7         14           0       -0.989580    2.856810   -0.118090
      8         14           0       -1.674760   -1.051520    2.177060
      9         14           0        4.169850   -0.339830   -0.034970
     10          8           0        4.920830    0.450950   -1.273570
     11          8           0        4.953630   -1.794290    0.095260
     12          8           0        4.262180    0.607450    1.314440
     13          8           0       -2.335740   -2.512450    1.830040
     14          8           0       -2.620900    0.209280    1.641490
     15          8           0       -1.552000   -0.824320    3.796500
     16          8           0       -2.254270   -1.591640   -3.481830
     17          8           0       -2.883710   -0.139120   -1.195570
     18          8           0       -2.460270   -2.685980   -1.045790
     19          8           0       -2.008250    2.456050   -1.396700
     20          8           0       -0.446230    4.381420   -0.415550
     21          8           0       -1.758350    2.867150    1.326420
     22          1           0        5.107270    1.036000    1.489930
     23          1           0        5.339030   -0.106370   -1.939560
     24          1           0        4.527340   -2.480300    0.620520
     25          1           0       -2.407380   -2.745750    0.887120
     26          1           0       -0.933910   -1.385130    4.276380
     27          1           0       -3.029280    0.047050    0.770240
     28          1           0       -0.290290    4.933460    0.359240
     29          1           0       -2.094890    2.003210    1.642660
     30          1           0       -2.608600    3.158070   -1.677300
     31          1           0       -2.566020   -3.491430   -1.564360
     32          1           0       -1.552780   -1.337140   -4.091410
     33          1           0       -2.640460    0.789950   -1.408290
 ---------------------------------------------------------------------
                    Distance matrix (angstroms):
                    1          2          3          4          5
     1  Zr   0.000000
     2  O    1.945448   0.000000
     3  O    1.952828   3.119912   0.000000
     4  O    1.978054   3.074631   3.126336   0.000000
     5  O    1.963706   3.264505   3.309677   3.273909   0.000000
     6  Si   3.335647   3.784949   4.080998   1.641565   4.872872
     7  Si   3.458557   4.172714   1.638611   4.202537   4.947836
     8  Si   3.399134   1.660370   4.075577   4.020614   4.919518
     9  Si   3.528507   4.642237   4.492100   4.866004   1.636473
    10  O    4.465352   5.950887   5.028784   5.509556   2.758283
    11  O    4.602839   5.387965   5.931041   5.656743   2.702142
    12  O    3.982426   4.714253   4.493470   5.729554   2.604358
    13  O    4.267877   2.692159   5.305858   4.246356   5.673259
    14  O    3.748522   2.690866   3.659736   4.150646   5.584831
    15  O    4.563473   2.723360   5.026119   5.553918   5.792595
    16  O    4.633238   5.376514   5.252073   2.699407   5.882693
    17  O    3.681569   3.849056   3.707895   2.690334   5.547294
    18  O    4.084125   3.794666   5.189927   2.731713   5.506936
    19  O    3.949592   4.776604   2.603277   3.843677   5.605749
    20  O    4.707712   5.632981   2.757268   5.533342   5.806048
    21  O    4.161190   4.110248   2.717068   5.071818   5.756119
    22  H    4.908954   5.652999   5.255505   6.635045   3.485301
    23  H    5.022246   6.533869   5.747043   5.797165   3.270573
    24  H    4.571952   5.034205   6.093360   5.590967   2.871422
    25  H    4.115422   2.916260   5.255219   3.665572   5.548201
    26  H    4.851315   2.967274   5.542470   5.942375   5.793494
    27  H    3.797060   3.074805   3.731002   3.730478   5.726886
    28  H    5.233540   5.964217   3.308494   6.274196   6.240801
    29  H    3.942865   3.503321   2.931094   4.771787   5.662039
    30  H    4.912505   5.681211   3.472834   4.733894   6.537991
    31  H    4.818055   4.605663   6.031579   3.303931   6.043144
    32  H    4.655322   5.710153   5.238621   2.747640   5.672016
    33  H    3.652796   4.131148   3.198770   2.904004   5.504500
                    6          7          8          9         10
     6  Si   0.000000
     7  Si   4.648172   0.000000
     8  Si   4.075701   4.583910   0.000000
     9  Si   6.486214   6.070019   6.289598   0.000000
    10  O    7.142705   6.485078   7.593818   1.650283   0.000000
    11  O    7.213501   7.549834   6.987214   1.657325   2.629805
    12  O    7.265412   5.890055   6.224432   1.651294   2.675090
    13  O    3.908851   5.868246   1.640620   7.107830   8.430418
    14  O    3.897377   3.573058   1.664822   7.016147   8.089108
    15  O    5.712725   5.402874   1.639901   6.903221   8.320424
    16  O    1.649216   5.718645   5.714070   7.397107   7.780144
    17  O    1.650971   3.704631   3.697116   7.151223   7.827203
    18  O    1.663429   5.809137   3.698006   7.105256   8.023269
    19  O    3.818898   1.683194   5.018568   6.916659   7.214412
    20  O    6.091319   1.645645   6.143920   6.613867   6.707468
    21  O    5.286667   1.636375   4.010804   6.876166   7.563691
    22  H    8.187190   6.562976   7.129223   2.257650   2.830897
    23  H    7.410609   7.221461   8.187376   2.246987   0.963867
    24  H    7.054632   7.711465   6.552120   2.266953   3.512070
    25  H    3.136510   5.865943   2.251909   7.063898   8.281916
    26  H    6.241368   6.108070   2.251066   6.762304   8.273519
    27  H    3.168693   3.583889   2.240697   7.254344   8.218549
    28  H    6.861735   2.242616   6.406342   6.917791   7.065036
    29  H    4.851553   2.247350   3.129452   6.895741   7.754627
    30  H    4.539972   2.267845   5.783493   7.802560   8.011480
    31  H    2.262111   6.699031   4.554748   7.592336   8.466395
    32  H    2.251969   5.804626   6.276159   7.085042   7.283208
    33  H    2.274816   2.943116   4.144674   7.038660   7.570084
                   11         12         13         14         15
    11  O    0.000000
    12  O    2.780802   0.000000
    13  O    7.527292   7.316568   0.000000
    14  O    7.986152   6.902340   2.743115   0.000000
    15  O    7.547400   6.481919   2.707581   2.618195   0.000000
    16  O    8.049252   8.384767   5.391706   5.442990   7.352282
    17  O    8.113552   7.610602   3.884235   2.870429   5.211882
    18  O    7.554007   7.849121   2.883751   3.953455   5.266736
    19  O    8.292111   7.077139   5.933388   3.828043   6.159409
    20  O    8.219417   6.277327   7.492554   5.134915   6.787033
    21  O    8.264106   6.430643   5.433885   2.812034   4.446440
    22  H    3.158995   0.963654   8.252610   7.773741   7.288822
    23  H    2.671722   3.501094   8.882635   8.734073   8.994672
    24  H    0.963447   3.175852   6.968920   7.705424   7.056025
    25  H    7.464368   7.477271   0.973991   3.057265   3.589994
    26  H    7.232724   6.304190   3.036537   3.511513   0.962719
    27  H    8.220279   7.333184   2.855734   0.975792   3.478490
    28  H    8.534108   6.352303   7.860578   5.421604   6.823394
    29  H    8.154575   6.516764   4.525959   1.869458   3.595648
    30  H    9.211686   7.916046   6.673131   4.439581   6.851155
    31  H    7.885414   8.468331   3.540252   4.896503   6.072934
    32  H    7.750520   8.174253   6.087524   6.033112   7.904563
    33  H    8.161444   7.422466   4.635243   3.104629   5.557018
                   16         17         18         19         20
    16  O    0.000000
    17  O    2.780826   0.000000
    18  O    2.678490   2.586162   0.000000
    19  O    4.559834   2.746232   5.173774   0.000000
    20  O    6.953311   5.194711   7.375751   2.666385   0.000000
    21  O    6.576170   4.082221   6.079254   2.765291   2.655020
    22  H    9.263647   8.511673   8.806286   7.808956   6.757518
    23  H    7.889412   8.256394   8.263310   7.800206   7.478777
    24  H    7.975539   7.981414   7.186486   8.435085   8.537742
    25  H    4.521409   3.370313   1.934557   5.695073   7.505972
    26  H    7.872472   5.941086   5.687484   6.934891   7.450177
    27  H    4.622342   1.979964   3.330344   3.397265   5.183147
    28  H    7.822274   5.905449   8.046042   3.488878   0.964036
    29  H    6.261689   3.642439   5.417543   3.074131   3.551083
    30  H    5.093292   3.343533   5.879943   0.965396   2.786475
    31  H    2.717183   3.387464   0.963767   5.975930   8.233774
    32  H    0.963559   3.404778   3.452348   4.675169   6.887549
    33  H    3.181302   0.983662   3.499423   1.782053   4.324215
                   21         22         23         24         25
    21  O    0.000000
    22  H    7.107502   0.000000
    23  H    8.359501   3.622171   0.000000
    24  H    8.282718   3.668318   3.584466   0.000000
    25  H    5.667351   8.434155   8.658136   6.944918   0.000000
    26  H    5.240596   7.079691   8.923167   6.662579   3.938208
    27  H    3.142859   8.227966   8.797452   7.969468   2.863591
    28  H    2.712983   6.752948   7.897697   8.845432   7.983169
    29  H    0.979622   7.268420   8.517382   8.062293   4.818829
    30  H    3.135266   8.606345   8.595939   9.380449   6.439863
    31  H    7.031392   9.418370   8.607510   7.490784   2.567286
    32  H    6.860845   9.007742   7.324090   7.776693   5.244071
    33  H    3.545633   8.275720   8.047229   8.135598   4.221896
                   26         27         28         29         30
    26  H    0.000000
    27  H    4.328364   0.000000
    28  H    7.462092   5.616760   0.000000
    29  H    4.445807   2.336828   3.672889   0.000000
    30  H    7.674084   3.980687   3.560065   3.552426   0.000000
    31  H    6.419854   4.264482   8.936328   6.379499   6.650595
    32  H    8.390781   5.266087   7.792470   6.658181   5.210527
    33  H    6.321294   2.334325   5.080958   3.328354   2.383563
                   31         32         33
    31  H    0.000000
    32  H    3.471830   0.000000
    33  H    4.284870   3.592589   0.000000
 Stoichiometry    H12O16Si4Zr
 Framework group  C1[X(H12O16Si4Zr)]
 Deg. of freedom    93
 Full point group                 C1      NOp   1
 Largest Abelian subgroup         C1      NOp   1
 Largest concise Abelian subgroup C1      NOp   1
                         Standard orientation:                         
 ---------------------------------------------------------------------
 Center     Atomic      Atomic             Coordinates (Angstroms)
 Number     Number       Type             X           Y           Z
 ---------------------------------------------------------------------
      1         40           0        0.646747   -0.186146   -0.149604
      2          8           0       -0.191820   -0.928555    1.441119
      3          8           0        0.167221    1.706453   -0.190345
      4          8           0       -0.372835   -1.017264   -1.626897
      5          8           0        2.569421   -0.569102   -0.262798
      6         14           0       -1.963036   -1.337545   -1.878724
      7         14           0       -0.998586    2.855836   -0.120628
      8         14           0       -1.675127   -1.052659    2.176802
      9         14           0        4.170407   -0.325043   -0.027592
     10          8           0        4.920727    0.466991   -1.265791
     11          8           0        4.958417   -1.777006    0.104949
     12          8           0        4.257957    0.623629    1.321159
     13          8           0       -2.331177   -2.515877    1.830066
     14          8           0       -2.624336    0.204817    1.638854
     15          8           0       -1.555340   -0.823749    3.796224
     16          8           0       -2.245016   -1.599215   -3.482447
     17          8           0       -2.882087   -0.146725   -1.198283
     18          8           0       -2.451125   -2.692162   -1.045791
     19          8           0       -2.014231    2.450926   -1.400337
     20          8           0       -0.459450    4.381844   -0.418590
     21          8           0       -1.769419    2.865034    1.322789
     22          1           0        5.101493    1.054890    1.497482
     23          1           0        5.341556   -0.089606   -1.930729
     24          1           0        4.533472   -2.463874    0.630178
     25          1           0       -2.400778   -2.750173    0.887241
     26          1           0       -0.936227   -1.382281    4.277439
     27          1           0       -3.030993    0.040627    0.767165
     28          1           0       -0.306280    4.934995    0.355959
     29          1           0       -2.103779    2.000337    1.639273
     30          1           0       -2.616314    3.150886   -1.682365
     31          1           0       -2.553697   -3.498358   -1.563840
     32          1           0       -1.543444   -1.343089   -4.091251
     33          1           0       -2.641360    0.782904   -1.411432
 ---------------------------------------------------------------------
 Rotational constants (GHZ):           0.2129019           0.1350553           0.1253226
 General basis read from cards:  (5D, 7F)
 ======================================================================================================
                                       Pseudopotential Parameters
 ======================================================================================================
  Center     Atomic      Valence      Angular      Power
  Number     Number     Electrons     Momentum     of R      Exponent        Coefficient   SO-Coeffient
 ======================================================================================================
    1         40           12
                                      G and up 
                                                     2        1.0000000        0.00000000    0.00000000
                                      S - G
                                                     2        8.6365280      150.24299400    0.00000000
                                                     2        3.7176390       18.78003600    0.00000000
                                      P - G
                                                     2        7.6267280       33.19279100    0.00000000
                                                     2        7.4532070       66.38903900    0.00000000
                                                     2        3.3583890        4.62072600    0.00000000
                                                     2        3.2297380        9.26027000    0.00000000
                                      D - G
                                                     2        5.9380860       13.99338300    0.00000000
                                                     2        5.8255440       20.99588200    0.00000000
                                                     2        2.2050190        2.28516600    0.00000000
                                                     2        2.2062920        3.44126000    0.00000000
                                      F - G
                                                     2        4.8002150       -5.23932000    0.00000000
                                                     2        4.7989920       -6.98742400    0.00000000
    2          8
                                   No pseudopotential on this center.
    3          8
                                   No pseudopotential on this center.
    4          8
                                   No pseudopotential on this center.
    5          8
                                   No pseudopotential on this center.
    6         14
                                   No pseudopotential on this center.
    7         14
                                   No pseudopotential on this center.
    8         14
                                   No pseudopotential on this center.
    9         14
                                   No pseudopotential on this center.
   10          8
                                   No pseudopotential on this center.
   11          8
                                   No pseudopotential on this center.
   12          8
                                   No pseudopotential on this center.
   13          8
                                   No pseudopotential on this center.
   14          8
                                   No pseudopotential on this center.
   15          8
                                   No pseudopotential on this center.
   16          8
                                   No pseudopotential on this center.
   17          8
                                   No pseudopotential on this center.
   18          8
                                   No pseudopotential on this center.
   19          8
                                   No pseudopotential on this center.
   20          8
                                   No pseudopotential on this center.
   21          8
                                   No pseudopotential on this center.
   22          1
                                   No pseudopotential on this center.
   23          1
                                   No pseudopotential on this center.
   24          1
                                   No pseudopotential on this center.
   25          1
                                   No pseudopotential on this center.
   26          1
                                   No pseudopotential on this center.
   27          1
                                   No pseudopotential on this center.
   28          1
                                   No pseudopotential on this center.
   29          1
                                   No pseudopotential on this center.
   30          1
                                   No pseudopotential on this center.
   31          1
                                   No pseudopotential on this center.
   32          1
                                   No pseudopotential on this center.
   33          1
                                   No pseudopotential on this center.
 ======================================================================================================
 There are   570 symmetry adapted cartesian basis functions of A   symmetry.
 There are   524 symmetry adapted basis functions of A   symmetry.
   524 basis functions,  1074 primitive gaussians,   570 cartesian basis functions
   104 alpha electrons      104 beta electrons
       nuclear repulsion energy      2837.8489724249 Hartrees.
 NAtoms=   33 NActive=   33 NUniq=   33 SFac= 1.00D+00 NAtFMM=   60 NAOKFM=F Big=F
 Integral buffers will be    131072 words long.
 Raffenetti 2 integral format.
 Two-electron integral symmetry is turned on.
 Nuclear repulsion after empirical dispersion term =     2837.8080775545 Hartrees.
 One-electron integrals computed using PRISM.
 PrsmSu:  requested number of processors reduced to:   4 ShMem   1 Linda.
   1 Symmetry operations used in ECPInt.
 ECPInt:  NShTT=   13203 NPrTT=   78401 LenC2=   11535 LenP2D=   44741.
 LDataN:  DoStor=T MaxTD1= 8 Len=  415
 Number of processors reduced to  13 by ecpmxn.
 NBasis=   524 RedAO= T EigKep=  3.15D-05  NBF=   524
 NBsUse=   524 1.00D-06 EigRej= -1.00D+00 NBFU=   524
 Defaulting to unpruned grid for atomic number  40.
 ExpMin= 1.01D-02 ExpMax= 1.61D+04 ExpMxC= 2.43D+03 IAcc=3 IRadAn=         5 AccDes= 0.00D+00
 Harris functional with IExCor=  402 and IRadAn=       5 diagonalized for initial guess.
 HarFok:  IExCor=  402 AccDes= 0.00D+00 IRadAn=         5 IDoV= 1 UseB2=F ITyADJ=14
 ICtDFT=  3500011 ScaDFX=  1.000000  1.000000  1.000000  1.000000
 Defaulting to unpruned grid for atomic number  40.
 FoFCou: FMM=F IPFlag=           0 FMFlag=      100000 FMFlg1=           0
         NFxFlg=           0 DoJE=T BraDBF=F KetDBF=T FulRan=T
         wScrn=  0.000000 ICntrl=       500 IOpCl=  0 I1Cent=   200000004 NGrid=           0
         NMat0=    1 NMatS0=      1 NMatT0=    0 NMatD0=    1 NMtDS0=    0 NMtDT0=    0
 Petite list used in FoFCou.
 Requested convergence on RMS density matrix=1.00D-08 within 128 cycles.
 Requested convergence on MAX density matrix=1.00D-06.
 Requested convergence on             energy=1.00D-06.
 No special actions if energy rises.
 Defaulting to unpruned grid for atomic number  40.
 Defaulting to unpruned grid for atomic number  40.
 Defaulting to unpruned grid for atomic number  40.
 Defaulting to unpruned grid for atomic number  40.
 Defaulting to unpruned grid for atomic number  40.
 Defaulting to unpruned grid for atomic number  40.
 Defaulting to unpruned grid for atomic number  40.
 Defaulting to unpruned grid for atomic number  40.
 Defaulting to unpruned grid for atomic number  40.
 Defaulting to unpruned grid for atomic number  40.
 Defaulting to unpruned grid for atomic number  40.
 Defaulting to unpruned grid for atomic number  40.
 Defaulting to unpruned grid for atomic number  40.
 Defaulting to unpruned grid for atomic number  40.
 Defaulting to unpruned grid for atomic number  40.
 Defaulting to unpruned grid for atomic number  40.
 SCF Done:  E(RB3LYP) =  -2416.94586777     A.U. after   14 cycles
            NFock= 14  Conv=0.35D-08     -V/T= 2.0185

 **********************************************************************

            Population analysis using the SCF Density.

 **********************************************************************

 Orbital symmetries:
       Occupied  (A) (A) (A) (A) (A) (A) (A) (A) (A) (A) (A) (A)
                 (A) (A) (A) (A) (A) (A) (A) (A) (A) (A) (A) (A)
                 (A) (A) (A) (A) (A) (A) (A) (A) (A) (A) (A) (A)
                 (A) (A) (A) (A) (A) (A) (A) (A) (A) (A) (A) (A)
                 (A) (A) (A) (A) (A) (A) (A) (A) (A) (A) (A) (A)
                 (A) (A) (A) (A) (A) (A) (A) (A) (A) (A) (A) (A)
                 (A) (A) (A) (A) (A) (A) (A) (A) (A) (A) (A) (A)
                 (A) (A) (A) (A) (A) (A) (A) (A) (A) (A) (A) (A)
                 (A) (A) (A) (A) (A) (A) (A) (A)
       Virtual   (A) (A) (A) (A) (A) (A) (A) (A) (A) (A) (A) (A)
                 (A) (A) (A) (A) (A) (A) (A) (A) (A) (A) (A) (A)
                 (A) (A) (A) (A) (A) (A) (A) (A) (A) (A) (A) (A)
                 (A) (A) (A) (A) (A) (A) (A) (A) (A) (A) (A) (A)
                 (A) (A) (A) (A) (A) (A) (A) (A) (A) (A) (A) (A)
                 (A) (A) (A) (A) (A) (A) (A) (A) (A) (A) (A) (A)
                 (A) (A) (A) (A) (A) (A) (A) (A) (A) (A) (A) (A)
                 (A) (A) (A) (A) (A) (A) (A) (A) (A) (A) (A) (A)
                 (A) (A) (A) (A) (A) (A) (A) (A) (A) (A) (A) (A)
                 (A) (A) (A) (A) (A) (A) (A) (A) (A) (A) (A) (A)
                 (A) (A) (A) (A) (A) (A) (A) (A) (A) (A) (A) (A)
                 (A) (A) (A) (A) (A) (A) (A) (A) (A) (A) (A) (A)
                 (A) (A) (A) (A) (A) (A) (A) (A) (A) (A) (A) (A)
                 (A) (A) (A) (A) (A) (A) (A) (A) (A) (A) (A) (A)
                 (A) (A) (A) (A) (A) (A) (A) (A) (A) (A) (A) (A)
                 (A) (A) (A) (A) (A) (A) (A) (A) (A) (A) (A) (A)
                 (A) (A) (A) (A) (A) (A) (A) (A) (A) (A) (A) (A)
                 (A) (A) (A) (A) (A) (A) (A) (A) (A) (A) (A) (A)
                 (A) (A) (A) (A) (A) (A) (A) (A) (A) (A) (A) (A)
                 (A) (A) (A) (A) (A) (A) (A) (A) (A) (A) (A) (A)
                 (A) (A) (A) (A) (A) (A) (A) (A) (A) (A) (A) (A)
                 (A) (A) (A) (A) (A) (A) (A) (A) (A) (A) (A) (A)
                 (A) (A) (A) (A) (A) (A) (A) (A) (A) (A) (A) (A)
                 (A) (A) (A) (A) (A) (A) (A) (A) (A) (A) (A) (A)
                 (A) (A) (A) (A) (A) (A) (A) (A) (A) (A) (A) (A)
                 (A) (A) (A) (A) (A) (A) (A) (A) (A) (A) (A) (A)
                 (A) (A) (A) (A) (A) (A) (A) (A) (A) (A) (A) (A)
                 (A) (A) (A) (A) (A) (A) (A) (A) (A) (A) (A) (A)
                 (A) (A) (A) (A) (A) (A) (A) (A) (A) (A) (A) (A)
                 (A) (A) (A) (A) (A) (A) (A) (A) (A) (A) (A) (A)
                 (A) (A) (A) (A) (A) (A) (A) (A) (A) (A) (A) (A)
                 (A) (A) (A) (A) (A) (A) (A) (A) (A) (A) (A) (A)
                 (A) (A) (A) (A) (A) (A) (A) (A) (A) (A) (A) (A)
                 (A) (A) (A) (A) (A) (A) (A) (A) (A) (A) (A) (A)
                 (A) (A) (A) (A) (A) (A) (A) (A) (A) (A) (A) (A)
 The electronic state is 1-A.
 Alpha  occ. eigenvalues --  -66.22775 -66.21722 -66.21651 -66.21003 -19.18514
 Alpha  occ. eigenvalues --  -19.18321 -19.17789 -19.16945 -19.16767 -19.16685
 Alpha  occ. eigenvalues --  -19.16602 -19.16453 -19.16159 -19.15996 -19.15967
 Alpha  occ. eigenvalues --  -19.15518 -19.15443 -19.15271 -19.14842 -19.14599
 Alpha  occ. eigenvalues --   -5.36834  -5.35803  -5.35731  -5.35060  -3.72820
 Alpha  occ. eigenvalues --   -3.72795  -3.72740  -3.71793  -3.71748  -3.71713
 Alpha  occ. eigenvalues --   -3.71697  -3.71691  -3.71654  -3.71042  -3.71022
 Alpha  occ. eigenvalues --   -3.70969  -2.13348  -1.29584  -1.29518  -1.29353
 Alpha  occ. eigenvalues --   -1.05630  -1.04738  -1.04346  -1.03493  -1.02525
 Alpha  occ. eigenvalues --   -1.02123  -1.01429  -1.01152  -1.00942  -1.00673
 Alpha  occ. eigenvalues --   -0.99788  -0.99318  -0.97380  -0.96274  -0.95757
 Alpha  occ. eigenvalues --   -0.95284  -0.60896  -0.59188  -0.59084  -0.58921
 Alpha  occ. eigenvalues --   -0.55548  -0.54496  -0.54062  -0.53205  -0.53071
 Alpha  occ. eigenvalues --   -0.52561  -0.51839  -0.50161  -0.48645  -0.47845
 Alpha  occ. eigenvalues --   -0.47481  -0.47062  -0.43380  -0.42836  -0.41815
 Alpha  occ. eigenvalues --   -0.41481  -0.41228  -0.40555  -0.39824  -0.39438
 Alpha  occ. eigenvalues --   -0.38926  -0.38875  -0.38636  -0.38191  -0.38018
 Alpha  occ. eigenvalues --   -0.37603  -0.37441  -0.37075  -0.36490  -0.36382
 Alpha  occ. eigenvalues --   -0.36188  -0.35813  -0.35436  -0.35261  -0.34933
 Alpha  occ. eigenvalues --   -0.34453  -0.34064  -0.33765  -0.33583  -0.33062
 Alpha  occ. eigenvalues --   -0.32667  -0.32241  -0.31985  -0.31289
 Alpha virt. eigenvalues --   -0.04399  -0.03158  -0.03018  -0.02913  -0.02066
 Alpha virt. eigenvalues --   -0.01350  -0.00559  -0.00212  -0.00044   0.00227
 Alpha virt. eigenvalues --    0.00706   0.00865   0.00955   0.01862   0.02191
 Alpha virt. eigenvalues --    0.02969   0.03292   0.03840   0.03891   0.04133
 Alpha virt. eigenvalues --    0.04332   0.04763   0.05840   0.05962   0.06127
 Alpha virt. eigenvalues --    0.06362   0.07029   0.07572   0.07589   0.08336
 Alpha virt. eigenvalues --    0.08581   0.08797   0.09116   0.09496   0.09780
 Alpha virt. eigenvalues --    0.10354   0.10639   0.10911   0.11104   0.11596
 Alpha virt. eigenvalues --    0.11835   0.12534   0.13166   0.13356   0.13865
 Alpha virt. eigenvalues --    0.14008   0.14103   0.14869   0.15022   0.15245
 Alpha virt. eigenvalues --    0.15497   0.15726   0.16189   0.16575   0.16852
 Alpha virt. eigenvalues --    0.17134   0.17370   0.17662   0.17758   0.18511
 Alpha virt. eigenvalues --    0.18652   0.18822   0.19035   0.19357   0.19664
 Alpha virt. eigenvalues --    0.19808   0.20307   0.20885   0.21203   0.21321
 Alpha virt. eigenvalues --    0.21464   0.21846   0.22261   0.22453   0.23261
 Alpha virt. eigenvalues --    0.23626   0.23932   0.24034   0.24352   0.24645
 Alpha virt. eigenvalues --    0.24935   0.25561   0.25676   0.25937   0.26110
 Alpha virt. eigenvalues --    0.26434   0.26681   0.26808   0.27232   0.27657
 Alpha virt. eigenvalues --    0.27747   0.28407   0.28471   0.28707   0.28849
 Alpha virt. eigenvalues --    0.29546   0.29995   0.30065   0.30543   0.30601
 Alpha virt. eigenvalues --    0.30779   0.31137   0.31354   0.31659   0.32143
 Alpha virt. eigenvalues --    0.32459   0.32783   0.33215   0.33514   0.34139
 Alpha virt. eigenvalues --    0.34307   0.34949   0.35390   0.35849   0.36436
 Alpha virt. eigenvalues --    0.36593   0.37639   0.38539   0.38716   0.39047
 Alpha virt. eigenvalues --    0.39288   0.40218   0.40352   0.40936   0.41254
 Alpha virt. eigenvalues --    0.41479   0.42215   0.43178   0.43915   0.44032
 Alpha virt. eigenvalues --    0.45232   0.45814   0.46365   0.46722   0.47013
 Alpha virt. eigenvalues --    0.47162   0.48434   0.48584   0.49001   0.49540
 Alpha virt. eigenvalues --    0.49954   0.50352   0.51591   0.52241   0.53097
 Alpha virt. eigenvalues --    0.53909   0.54252   0.55520   0.56716   0.57018
 Alpha virt. eigenvalues --    0.57868   0.58376   0.59074   0.60052   0.60172
 Alpha virt. eigenvalues --    0.60729   0.61526   0.61943   0.64617   0.66120
 Alpha virt. eigenvalues --    0.66578   0.67170   0.68234   0.69054   0.69627
 Alpha virt. eigenvalues --    0.70151   0.70864   0.72813   0.73962   0.74890
 Alpha virt. eigenvalues --    0.75355   0.77164   0.78678   0.78698   0.80166
 Alpha virt. eigenvalues --    0.81063   0.81478   0.83211   0.83577   0.85463
 Alpha virt. eigenvalues --    0.86614   0.87832   0.90300   0.90553   0.90991
 Alpha virt. eigenvalues --    0.93696   0.95770   0.96243   0.96763   0.97483
 Alpha virt. eigenvalues --    0.98070   0.98645   0.99060   0.99328   1.00153
 Alpha virt. eigenvalues --    1.00333   1.01150   1.01823   1.03326   1.03563
 Alpha virt. eigenvalues --    1.04504   1.04595   1.05480   1.06757   1.08089
 Alpha virt. eigenvalues --    1.09655   1.12223   1.15258   1.16233   1.16752
 Alpha virt. eigenvalues --    1.18751   1.19087   1.20055   1.20449   1.20832
 Alpha virt. eigenvalues --    1.21608   1.22109   1.22168   1.22475   1.23679
 Alpha virt. eigenvalues --    1.23966   1.24128   1.24250   1.25135   1.25484
 Alpha virt. eigenvalues --    1.25799   1.26574   1.27621   1.27849   1.28637
 Alpha virt. eigenvalues --    1.28804   1.29444   1.30337   1.30538   1.31591
 Alpha virt. eigenvalues --    1.32024   1.32696   1.33655   1.33768   1.34845
 Alpha virt. eigenvalues --    1.35461   1.36364   1.36687   1.37144   1.38532
 Alpha virt. eigenvalues --    1.38826   1.39888   1.40109   1.40617   1.41520
 Alpha virt. eigenvalues --    1.41900   1.42723   1.43841   1.44543   1.45413
 Alpha virt. eigenvalues --    1.47369   1.49562   1.51040   1.52117   1.52653
 Alpha virt. eigenvalues --    1.56705   1.57157   1.58521   1.59415   1.59634
 Alpha virt. eigenvalues --    1.60098   1.60927   1.61088   1.62218   1.62676
 Alpha virt. eigenvalues --    1.63454   1.64311   1.65091   1.66040   1.66320
 Alpha virt. eigenvalues --    1.67426   1.67533   1.68921   1.69700   1.70071
 Alpha virt. eigenvalues --    1.70738   1.71105   1.71530   1.72967   1.73321
 Alpha virt. eigenvalues --    1.74466   1.75287   1.75638   1.76191   1.76377
 Alpha virt. eigenvalues --    1.76824   1.77806   1.78450   1.79641   1.79895
 Alpha virt. eigenvalues --    1.80365   1.81251   1.82226   1.82356   1.82674
 Alpha virt. eigenvalues --    1.83520   1.84280   1.84669   1.85701   1.86096
 Alpha virt. eigenvalues --    1.87310   1.88122   1.88768   1.89960   1.90148
 Alpha virt. eigenvalues --    1.90963   1.91692   1.92394   1.92882   1.93461
 Alpha virt. eigenvalues --    1.94106   1.95390   1.95774   1.97282   1.98014
 Alpha virt. eigenvalues --    1.98681   2.00000   2.00603   2.02785   2.05422
 Alpha virt. eigenvalues --    2.06209   2.07885   2.09122   2.10128   2.10564
 Alpha virt. eigenvalues --    2.11688   2.13442   2.14285   2.15753   2.16127
 Alpha virt. eigenvalues --    2.16482   2.19522   2.19910   2.21650   2.25482
 Alpha virt. eigenvalues --    2.31852   2.32824   2.36320   2.39491   2.40176
 Alpha virt. eigenvalues --    2.40788   2.41452   2.41916   2.43006   2.43406
 Alpha virt. eigenvalues --    2.44031   2.45349   2.46222   2.47895   2.49001
 Alpha virt. eigenvalues --    2.49367   2.50445   2.50825   2.52991   2.53447
 Alpha virt. eigenvalues --    2.54651   2.58069   2.59506   2.60030   2.60832
 Alpha virt. eigenvalues --    2.61083   2.61631   2.61819   2.62281   2.62807
 Alpha virt. eigenvalues --    2.63231   2.63569   2.64948   2.65304   2.65683
 Alpha virt. eigenvalues --    2.66309   2.66635   2.67239   2.67638   2.67926
 Alpha virt. eigenvalues --    2.69400   2.71048   2.71310   2.71886   2.73176
 Alpha virt. eigenvalues --    2.73902   2.75174   2.75915   2.76620   2.78054
 Alpha virt. eigenvalues --    2.79570   2.80373   2.81051   2.83057   2.83420
 Alpha virt. eigenvalues --    2.83869   2.84953   2.86488   2.87672   2.88167
 Alpha virt. eigenvalues --    3.15957   3.22026   3.36916   3.40834   3.46441
 Alpha virt. eigenvalues --    3.47703   3.48639   3.48818   3.48884   3.51767
 Alpha virt. eigenvalues --    3.52766   3.53728   3.59985   3.61198   3.62156
 Alpha virt. eigenvalues --    3.65896   4.39064   4.67497   7.77371  31.23623
          Condensed to atoms (all electrons):
               1          2          3          4          5          6
     1  Zr  15.146756  -0.044461  -0.004375  -0.140612  -0.183702  -0.719449
     2  O   -0.044461   8.853313   0.014414  -0.043908  -0.052111   0.065259
     3  O   -0.004375   0.014414   8.832095   0.016442  -0.047950  -0.003147
     4  O   -0.140612  -0.043908   0.016442   8.821577  -0.063597  -0.709129
     5  O   -0.183702  -0.052111  -0.047950  -0.063597   9.337437  -0.006412
     6  Si  -0.719449   0.065259  -0.003147  -0.709129  -0.006412  14.182344
     7  Si  -0.589866  -0.021201  -0.874020  -0.010613  -0.031474   0.094975
     8  Si  -0.674881  -0.757140  -0.022554   0.070666  -0.011852   0.026673
     9  Si  -0.289926  -0.030158  -0.010688  -0.018851  -1.095498   0.044232
    10  O   -0.033711   0.000743  -0.001588  -0.000258   0.117388  -0.001379
    11  O   -0.107924   0.002237   0.003360   0.002282   0.331359   0.000048
    12  O    0.054184   0.001414   0.005451   0.001613   0.113069  -0.003105
    13  O   -0.003369   0.259412   0.001515  -0.015389  -0.000601   0.028175
    14  O   -0.042199   0.248855  -0.017637  -0.002778   0.000535   0.009433
    15  O   -0.057121   0.256851   0.000278   0.002541   0.000822  -0.005706
    16  O   -0.130226   0.005529  -0.000382   0.349023   0.003397  -0.445593
    17  O   -0.092360  -0.039277   0.010326   0.210519   0.000654  -0.442309
    18  O   -0.027617  -0.019225   0.003665   0.207033  -0.001225  -0.481312
    19  O    0.002568   0.008165   0.274122   0.013063   0.002386  -0.009248
    20  O   -0.136758  -0.000774   0.152199  -0.000610   0.001206   0.010008
    21  O    0.032994   0.010963   0.155509   0.003865   0.000386  -0.014565
    22  H   -0.012244  -0.000003   0.000044  -0.000004   0.006191   0.000120
    23  H   -0.007320  -0.000009  -0.000006  -0.000033  -0.024165   0.000142
    24  H   -0.006350  -0.000061  -0.000004   0.000007  -0.002781   0.000141
    25  H    0.021449  -0.021811  -0.000131  -0.000976  -0.000015   0.000720
    26  H   -0.007674  -0.012598   0.000017  -0.000012  -0.000020   0.000224
    27  H    0.007263  -0.020626   0.000732  -0.001622   0.000035   0.009894
    28  H    0.004448  -0.000011  -0.017988  -0.000013  -0.000010  -0.000278
    29  H   -0.000280  -0.005178  -0.019720  -0.000195  -0.000059   0.000681
    30  H   -0.000324  -0.000009   0.000098  -0.000491  -0.000008  -0.000434
    31  H    0.003455   0.000287  -0.000021  -0.018128  -0.000018   0.060860
    32  H    0.002526  -0.000029   0.000035   0.011216   0.000008   0.019325
    33  H   -0.014610   0.000939  -0.010405  -0.009501  -0.000084   0.052298
               7          8          9         10         11         12
     1  Zr  -0.589866  -0.674881  -0.289926  -0.033711  -0.107924   0.054184
     2  O   -0.021201  -0.757140  -0.030158   0.000743   0.002237   0.001414
     3  O   -0.874020  -0.022554  -0.010688  -0.001588   0.003360   0.005451
     4  O   -0.010613   0.070666  -0.018851  -0.000258   0.002282   0.001613
     5  O   -0.031474  -0.011852  -1.095498   0.117388   0.331359   0.113069
     6  Si   0.094975   0.026673   0.044232  -0.001379   0.000048  -0.003105
     7  Si  13.762325   0.171903   0.020151   0.001474  -0.000811   0.002422
     8  Si   0.171903  13.754463   0.037714  -0.001457   0.001941  -0.002430
     9  Si   0.020151   0.037714  13.925841  -0.020711  -0.186349  -0.173804
    10  O    0.001474  -0.001457  -0.020711   8.514170   0.001569   0.040488
    11  O   -0.000811   0.001941  -0.186349   0.001569   8.557974  -0.053263
    12  O    0.002422  -0.002430  -0.173804   0.040488  -0.053263   8.593947
    13  O    0.003125  -0.145274  -0.000476  -0.000001   0.000015  -0.000021
    14  O    0.017100  -0.493381  -0.000661  -0.000002   0.000005   0.000014
    15  O   -0.003196  -0.382415  -0.000915  -0.000001  -0.000016   0.000022
    16  O    0.003741  -0.009796  -0.001152   0.000006  -0.000010  -0.000001
    17  O   -0.001877   0.098861   0.003134   0.000005   0.000005  -0.000009
    18  O   -0.001657   0.081326   0.003657   0.000004   0.000007   0.000004
    19  O   -0.431587  -0.018132   0.000836   0.000007   0.000000  -0.000070
    20  O   -0.095970   0.009398   0.003261   0.000038  -0.000003  -0.000055
    21  O    0.020113  -0.047454  -0.001588  -0.000002   0.000002   0.000001
    22  H   -0.000018   0.000149   0.048801  -0.005682  -0.004850   0.220815
    23  H    0.000000   0.000053   0.076911   0.231006  -0.005103   0.005520
    24  H    0.000038   0.000187   0.036219   0.007368   0.239841  -0.006848
    25  H   -0.000335   0.053869  -0.000214  -0.000000  -0.000000  -0.000000
    26  H    0.000561   0.063415  -0.000278   0.000000   0.000000  -0.000003
    27  H    0.000794   0.076218   0.000007   0.000000  -0.000000   0.000000
    28  H    0.056566   0.000073  -0.000161  -0.000000  -0.000000  -0.000002
    29  H    0.048297   0.024039  -0.000090   0.000000  -0.000000  -0.000001
    30  H    0.042252   0.000142   0.000009  -0.000000   0.000000   0.000000
    31  H    0.000094  -0.002876  -0.000059   0.000000  -0.000000   0.000000
    32  H   -0.000610   0.000125   0.000001  -0.000000   0.000000  -0.000000
    33  H    0.021540  -0.000073   0.000066  -0.000000   0.000000   0.000000
              13         14         15         16         17         18
     1  Zr  -0.003369  -0.042199  -0.057121  -0.130226  -0.092360  -0.027617
     2  O    0.259412   0.248855   0.256851   0.005529  -0.039277  -0.019225
     3  O    0.001515  -0.017637   0.000278  -0.000382   0.010326   0.003665
     4  O   -0.015389  -0.002778   0.002541   0.349023   0.210519   0.207033
     5  O   -0.000601   0.000535   0.000822   0.003397   0.000654  -0.001225
     6  Si   0.028175   0.009433  -0.005706  -0.445593  -0.442309  -0.481312
     7  Si   0.003125   0.017100  -0.003196   0.003741  -0.001877  -0.001657
     8  Si  -0.145274  -0.493381  -0.382415  -0.009796   0.098861   0.081326
     9  Si  -0.000476  -0.000661  -0.000915  -0.001152   0.003134   0.003657
    10  O   -0.000001  -0.000002  -0.000001   0.000006   0.000005   0.000004
    11  O    0.000015   0.000005  -0.000016  -0.000010   0.000005   0.000007
    12  O   -0.000021   0.000014   0.000022  -0.000001  -0.000009   0.000004
    13  O    8.640420   0.024390  -0.115526   0.003904  -0.028566  -0.042255
    14  O    0.024390   8.810532   0.154966   0.002613  -0.028299  -0.022757
    15  O   -0.115526   0.154966   8.779619  -0.000163   0.003863   0.001144
    16  O    0.003904   0.002613  -0.000163   8.914045  -0.095950  -0.102888
    17  O   -0.028566  -0.028299   0.003863  -0.095950   8.943021   0.223633
    18  O   -0.042255  -0.022757   0.001144  -0.102888   0.223633   9.035415
    19  O    0.000231   0.001807   0.000332  -0.000975  -0.030847   0.000144
    20  O    0.000009  -0.001057   0.000005   0.000049  -0.000796   0.000015
    21  O   -0.000479   0.025791   0.000782  -0.000181  -0.005834   0.000399
    22  H   -0.000000  -0.000000   0.000000  -0.000000   0.000000  -0.000000
    23  H    0.000000   0.000000   0.000000  -0.000000   0.000000   0.000000
    24  H   -0.000000   0.000000   0.000001   0.000000  -0.000000  -0.000000
    25  H    0.216887  -0.009310   0.007490  -0.000255   0.000566   0.015240
    26  H   -0.006669   0.001145   0.225872   0.000000  -0.000021   0.000009
    27  H   -0.004537   0.206769   0.000051   0.000300   0.017842  -0.000802
    28  H    0.000000  -0.000003  -0.000001  -0.000000   0.000003   0.000000
    29  H    0.000779   0.013931  -0.001360  -0.000004  -0.000713  -0.000002
    30  H    0.000001  -0.000003   0.000001   0.000102  -0.000436  -0.000008
    31  H    0.002340   0.000073  -0.000020   0.005100  -0.001212   0.216176
    32  H   -0.000007  -0.000006   0.000000   0.236063  -0.003417   0.003905
    33  H    0.000248   0.001969  -0.000055   0.000204   0.229773   0.002256
              19         20         21         22         23         24
     1  Zr   0.002568  -0.136758   0.032994  -0.012244  -0.007320  -0.006350
     2  O    0.008165  -0.000774   0.010963  -0.000003  -0.000009  -0.000061
     3  O    0.274122   0.152199   0.155509   0.000044  -0.000006  -0.000004
     4  O    0.013063  -0.000610   0.003865  -0.000004  -0.000033   0.000007
     5  O    0.002386   0.001206   0.000386   0.006191  -0.024165  -0.002781
     6  Si  -0.009248   0.010008  -0.014565   0.000120   0.000142   0.000141
     7  Si  -0.431587  -0.095970   0.020113  -0.000018   0.000000   0.000038
     8  Si  -0.018132   0.009398  -0.047454   0.000149   0.000053   0.000187
     9  Si   0.000836   0.003261  -0.001588   0.048801   0.076911   0.036219
    10  O    0.000007   0.000038  -0.000002  -0.005682   0.231006   0.007368
    11  O    0.000000  -0.000003   0.000002  -0.004850  -0.005103   0.239841
    12  O   -0.000070  -0.000055   0.000001   0.220815   0.005520  -0.006848
    13  O    0.000231   0.000009  -0.000479  -0.000000   0.000000  -0.000000
    14  O    0.001807  -0.001057   0.025791  -0.000000   0.000000   0.000000
    15  O    0.000332   0.000005   0.000782   0.000000   0.000000   0.000001
    16  O   -0.000975   0.000049  -0.000181  -0.000000  -0.000000   0.000000
    17  O   -0.030847  -0.000796  -0.005834   0.000000   0.000000  -0.000000
    18  O    0.000144   0.000015   0.000399  -0.000000   0.000000  -0.000000
    19  O    8.885742   0.033049   0.025503  -0.000000   0.000000  -0.000000
    20  O    0.033049   8.653744  -0.055725   0.000000   0.000000  -0.000000
    21  O    0.025503  -0.055725   8.486621  -0.000001   0.000000   0.000000
    22  H   -0.000000   0.000000  -0.000001   0.359005   0.000055   0.000110
    23  H    0.000000   0.000000   0.000000   0.000055   0.350779   0.000020
    24  H   -0.000000  -0.000000   0.000000   0.000110   0.000020   0.368193
    25  H   -0.000034   0.000000  -0.000012   0.000000   0.000000   0.000000
    26  H    0.000000  -0.000000   0.000044  -0.000000   0.000000  -0.000000
    27  H   -0.000228   0.000224  -0.004732  -0.000000  -0.000000   0.000000
    28  H    0.004350   0.228948  -0.001592  -0.000000   0.000000  -0.000000
    29  H   -0.008641   0.008076   0.208338   0.000000  -0.000000  -0.000000
    30  H    0.223266  -0.001497  -0.007308   0.000000  -0.000000  -0.000000
    31  H    0.000002  -0.000000  -0.000000  -0.000000   0.000000   0.000000
    32  H    0.000093   0.000000   0.000001  -0.000000  -0.000000  -0.000000
    33  H    0.013346  -0.000070   0.001394  -0.000000  -0.000000  -0.000000
              25         26         27         28         29         30
     1  Zr   0.021449  -0.007674   0.007263   0.004448  -0.000280  -0.000324
     2  O   -0.021811  -0.012598  -0.020626  -0.000011  -0.005178  -0.000009
     3  O   -0.000131   0.000017   0.000732  -0.017988  -0.019720   0.000098
     4  O   -0.000976  -0.000012  -0.001622  -0.000013  -0.000195  -0.000491
     5  O   -0.000015  -0.000020   0.000035  -0.000010  -0.000059  -0.000008
     6  Si   0.000720   0.000224   0.009894  -0.000278   0.000681  -0.000434
     7  Si  -0.000335   0.000561   0.000794   0.056566   0.048297   0.042252
     8  Si   0.053869   0.063415   0.076218   0.000073   0.024039   0.000142
     9  Si  -0.000214  -0.000278   0.000007  -0.000161  -0.000090   0.000009
    10  O   -0.000000   0.000000   0.000000  -0.000000   0.000000  -0.000000
    11  O   -0.000000   0.000000  -0.000000  -0.000000  -0.000000   0.000000
    12  O   -0.000000  -0.000003   0.000000  -0.000002  -0.000001   0.000000
    13  O    0.216887  -0.006669  -0.004537   0.000000   0.000779   0.000001
    14  O   -0.009310   0.001145   0.206769  -0.000003   0.013931  -0.000003
    15  O    0.007490   0.225872   0.000051  -0.000001  -0.001360   0.000001
    16  O   -0.000255   0.000000   0.000300  -0.000000  -0.000004   0.000102
    17  O    0.000566  -0.000021   0.017842   0.000003  -0.000713  -0.000436
    18  O    0.015240   0.000009  -0.000802   0.000000  -0.000002  -0.000008
    19  O   -0.000034   0.000000  -0.000228   0.004350  -0.008641   0.223266
    20  O    0.000000  -0.000000   0.000224   0.228948   0.008076  -0.001497
    21  O   -0.000012   0.000044  -0.004732  -0.001592   0.208338  -0.007308
    22  H    0.000000  -0.000000  -0.000000  -0.000000   0.000000   0.000000
    23  H    0.000000   0.000000  -0.000000   0.000000  -0.000000  -0.000000
    24  H    0.000000  -0.000000   0.000000  -0.000000  -0.000000  -0.000000
    25  H    0.301510  -0.000031   0.000030   0.000000   0.000001   0.000000
    26  H   -0.000031   0.369308  -0.000036   0.000000   0.000018  -0.000000
    27  H    0.000030  -0.000036   0.284813  -0.000000  -0.000992   0.000006
    28  H    0.000000   0.000000  -0.000000   0.349212  -0.000017  -0.000011
    29  H    0.000001   0.000018  -0.000992  -0.000017   0.286031   0.000167
    30  H    0.000000  -0.000000   0.000006  -0.000011   0.000167   0.334542
    31  H   -0.000193   0.000000   0.000014   0.000000   0.000000  -0.000000
    32  H   -0.000001  -0.000000  -0.000000   0.000000  -0.000000  -0.000000
    33  H    0.000005   0.000000  -0.002455  -0.000002   0.000127  -0.001048
              31         32         33
     1  Zr   0.003455   0.002526  -0.014610
     2  O    0.000287  -0.000029   0.000939
     3  O   -0.000021   0.000035  -0.010405
     4  O   -0.018128   0.011216  -0.009501
     5  O   -0.000018   0.000008  -0.000084
     6  Si   0.060860   0.019325   0.052298
     7  Si   0.000094  -0.000610   0.021540
     8  Si  -0.002876   0.000125  -0.000073
     9  Si  -0.000059   0.000001   0.000066
    10  O    0.000000  -0.000000  -0.000000
    11  O   -0.000000   0.000000   0.000000
    12  O    0.000000  -0.000000   0.000000
    13  O    0.002340  -0.000007   0.000248
    14  O    0.000073  -0.000006   0.001969
    15  O   -0.000020   0.000000  -0.000055
    16  O    0.005100   0.236063   0.000204
    17  O   -0.001212  -0.003417   0.229773
    18  O    0.216176   0.003905   0.002256
    19  O    0.000002   0.000093   0.013346
    20  O   -0.000000   0.000000  -0.000070
    21  O   -0.000000   0.000001   0.001394
    22  H   -0.000000  -0.000000  -0.000000
    23  H    0.000000  -0.000000  -0.000000
    24  H    0.000000  -0.000000  -0.000000
    25  H   -0.000193  -0.000001   0.000005
    26  H    0.000000  -0.000000   0.000000
    27  H    0.000014  -0.000000  -0.002455
    28  H    0.000000   0.000000  -0.000002
    29  H    0.000000  -0.000000   0.000127
    30  H   -0.000000  -0.000000  -0.001048
    31  H    0.327412  -0.000010  -0.000036
    32  H   -0.000010   0.349058   0.000146
    33  H   -0.000036   0.000146   0.270987
 Mulliken charges:
               1
     1  Zr   0.051718
     2  O   -0.659791
     3  O   -0.439684
     4  O   -0.673126
     5  O   -0.393290
     6  Si   2.236514
     7  Si   1.795764
     8  Si   2.098499
     9  Si   1.630739
    10  O   -0.849476
    11  O   -0.782318
    12  O   -0.799351
    13  O   -0.818281
    14  O   -0.901834
    15  O   -0.868145
    16  O   -0.736499
    17  O   -0.970281
    18  O   -1.094283
    19  O   -0.989246
    20  O   -0.806912
    21  O   -0.833234
    22  H    0.387509
    23  H    0.372148
    24  H    0.363918
    25  H    0.415551
    26  H    0.366731
    27  H    0.431037
    28  H    0.376490
    29  H    0.446767
    30  H    0.410991
    31  H    0.406762
    32  H    0.381577
    33  H    0.443039
 Sum of Mulliken charges =  -0.00000
 Mulliken charges with hydrogens summed into heavy atoms:
               1
     1  Zr   0.051718
     2  O   -0.659791
     3  O   -0.439684
     4  O   -0.673126
     5  O   -0.393290
     6  Si   2.236514
     7  Si   1.795764
     8  Si   2.098499
     9  Si   1.630739
    10  O   -0.477327
    11  O   -0.418400
    12  O   -0.411842
    13  O   -0.402730
    14  O   -0.470798
    15  O   -0.501414
    16  O   -0.354921
    17  O   -0.527243
    18  O   -0.687521
    19  O   -0.578256
    20  O   -0.430422
    21  O   -0.386467
 Electronic spatial extent (au):  <R**2>=           9789.7460
 Charge=             -0.0000 electrons
 Dipole moment (field-independent basis, Debye):
    X=              2.9899    Y=             -1.4873    Z=             -3.0463  Tot=              4.5201
 Quadrupole moment (field-independent basis, Debye-Ang):
   XX=           -166.9054   YY=           -151.8933   ZZ=           -158.6722
   XY=             -6.5453   XZ=             13.1201   YZ=              2.7039
 Traceless Quadrupole moment (field-independent basis, Debye-Ang):
   XX=             -7.7485   YY=              7.2636   ZZ=              0.4848
   XY=             -6.5453   XZ=             13.1201   YZ=              2.7039
 Octapole moment (field-independent basis, Debye-Ang**2):
  XXX=             85.9840  YYY=             -6.8454  ZZZ=            -40.1731  XYY=             -5.9951
  XXY=             26.4412  XXZ=            -21.1940  XZZ=             62.7865  YZZ=            -24.7560
  YYZ=             -2.1679  XYZ=             11.8576
 Hexadecapole moment (field-independent basis, Debye-Ang**3):
 XXXX=          -6066.2291 YYYY=          -2760.9139 ZZZZ=          -2260.1505 XXXY=             22.0854
 XXXZ=             84.7980 YYYX=            -15.6038 YYYZ=            170.6748 ZZZX=             33.3726
 ZZZY=            -86.3405 XXYY=          -1493.6681 XXZZ=          -1468.5642 YYZZ=           -924.5728
 XXYZ=             23.4186 YYXZ=            188.5636 ZZXY=            -65.2665
 N-N= 2.837808077554D+03 E-N=-1.138818708856D+04  KE= 2.373153952094D+03
 PrsmSu:  requested number of processors reduced to:   2 ShMem   1 Linda.
 PrsmSu:  requested number of processors reduced to:  10 ShMem   1 Linda.
   1 Symmetry operations used in ECPInt.
 ECPInt:  NShTT=   13203 NPrTT=   78401 LenC2=   11535 LenP2D=   44741.
 LDataN:  DoStor=T MaxTD1= 9 Len=  602
 Number of processors reduced to  14 by ecpmxn.
 Calling FoFJK, ICntrl=      2127 FMM=F ISym2X=0 I1Cent= 0 IOpClX= 0 NMat=1 NMatS=1 NMatT=0.
 CoulSu:  requested number of processors reduced to:  10 ShMem   1 Linda.
 Defaulting to unpruned grid for atomic number  40.
 Defaulting to unpruned grid for atomic number  40.
 Defaulting to unpruned grid for atomic number  40.
 Defaulting to unpruned grid for atomic number  40.
 Defaulting to unpruned grid for atomic number  40.
 Defaulting to unpruned grid for atomic number  40.
 Defaulting to unpruned grid for atomic number  40.
 Defaulting to unpruned grid for atomic number  40.
 Defaulting to unpruned grid for atomic number  40.
 Defaulting to unpruned grid for atomic number  40.
 Defaulting to unpruned grid for atomic number  40.
 Defaulting to unpruned grid for atomic number  40.
 Defaulting to unpruned grid for atomic number  40.
 Defaulting to unpruned grid for atomic number  40.
 Defaulting to unpruned grid for atomic number  40.
 Defaulting to unpruned grid for atomic number  40.
 ***** Axes restored to original set *****
 -------------------------------------------------------------------
 Center     Atomic                   Forces (Hartrees/Bohr)
 Number     Number              X              Y              Z
 -------------------------------------------------------------------
      1       40           0.000089626   -0.000029015    0.000000502
      2        8           0.000000809    0.000012414   -0.000011033
      3        8           0.000019861    0.000010210    0.000003142
      4        8          -0.000009354    0.000003430   -0.000001033
      5        8          -0.000051237   -0.000024438   -0.000020468
      6       14          -0.000002253   -0.000000008    0.000004648
      7       14          -0.000014236    0.000006093   -0.000000002
      8       14          -0.000007227   -0.000005330   -0.000001864
      9       14          -0.000064150    0.000075439    0.000055951
     10        8          -0.000000237   -0.000007457   -0.000007805
     11        8           0.000004211   -0.000019196   -0.000000160
     12        8           0.000021667   -0.000020061   -0.000006245
     13        8           0.000001231    0.000007022    0.000002111
     14        8          -0.000000907    0.000001400   -0.000005392
     15        8          -0.000001412   -0.000003677    0.000000789
     16        8          -0.000006942   -0.000000167    0.000002806
     17        8           0.000001652   -0.000003665   -0.000003183
     18        8           0.000000167   -0.000002370   -0.000001697
     19        8          -0.000000495   -0.000006897    0.000004296
     20        8           0.000007946    0.000001043    0.000000849
     21        8           0.000006080    0.000004610   -0.000008039
     22        1          -0.000005592   -0.000006194   -0.000005684
     23        1           0.000004087   -0.000005422    0.000000060
     24        1           0.000001936    0.000001732    0.000003405
     25        1          -0.000001544   -0.000000290    0.000000983
     26        1          -0.000002200    0.000003460    0.000000551
     27        1          -0.000001176    0.000001522    0.000003971
     28        1          -0.000000246    0.000000967   -0.000002553
     29        1          -0.000003513   -0.000005606    0.000001169
     30        1           0.000001138    0.000003542   -0.000004600
     31        1           0.000000769    0.000002711    0.000000270
     32        1           0.000008009    0.000000347   -0.000006429
     33        1           0.000003531    0.000003852    0.000000685
 -------------------------------------------------------------------
 Cartesian Forces:  Max     0.000089626 RMS     0.000017111

 GradGradGradGradGradGradGradGradGradGradGradGradGradGradGradGradGradGrad
 Berny optimization.
 FormGI is forming the generalized inverse of G from B-inverse, IUseBI=4.
 Internal  Forces:  Max     0.000087973 RMS     0.000011924
 Search for a local minimum.
 Step number   1 out of a maximum of  148
 All quantities printed in internal units (Hartrees-Bohrs-Radians)
 Mixed Optimization -- En-DIIS/RFO-DIIS
 Second derivative matrix not updated -- first step.
 ITU=  0
     Eigenvalues ---    0.00230   0.00230   0.00230   0.00230   0.03239
     Eigenvalues ---    0.03482   0.03500   0.03541   0.03581   0.03661
     Eigenvalues ---    0.03665   0.03674   0.03688   0.03735   0.03789
     Eigenvalues ---    0.03802   0.03811   0.03828   0.03857   0.03858
     Eigenvalues ---    0.08414   0.09469   0.11097   0.11247   0.11629
     Eigenvalues ---    0.11809   0.11979   0.12095   0.12205   0.12217
     Eigenvalues ---    0.12600   0.12707   0.12970   0.13105   0.13263
     Eigenvalues ---    0.16000   0.16000   0.16000   0.16000   0.16000
     Eigenvalues ---    0.16000   0.16000   0.16000   0.16000   0.16000
     Eigenvalues ---    0.16000   0.16000   0.19184   0.19894   0.19953
     Eigenvalues ---    0.20035   0.20159   0.20200   0.20253   0.20422
     Eigenvalues ---    0.20563   0.20992   0.21009   0.21136   0.21189
     Eigenvalues ---    0.21280   0.25000   0.25000   0.25000   0.37992
     Eigenvalues ---    0.40480   0.40678   0.41116   0.41559   0.42454
     Eigenvalues ---    0.42502   0.42606   0.42768   0.43316   0.43953
     Eigenvalues ---    0.44102   0.44216   0.44422   0.44766   0.44782
     Eigenvalues ---    0.50680   0.51458   0.52211   0.52570   0.54329
     Eigenvalues ---    0.54614   0.54650   0.54671   0.54695   0.54715
     Eigenvalues ---    0.54738   0.548931000.000001000.000001000.00000
     Eigenvalues --- 1000.000001000.000001000.000001000.000001000.00000
     Eigenvalues --- 1000.000001000.000001000.000001000.000001000.00000
     Eigenvalues --- 1000.000001000.000001000.000001000.000001000.00000
     Eigenvalues --- 1000.000001000.000001000.000001000.000001000.00000
     Eigenvalues --- 1000.000001000.000001000.000001000.000001000.00000
     Eigenvalues --- 1000.000001000.000001000.000001000.000001000.00000
     Eigenvalues --- 1000.000001000.000001000.000001000.000001000.00000
     Eigenvalues --- 1000.000001000.000001000.000001000.000001000.00000
     Eigenvalues --- 1000.000001000.000001000.00000
 RFO step:  Lambda=-1.06184070D-07 EMin= 2.30000000D-03
 Linear search not attempted -- first point.
 Iteration  1 RMS(Cart)=  0.00145286 RMS(Int)=  0.00000051
 Iteration  2 RMS(Cart)=  0.00000085 RMS(Int)=  0.00000000
 Iteration  1 RMS(Cart)=  0.00000000 RMS(Int)=  0.00000000
 Variable       Old X    -DE/DX   Delta X   Delta X   Delta X     New X
                                 (Linear)    (Quad)   (Total)
    R1        3.67636  -0.00001   0.00000  -0.00004  -0.00004   3.67633
    R2        3.69031   0.00001   0.00000   0.00004   0.00004   3.69035
    R3        3.73798   0.00000   0.00000   0.00002   0.00002   3.73800
    R4        3.71087  -0.00009   0.00000  -0.00044  -0.00044   3.71043
    R5        3.13764   0.00001   0.00000   0.00001   0.00001   3.13766
    R6        3.09653   0.00001   0.00000   0.00002   0.00002   3.09655
    R7        3.10211  -0.00000   0.00000  -0.00001  -0.00001   3.10210
    R8        3.09249  -0.00003   0.00000  -0.00006  -0.00006   3.09242
    R9        3.11657   0.00000   0.00000   0.00001   0.00001   3.11657
   R10        3.11988  -0.00000   0.00000  -0.00001  -0.00001   3.11988
   R11        3.14342  -0.00000   0.00000  -0.00000  -0.00000   3.14342
   R12        3.18077   0.00000   0.00000   0.00000   0.00000   3.18078
   R13        3.10982   0.00000   0.00000   0.00001   0.00001   3.10983
   R14        3.09230  -0.00000   0.00000  -0.00001  -0.00001   3.09229
   R15        3.10032  -0.00001   0.00000  -0.00001  -0.00001   3.10031
   R16        3.14606   0.00000   0.00000   0.00000   0.00000   3.14606
   R17        3.09896   0.00000   0.00000   0.00000   0.00000   3.09897
   R18        3.11858   0.00001   0.00000   0.00001   0.00001   3.11860
   R19        3.13189   0.00002   0.00000   0.00004   0.00004   3.13193
   R20        3.12049  -0.00002   0.00000  -0.00006  -0.00006   3.12043
   R21        1.82144   0.00000   0.00000   0.00001   0.00001   1.82145
   R22        1.82065  -0.00000   0.00000  -0.00001  -0.00001   1.82065
   R23        1.82104  -0.00001   0.00000  -0.00001  -0.00001   1.82103
   R24        1.84058  -0.00000   0.00000  -0.00000  -0.00000   1.84058
   R25        1.84398  -0.00000   0.00000  -0.00001  -0.00001   1.84397
   R26        1.81928  -0.00000   0.00000  -0.00000  -0.00000   1.81927
   R27        1.82086   0.00001   0.00000   0.00002   0.00002   1.82088
   R28        1.85885   0.00000   0.00000   0.00001   0.00001   1.85886
   R29        1.82126  -0.00000   0.00000  -0.00000  -0.00000   1.82125
   R30        1.82433   0.00000   0.00000   0.00001   0.00001   1.82434
   R31        1.82176  -0.00000   0.00000  -0.00000  -0.00000   1.82176
   R32        1.85122   0.00001   0.00000   0.00002   0.00002   1.85123
    A1        1.85569   0.00000   0.00000  -0.00003  -0.00003   1.85566
    A2        1.80097  -0.00000   0.00000   0.00002   0.00002   1.80099
    A3        1.97659  -0.00000   0.00000  -0.00000  -0.00000   1.97658
    A4        1.83906  -0.00000   0.00000  -0.00002  -0.00002   1.83905
    A5        2.01332  -0.00001   0.00000  -0.00007  -0.00007   2.01325
    A6        1.96025   0.00001   0.00000   0.00010   0.00010   1.96036
    A7        2.45892   0.00002   0.00000   0.00009   0.00009   2.45901
    A8        2.59369  -0.00002   0.00000  -0.00009  -0.00009   2.59360
    A9        2.34042  -0.00000   0.00000  -0.00001  -0.00001   2.34041
   A10        2.74016  -0.00007   0.00000   0.00000   0.00000   2.74016
   A11        1.92384   0.00000   0.00000   0.00000   0.00000   1.92385
   A12        1.91272  -0.00000   0.00000  -0.00003  -0.00003   1.91270
   A13        1.94584  -0.00000   0.00000  -0.00000  -0.00000   1.94584
   A14        2.00429   0.00000   0.00000   0.00001   0.00001   2.00429
   A15        1.88341  -0.00000   0.00000  -0.00000  -0.00000   1.88341
   A16        1.79022   0.00000   0.00000   0.00002   0.00002   1.79024
   A17        1.80104  -0.00000   0.00000  -0.00001  -0.00001   1.80103
   A18        1.99287  -0.00000   0.00000  -0.00001  -0.00001   1.99286
   A19        1.95693   0.00000   0.00000  -0.00001  -0.00001   1.95693
[...]
 Alpha virt. eigenvalues --    3.15960   3.22024   3.36907   3.40849   3.46439
 Alpha virt. eigenvalues --    3.47702   3.48639   3.48818   3.48885   3.51761
 Alpha virt. eigenvalues --    3.52768   3.53731   3.60002   3.61209   3.62163
 Alpha virt. eigenvalues --    3.65917   4.39063   4.67509   7.77640  31.23619
          Condensed to atoms (all electrons):
               1          2          3          4          5          6
     1  Zr  15.149610  -0.044565  -0.004087  -0.141014  -0.183535  -0.719438
     2  O   -0.044565   8.853636   0.014438  -0.043912  -0.052181   0.065547
     3  O   -0.004087   0.014438   8.832183   0.016433  -0.047943  -0.003252
     4  O   -0.141014  -0.043912   0.016433   8.821262  -0.063646  -0.708593
     5  O   -0.183535  -0.052181  -0.047943  -0.063646   9.338061  -0.006352
     6  Si  -0.719438   0.065547  -0.003252  -0.708593  -0.006352  14.182025
     7  Si  -0.590965  -0.021214  -0.874643  -0.010484  -0.031504   0.095033
     8  Si  -0.675262  -0.757643  -0.022641   0.070804  -0.011845   0.026179
     9  Si  -0.290965  -0.030175  -0.010543  -0.018792  -1.096732   0.044287
    10  O   -0.033504   0.000744  -0.001609  -0.000254   0.117390  -0.001401
    11  O   -0.107864   0.002251   0.003360   0.002264   0.331387   0.000046
    12  O    0.054437   0.001374   0.005480   0.001610   0.113266  -0.003122
    13  O   -0.003443   0.259396   0.001515  -0.015416  -0.000605   0.028318
    14  O   -0.042121   0.249124  -0.017630  -0.002808   0.000540   0.009500
    15  O   -0.056989   0.256969   0.000280   0.002545   0.000825  -0.005762
    16  O   -0.130128   0.005536  -0.000374   0.348834   0.003391  -0.445869
    17  O   -0.092893  -0.039379   0.010246   0.210709   0.000645  -0.442474
    18  O   -0.027540  -0.019267   0.003662   0.207067  -0.001226  -0.481397
    19  O    0.002471   0.008173   0.274249   0.013072   0.002383  -0.009295
    20  O   -0.136748  -0.000778   0.152193  -0.000613   0.001202   0.009993
    21  O    0.033076   0.011003   0.155544   0.003862   0.000386  -0.014589
    22  H   -0.012263  -0.000003   0.000044  -0.000004   0.006185   0.000121
    23  H   -0.007327  -0.000009  -0.000006  -0.000033  -0.024179   0.000142
    24  H   -0.006365  -0.000061  -0.000004   0.000007  -0.002806   0.000141
    25  H    0.021443  -0.021811  -0.000131  -0.000980  -0.000015   0.000736
    26  H   -0.007671  -0.012602   0.000017  -0.000012  -0.000020   0.000224
    27  H    0.007320  -0.020624   0.000734  -0.001624   0.000036   0.009874
    28  H    0.004446  -0.000011  -0.017975  -0.000013  -0.000010  -0.000278
    29  H   -0.000283  -0.005192  -0.019725  -0.000195  -0.000059   0.000684
    30  H   -0.000305  -0.000009   0.000092  -0.000490  -0.000008  -0.000440
    31  H    0.003448   0.000288  -0.000021  -0.018127  -0.000018   0.060845
    32  H    0.002524  -0.000029   0.000035   0.011222   0.000008   0.019337
    33  H   -0.014603   0.000944  -0.010409  -0.009491  -0.000084   0.052303
               7          8          9         10         11         12
     1  Zr  -0.590965  -0.675262  -0.290965  -0.033504  -0.107864   0.054437
     2  O   -0.021214  -0.757643  -0.030175   0.000744   0.002251   0.001374
     3  O   -0.874643  -0.022641  -0.010543  -0.001609   0.003360   0.005480
     4  O   -0.010484   0.070804  -0.018792  -0.000254   0.002264   0.001610
     5  O   -0.031504  -0.011845  -1.096732   0.117390   0.331387   0.113266
     6  Si   0.095033   0.026179   0.044287  -0.001401   0.000046  -0.003122
     7  Si  13.763710   0.172231   0.020257   0.001448  -0.000809   0.002447
     8  Si   0.172231  13.756127   0.037700  -0.001460   0.001942  -0.002437
     9  Si   0.020257   0.037700  13.928405  -0.020793  -0.186512  -0.174377
    10  O    0.001448  -0.001460  -0.020793   8.514156   0.001668   0.040408
    11  O   -0.000809   0.001942  -0.186512   0.001668   8.558091  -0.053269
    12  O    0.002447  -0.002437  -0.174377   0.040408  -0.053269   8.594097
    13  O    0.003132  -0.145316  -0.000476  -0.000001   0.000015  -0.000021
    14  O    0.017075  -0.494251  -0.000665  -0.000002   0.000005   0.000014
    15  O   -0.003225  -0.382673  -0.000911  -0.000001  -0.000016   0.000020
    16  O    0.003753  -0.009806  -0.001151   0.000006  -0.000010  -0.000001
    17  O   -0.001722   0.099153   0.003140   0.000005   0.000005  -0.000009
    18  O   -0.001668   0.081413   0.003664   0.000004   0.000007   0.000004
    19  O   -0.431614  -0.018199   0.000838   0.000007   0.000000  -0.000070
    20  O   -0.096128   0.009404   0.003263   0.000038  -0.000003  -0.000056
    21  O    0.020121  -0.047601  -0.001594  -0.000002   0.000002   0.000001
    22  H   -0.000020   0.000149   0.048875  -0.005683  -0.004851   0.220783
    23  H    0.000002   0.000053   0.076947   0.230999  -0.005111   0.005522
    24  H    0.000038   0.000184   0.036298   0.007368   0.239817  -0.006854
    25  H   -0.000335   0.053870  -0.000214  -0.000000  -0.000000  -0.000000
    26  H    0.000562   0.063420  -0.000278   0.000000   0.000000  -0.000003
    27  H    0.000784   0.076236   0.000007   0.000000  -0.000000   0.000000
    28  H    0.056558   0.000073  -0.000161  -0.000000  -0.000000  -0.000002
    29  H    0.048320   0.024096  -0.000090   0.000000  -0.000000  -0.000001
    30  H    0.042215   0.000144   0.000009  -0.000000   0.000000   0.000000
    31  H    0.000094  -0.002876  -0.000059   0.000000  -0.000000   0.000000
    32  H   -0.000611   0.000124   0.000000  -0.000000   0.000000  -0.000000
    33  H    0.021540  -0.000081   0.000066  -0.000000   0.000000   0.000000
              13         14         15         16         17         18
     1  Zr  -0.003443  -0.042121  -0.056989  -0.130128  -0.092893  -0.027540
     2  O    0.259396   0.249124   0.256969   0.005536  -0.039379  -0.019267
     3  O    0.001515  -0.017630   0.000280  -0.000374   0.010246   0.003662
     4  O   -0.015416  -0.002808   0.002545   0.348834   0.210709   0.207067
     5  O   -0.000605   0.000540   0.000825   0.003391   0.000645  -0.001226
     6  Si   0.028318   0.009500  -0.005762  -0.445869  -0.442474  -0.481397
     7  Si   0.003132   0.017075  -0.003225   0.003753  -0.001722  -0.001668
     8  Si  -0.145316  -0.494251  -0.382673  -0.009806   0.099153   0.081413
     9  Si  -0.000476  -0.000665  -0.000911  -0.001151   0.003140   0.003664
    10  O   -0.000001  -0.000002  -0.000001   0.000006   0.000005   0.000004
    11  O    0.000015   0.000005  -0.000016  -0.000010   0.000005   0.000007
    12  O   -0.000021   0.000014   0.000020  -0.000001  -0.000009   0.000004
    13  O    8.640544   0.024458  -0.115511   0.003912  -0.028618  -0.042339
    14  O    0.024458   8.811278   0.154945   0.002622  -0.028444  -0.022804
    15  O   -0.115511   0.154945   8.779636  -0.000164   0.003865   0.001145
    16  O    0.003912   0.002622  -0.000164   8.914438  -0.095905  -0.103013
    17  O   -0.028618  -0.028444   0.003865  -0.095905   8.943886   0.223643
    18  O   -0.042339  -0.022804   0.001145  -0.103013   0.223643   9.035657
    19  O    0.000231   0.001824   0.000332  -0.000975  -0.030932   0.000142
    20  O    0.000009  -0.001062   0.000005   0.000049  -0.000796   0.000015
    21  O   -0.000479   0.025816   0.000785  -0.000182  -0.005861   0.000400
    22  H   -0.000000  -0.000000   0.000000  -0.000000   0.000000  -0.000000
    23  H    0.000000   0.000000   0.000000  -0.000000   0.000000   0.000000
    24  H   -0.000000   0.000000   0.000001   0.000000  -0.000000  -0.000000
    25  H    0.216875  -0.009309   0.007490  -0.000256   0.000570   0.015238
    26  H   -0.006675   0.001144   0.225873   0.000000  -0.000021   0.000009
    27  H   -0.004530   0.206709   0.000050   0.000301   0.017842  -0.000800
    28  H    0.000000  -0.000003  -0.000001  -0.000000   0.000002   0.000000
    29  H    0.000781   0.013901  -0.001360  -0.000004  -0.000712  -0.000002
    30  H    0.000001  -0.000002   0.000001   0.000103  -0.000433  -0.000008
    31  H    0.002344   0.000073  -0.000020   0.005118  -0.001212   0.216181
    32  H   -0.000007  -0.000006   0.000000   0.236054  -0.003420   0.003902
    33  H    0.000249   0.001968  -0.000055   0.000208   0.229721   0.002256
              19         20         21         22         23         24
     1  Zr   0.002471  -0.136748   0.033076  -0.012263  -0.007327  -0.006365
     2  O    0.008173  -0.000778   0.011003  -0.000003  -0.000009  -0.000061
     3  O    0.274249   0.152193   0.155544   0.000044  -0.000006  -0.000004
     4  O    0.013072  -0.000613   0.003862  -0.000004  -0.000033   0.000007
     5  O    0.002383   0.001202   0.000386   0.006185  -0.024179  -0.002806
     6  Si  -0.009295   0.009993  -0.014589   0.000121   0.000142   0.000141
     7  Si  -0.431614  -0.096128   0.020121  -0.000020   0.000002   0.000038
     8  Si  -0.018199   0.009404  -0.047601   0.000149   0.000053   0.000184
     9  Si   0.000838   0.003263  -0.001594   0.048875   0.076947   0.036298
    10  O    0.000007   0.000038  -0.000002  -0.005683   0.230999   0.007368
    11  O    0.000000  -0.000003   0.000002  -0.004851  -0.005111   0.239817
    12  O   -0.000070  -0.000056   0.000001   0.220783   0.005522  -0.006854
    13  O    0.000231   0.000009  -0.000479  -0.000000   0.000000  -0.000000
    14  O    0.001824  -0.001062   0.025816  -0.000000   0.000000   0.000000
    15  O    0.000332   0.000005   0.000785   0.000000   0.000000   0.000001
    16  O   -0.000975   0.000049  -0.000182  -0.000000  -0.000000   0.000000
    17  O   -0.030932  -0.000796  -0.005861   0.000000   0.000000  -0.000000
    18  O    0.000142   0.000015   0.000400  -0.000000   0.000000  -0.000000
    19  O    8.885887   0.033032   0.025557  -0.000000   0.000000  -0.000000
    20  O    0.033032   8.653924  -0.055767   0.000000   0.000000  -0.000000
    21  O    0.025557  -0.055767   8.486775  -0.000001   0.000000   0.000000
    22  H   -0.000000   0.000000  -0.000001   0.359006   0.000056   0.000110
    23  H    0.000000   0.000000   0.000000   0.000056   0.350765   0.000020
    24  H   -0.000000  -0.000000   0.000000   0.000110   0.000020   0.368204
    25  H   -0.000034   0.000000  -0.000012   0.000000   0.000000   0.000000
    26  H    0.000000  -0.000000   0.000044  -0.000000   0.000000  -0.000000
    27  H   -0.000227   0.000224  -0.004739  -0.000000  -0.000000   0.000000
    28  H    0.004346   0.228942  -0.001586  -0.000000   0.000000  -0.000000
    29  H   -0.008641   0.008076   0.208296   0.000000  -0.000000  -0.000000
    30  H    0.223293  -0.001493  -0.007304   0.000000  -0.000000  -0.000000
    31  H    0.000002  -0.000000  -0.000000  -0.000000   0.000000   0.000000
    32  H    0.000093   0.000000   0.000001  -0.000000  -0.000000  -0.000000
    33  H    0.013354  -0.000071   0.001398  -0.000000  -0.000000  -0.000000
              25         26         27         28         29         30
     1  Zr   0.021443  -0.007671   0.007320   0.004446  -0.000283  -0.000305
     2  O   -0.021811  -0.012602  -0.020624  -0.000011  -0.005192  -0.000009
     3  O   -0.000131   0.000017   0.000734  -0.017975  -0.019725   0.000092
     4  O   -0.000980  -0.000012  -0.001624  -0.000013  -0.000195  -0.000490
     5  O   -0.000015  -0.000020   0.000036  -0.000010  -0.000059  -0.000008
     6  Si   0.000736   0.000224   0.009874  -0.000278   0.000684  -0.000440
     7  Si  -0.000335   0.000562   0.000784   0.056558   0.048320   0.042215
     8  Si   0.053870   0.063420   0.076236   0.000073   0.024096   0.000144
     9  Si  -0.000214  -0.000278   0.000007  -0.000161  -0.000090   0.000009
    10  O   -0.000000   0.000000   0.000000  -0.000000   0.000000  -0.000000
    11  O   -0.000000   0.000000  -0.000000  -0.000000  -0.000000   0.000000
    12  O   -0.000000  -0.000003   0.000000  -0.000002  -0.000001   0.000000
    13  O    0.216875  -0.006675  -0.004530   0.000000   0.000781   0.000001
    14  O   -0.009309   0.001144   0.206709  -0.000003   0.013901  -0.000002
    15  O    0.007490   0.225873   0.000050  -0.000001  -0.001360   0.000001
    16  O   -0.000256   0.000000   0.000301  -0.000000  -0.000004   0.000103
    17  O    0.000570  -0.000021   0.017842   0.000002  -0.000712  -0.000433
    18  O    0.015238   0.000009  -0.000800   0.000000  -0.000002  -0.000008
    19  O   -0.000034   0.000000  -0.000227   0.004346  -0.008641   0.223293
    20  O    0.000000  -0.000000   0.000224   0.228942   0.008076  -0.001493
    21  O   -0.000012   0.000044  -0.004739  -0.001586   0.208296  -0.007304
    22  H    0.000000  -0.000000  -0.000000  -0.000000   0.000000   0.000000
    23  H    0.000000   0.000000  -0.000000   0.000000  -0.000000  -0.000000
    24  H    0.000000  -0.000000   0.000000  -0.000000  -0.000000  -0.000000
    25  H    0.301468  -0.000031   0.000030   0.000000   0.000001   0.000000
    26  H   -0.000031   0.369320  -0.000036   0.000000   0.000018  -0.000000
    27  H    0.000030  -0.000036   0.284737  -0.000000  -0.000990   0.000006
    28  H    0.000000   0.000000  -0.000000   0.349204  -0.000017  -0.000011
    29  H    0.000001   0.000018  -0.000990  -0.000017   0.285981   0.000167
    30  H    0.000000  -0.000000   0.000006  -0.000011   0.000167   0.334497
    31  H   -0.000192   0.000000   0.000014   0.000000   0.000000  -0.000000
    32  H   -0.000001  -0.000000  -0.000000   0.000000  -0.000000  -0.000000
    33  H    0.000005   0.000000  -0.002455  -0.000002   0.000127  -0.001051
              31         32         33
     1  Zr   0.003448   0.002524  -0.014603
     2  O    0.000288  -0.000029   0.000944
     3  O   -0.000021   0.000035  -0.010409
     4  O   -0.018127   0.011222  -0.009491
     5  O   -0.000018   0.000008  -0.000084
     6  Si   0.060845   0.019337   0.052303
     7  Si   0.000094  -0.000611   0.021540
     8  Si  -0.002876   0.000124  -0.000081
     9  Si  -0.000059   0.000000   0.000066
    10  O    0.000000  -0.000000  -0.000000
    11  O   -0.000000   0.000000   0.000000
    12  O    0.000000  -0.000000   0.000000
    13  O    0.002344  -0.000007   0.000249
    14  O    0.000073  -0.000006   0.001968
    15  O   -0.000020   0.000000  -0.000055
    16  O    0.005118   0.236054   0.000208
    17  O   -0.001212  -0.003420   0.229721
    18  O    0.216181   0.003902   0.002256
    19  O    0.000002   0.000093   0.013354
    20  O   -0.000000   0.000000  -0.000071
    21  O   -0.000000   0.000001   0.001398
    22  H   -0.000000  -0.000000  -0.000000
    23  H    0.000000  -0.000000  -0.000000
    24  H    0.000000  -0.000000  -0.000000
    25  H   -0.000192  -0.000001   0.000005
    26  H    0.000000  -0.000000   0.000000
    27  H    0.000014  -0.000000  -0.002455
    28  H    0.000000   0.000000  -0.000002
    29  H    0.000000  -0.000000   0.000127
    30  H   -0.000000  -0.000000  -0.001051
    31  H    0.327380  -0.000010  -0.000036
    32  H   -0.000010   0.349053   0.000146
    33  H   -0.000036   0.000146   0.270899
 Mulliken charges:
               1
     1  Zr   0.051099
     2  O   -0.659957
     3  O   -0.439513
     4  O   -0.673189
     5  O   -0.392934
     6  Si   2.236926
     7  Si   1.795623
     8  Si   2.098788
     9  Si   1.630733
    10  O   -0.849531
    11  O   -0.782417
    12  O   -0.799241
    13  O   -0.818345
    14  O   -0.901886
    15  O   -0.868080
    16  O   -0.736489
    17  O   -0.970604
    18  O   -1.094344
    19  O   -0.989299
    20  O   -0.806856
    21  O   -0.833349
    22  H    0.387496
    23  H    0.372159
    24  H    0.363901
    25  H    0.415595
    26  H    0.366720
    27  H    0.431120
    28  H    0.376500
    29  H    0.446824
    30  H    0.411027
    31  H    0.406785
    32  H    0.381585
    33  H    0.443153
 Sum of Mulliken charges =  -0.00000
 Mulliken charges with hydrogens summed into heavy atoms:
               1
     1  Zr   0.051099
     2  O   -0.659957
     3  O   -0.439513
     4  O   -0.673189
     5  O   -0.392934
     6  Si   2.236926
     7  Si   1.795623
     8  Si   2.098788
     9  Si   1.630733
    10  O   -0.477372
    11  O   -0.418516
    12  O   -0.411745
    13  O   -0.402750
    14  O   -0.470766
    15  O   -0.501359
    16  O   -0.354903
    17  O   -0.527451
    18  O   -0.687559
    19  O   -0.578273
    20  O   -0.430355
    21  O   -0.386525
 Electronic spatial extent (au):  <R**2>=           9789.1235
 Charge=              0.0000 electrons
 Dipole moment (field-independent basis, Debye):
    X=              2.9907    Y=             -1.4882    Z=             -3.0411  Tot=              4.5174
 Quadrupole moment (field-independent basis, Debye-Ang):
   XX=           -166.9235   YY=           -151.8879   ZZ=           -158.6645
   XY=             -6.5335   XZ=             13.1381   YZ=              2.6975
 Traceless Quadrupole moment (field-independent basis, Debye-Ang):
   XX=             -7.7648   YY=              7.2707   ZZ=              0.4941
   XY=             -6.5335   XZ=             13.1381   YZ=              2.6975
 Octapole moment (field-independent basis, Debye-Ang**2):
  XXX=             86.0809  YYY=             -6.6720  ZZZ=            -40.0588  XYY=             -5.9666
  XXY=             26.4379  XXZ=            -21.2258  XZZ=             62.6854  YZZ=            -24.9446
  YYZ=             -2.1747  XYZ=             11.9257
 Hexadecapole moment (field-independent basis, Debye-Ang**3):
 XXXX=          -6066.8067 YYYY=          -2760.5235 ZZZZ=          -2259.6109 XXXY=             22.4945
 XXXZ=             84.6068 YYYX=            -14.8322 YYYZ=            170.4010 ZZZX=             33.3147
 ZZZY=            -86.4091 XXYY=          -1493.2188 XXZZ=          -1469.2829 YYZZ=           -923.9329
 XXYZ=             24.1037 YYXZ=            188.6592 ZZXY=            -66.0087
 N-N= 2.837926707100D+03 E-N=-1.138842451821D+04  KE= 2.373154770220D+03
 1\1\GINC-GRA1233\FOpt\RB3LYP\Gen\H12O16Si4Zr1\SARASHS\02-Aug-2020\0\\#
 n B3LYP/Gen Pseudo=cards EmpiricalDispersion=GD3 Opt=modredundant\\Tit
 le\\0,1\Zr,0.6466061497,-0.1906399802,-0.1514946257\O,-0.1927528503,-0
 .9320309047,1.4392672198\O,0.1733967363,1.703621484,-0.1892561233\O,-0
 .3775493177,-1.0165024356,-1.6285857055\O,2.5678339578,-0.579583415,-0
 .2666949977\Si,-1.9691233497,-1.3313606742,-1.8785178588\Si,-0.9890515
 378,2.8562487721,-0.1167925178\Si,-1.6756207094,-1.0524061447,2.176434
 5186\Si,4.1699221965,-0.33924536,-0.0353899615\O,4.9200343872,0.445404
 973,-1.2784322878\O,4.9538896107,-1.7930779273,0.1013319112\O,4.263345
 1905,0.6143361255,1.309388012\O,-2.3366504528,-2.5130998288,1.82857308
 63\O,-2.6213694791,0.2087859337,1.6411099557\O,-1.5533636907,-0.825975
 6003,3.7960264128\O,-2.254307872,-1.5899258885,-3.4821867273\O,-2.8833
 020998,-0.1384941251,-1.1951088336\O,-2.4603428892,-2.6855420991,-1.04
 67123978\O,-2.0073477437,2.4558327079,-1.3958180953\O,-0.4457980684,4.
 3810533606,-0.413437173\O,-1.7582917082,2.865833295,1.3274693187\H,5.1
 085992096,1.043732071,1.481973484\H,5.337860115,-0.1152957492,-1.94181
 92638\H,4.5281317776,-2.4765063498,0.6303689697\H,-2.4079607353,-2.746
 063763,0.8855463227\H,-0.9354773254,-1.387037074,4.2758671314\H,-3.029
 4998875,0.0469744037,0.7696765129\H,-0.2903023616,4.9328447947,0.36161
 68172\H,-2.0949642955,2.0017599049,1.6432297889\H,-2.6076003823,3.1579
 341126,-1.676432031\H,-2.5661989408,-3.490695042,-1.5657194194\H,-1.55
 27582196,-1.3353191006,-4.0916651099\H,-2.6397154141,0.7906195233,-1.4
 072663325\\Version=ES64L-G16RevB.01\State=1-A\HF=-2416.945868\RMSD=3.4
 49e-09\RMSF=1.163e-05\Dipole=1.1730773,-0.5872588,-1.1990894\Quadrupol
 e=-5.7677164,5.4272304,0.3404861,-4.8356476,9.7773434,1.9929012\PG=C01
  [X(H12O16Si4Zr1)]\\@


 THOSE WITH THE GOLD MAKE THE RULES.

             -- PETER'S GOLDEN RULE
 Job cpu time:       0 days  6 hours 17 minutes 43.7 seconds.
 Elapsed time:       0 days  0 hours 28 minutes 13.1 seconds.
 File lengths (MBytes):  RWF=    167 Int=      0 D2E=      0 Chk=     21 Scr=      1
 Normal termination of Gaussian 16 at Sun Aug  2 07:28:55 2020.
