 Entering Gaussian System, Link 0=g16
 Initial command:
 /opt/software/gaussian/g16.b01/l1.exe "/localscratch/sarashs.37192514.0/Gau-20704.inp" -scrdir="/localscratch/sarashs.37192514.0/"
 Entering Link 1 = /opt/software/gaussian/g16.b01/l1.exe PID=     20705.
  
 Copyright (c) 1988-2017, Gaussian, Inc.  All Rights Reserved.
  
 This is part of the Gaussian(R) 16 program.  It is based on
 the Gaussian(R) 09 system (copyright 2009, Gaussian, Inc.),
 the Gaussian(R) 03 system (copyright 2003, Gaussian, Inc.),
 the Gaussian(R) 98 system (copyright 1998, Gaussian, Inc.),
 the Gaussian(R) 94 system (copyright 1995, Gaussian, Inc.),
 the Gaussian 92(TM) system (copyright 1992, Gaussian, Inc.),
 the Gaussian 90(TM) system (copyright 1990, Gaussian, Inc.),
 the Gaussian 88(TM) system (copyright 1988, Gaussian, Inc.),
 the Gaussian 86(TM) system (copyright 1986, Carnegie Mellon
 University), and the Gaussian 82(TM) system (copyright 1983,
 Carnegie Mellon University). Gaussian is a federally registered
 trademark of Gaussian, Inc.
  
 This software contains proprietary and confidential information,
 including trade secrets, belonging to Gaussian, Inc.
  
 This software is provided under written license and may be
 used, copied, transmitted, or stored only in accord with that
 written license.
  
 The following legend is applicable only to US Government
 contracts under FAR:
  
                    RESTRICTED RIGHTS LEGEND
  
 Use, reproduction and disclosure by the US Government is
 subject to restrictions as set forth in subparagraphs (a)
 and (c) of the Commercial Computer Software - Restricted
 Rights clause in FAR 52.227-19.
  
 Gaussian, Inc.
 340 Quinnipiac St., Bldg. 40, Wallingford CT 06492
  
  
 ---------------------------------------------------------------
 Warning -- This program may not be used in any manner that
 competes with the business of Gaussian, Inc. or will provide
 assistance to any competitor of Gaussian, Inc.  The licensee
 of this program is prohibited from giving any competitor of
 Gaussian, Inc. access to this program.  By using this program,
 the user acknowledges that Gaussian, Inc. is engaged in the
 business of creating and licensing software in the field of
 computational chemistry and represents and warrants to the
 licensee that it is not a competitor of Gaussian, Inc. and that
 it will not use this program in any manner prohibited above.
 ---------------------------------------------------------------
  

 Cite this work as:
 Gaussian 16, Revision B.01,
 M. J. Frisch, G. W. Trucks, H. B. Schlegel, G. E. Scuseria, 
 M. A. Robb, J. R. Cheeseman, G. Scalmani, V. Barone, 
 G. A. Petersson, H. Nakatsuji, X. Li, M. Caricato, A. V. Marenich, 
 J. Bloino, B. G. Janesko, R. Gomperts, B. Mennucci, H. P. Hratchian, 
 J. V. Ortiz, A. F. Izmaylov, J. L. Sonnenberg, D. Williams-Young, 
 F. Ding, F. Lipparini, F. Egidi, J. Goings, B. Peng, A. Petrone, 
 T. Henderson, D. Ranasinghe, V. G. Zakrzewski, J. Gao, N. Rega, 
 G. Zheng, W. Liang, M. Hada, M. Ehara, K. Toyota, R. Fukuda, 
 J. Hasegawa, M. Ishida, T. Nakajima, Y. Honda, O. Kitao, H. Nakai, 
 T. Vreven, K. Throssell, J. A. Montgomery, Jr., J. E. Peralta, 
 F. Ogliaro, M. J. Bearpark, J. J. Heyd, E. N. Brothers, K. N. Kudin, 
 V. N. Staroverov, T. A. Keith, R. Kobayashi, J. Normand, 
 K. Raghavachari, A. P. Rendell, J. C. Burant, S. S. Iyengar, 
 J. Tomasi, M. Cossi, J. M. Millam, M. Klene, C. Adamo, R. Cammi, 
 J. W. Ochterski, R. L. Martin, K. Morokuma, O. Farkas, 
 J. B. Foresman, and D. J. Fox, Gaussian, Inc., Wallingford CT, 2016.
 
 ******************************************
 Gaussian 16:  ES64L-G16RevB.01 20-Dec-2017
                12-Aug-2020 
 ******************************************
 %NProcShared=16
 Will use up to   16 processors via shared memory.
 ------------------------------------------------------------------
 #n B3LYP/Gen Pseudo=cards EmpiricalDispersion=GD3 Opt=modredundant
 ------------------------------------------------------------------
 1/18=120,19=15,26=3,38=1/1,3;
 2/9=110,12=2,17=6,18=5,40=1/2;
 3/5=7,11=2,16=1,17=8,25=1,30=1,71=1,74=-5,124=31/1,2,3;
 4//1;
 5/5=2,38=5/2;
 6/7=2,8=2,9=2,10=2,28=1/1;
 7//1,2,3,16;
 1/18=20,19=15,26=3/3(2);
 2/9=110/2;
 99//99;
 2/9=110/2;
 3/5=7,6=1,11=2,16=1,17=8,25=1,30=1,71=1,74=-5,82=7,124=31/1,2,3;
 4/5=5,16=3,69=1/1;
 5/5=2,38=5/2;
 7//1,2,3,16;
 1/18=20,19=15,26=3/3(-5);
 2/9=110/2;
 6/7=2,8=2,9=2,10=2,19=2,28=1/1;
 99/9=1/99;
 -----
 Title
 -----
 Symbolic Z-matrix:
 Charge =  0 Multiplicity = 1
 Zr                    0.65779  -0.12506  -0.07164 
 O                    -0.22285  -0.90624   1.4773 
 O                     0.10302   1.74748  -0.12299 
 O                    -0.2683   -0.97885  -1.59705 
 O                     2.59206  -0.4363   -0.08284 
 Si                   -1.83119  -1.33244  -1.9536 
 Si                   -1.1155    2.84172  -0.08279 
 Si                   -1.72376  -1.15291   2.11517 
 Si                    4.22742  -0.41971  -0.02518 
 O                     4.94482  -0.32446  -1.50904 
 O                     4.79177  -1.82845   0.64111 
 O                     4.61241   0.93809   0.82934 
 O                    -2.31924  -2.624     1.69627 
 O                    -2.72422   0.06508   1.55086 
 O                    -1.59734  -1.01957   3.74439 
 O                    -2.00144  -1.55965  -3.57782 
 O                    -2.82509  -0.18676  -1.30145 
 O                    -2.34448  -2.71439  -1.18277 
 O                    -2.04046   2.43957  -1.43023 
 O                    -0.63565   4.40049  -0.29987 
 O                    -1.96551   2.76086   1.31383 
 H                     5.53141   1.2261    0.79813 
 H                     5.204    -1.16414  -1.90513 
 H                     4.34085  -2.15879   1.4261 
 H                    -2.40577  -2.80951   0.74392 
 H                    -2.38137  -1.22423   4.26535 
 H                    -3.06034  -0.08306   0.64589 
 H                    -0.52731   4.92728   0.50015 
 H                    -2.26909   1.86932   1.58533 
 H                    -2.64854   3.12676  -1.73014 
 H                    -2.30452  -3.52952  -1.69562 
 H                    -1.27114  -1.26305  -4.13223 
 H                    -2.61026   0.75461  -1.48993 
 
 The following ModRedundant input section has been read:
 A       1       5       9 F                                                   
 D       1       5       9      12 F                                           
 D       3       1       5       9 F                                           
 

 GradGradGradGradGradGradGradGradGradGradGradGradGradGradGradGradGradGrad
 Berny optimization.
 Initialization pass.
                           ----------------------------
                           !    Initial Parameters    !
                           ! (Angstroms and Degrees)  !
 --------------------------                            --------------------------
 ! Name  Definition              Value          Derivative Info.                !
 --------------------------------------------------------------------------------
 ! R1    R(1,2)                  1.9455         estimate D2E/DX2                !
 ! R2    R(1,3)                  1.9537         estimate D2E/DX2                !
 ! R3    R(1,4)                  1.9783         estimate D2E/DX2                !
 ! R4    R(1,5)                  1.9592         estimate D2E/DX2                !
 ! R5    R(2,8)                  1.6494         estimate D2E/DX2                !
 ! R6    R(3,7)                  1.6382         estimate D2E/DX2                !
 ! R7    R(4,6)                  1.6416         estimate D2E/DX2                !
 ! R8    R(5,9)                  1.6365         estimate D2E/DX2                !
 ! R9    R(6,16)                 1.6488         estimate D2E/DX2                !
 ! R10   R(6,17)                 1.651          estimate D2E/DX2                !
 ! R11   R(6,18)                 1.6636         estimate D2E/DX2                !
 ! R12   R(7,19)                 1.6831         estimate D2E/DX2                !
 ! R13   R(7,20)                 1.6453         estimate D2E/DX2                !
 ! R14   R(7,21)                 1.6369         estimate D2E/DX2                !
 ! R15   R(8,13)                 1.6414         estimate D2E/DX2                !
 ! R16   R(8,14)                 1.6742         estimate D2E/DX2                !
 ! R17   R(8,15)                 1.6395         estimate D2E/DX2                !
 ! R18   R(9,10)                 1.6509         estimate D2E/DX2                !
 ! R19   R(9,11)                 1.6574         estimate D2E/DX2                !
 ! R20   R(9,12)                 1.6499         estimate D2E/DX2                !
 ! R21   R(10,23)                0.9639         estimate D2E/DX2                !
 ! R22   R(11,24)                0.9637         estimate D2E/DX2                !
 ! R23   R(12,22)                0.9636         estimate D2E/DX2                !
 ! R24   R(13,25)                0.9741         estimate D2E/DX2                !
 ! R25   R(14,27)                0.9767         estimate D2E/DX2                !
 ! R26   R(15,26)                0.9633         estimate D2E/DX2                !
 ! R27   R(16,32)                0.9637         estimate D2E/DX2                !
 ! R28   R(17,33)                0.9838         estimate D2E/DX2                !
 ! R29   R(18,31)                0.9639         estimate D2E/DX2                !
 ! R30   R(19,30)                0.9654         estimate D2E/DX2                !
 ! R31   R(20,28)                0.964          estimate D2E/DX2                !
 ! R32   R(21,29)                0.9802         estimate D2E/DX2                !
 ! A1    A(2,1,3)              106.0959         estimate D2E/DX2                !
 ! A2    A(2,1,4)              103.2214         estimate D2E/DX2                !
 ! A3    A(2,1,5)              112.8091         estimate D2E/DX2                !
 ! A4    A(3,1,4)              105.0977         estimate D2E/DX2                !
 ! A5    A(3,1,5)              115.6243         estimate D2E/DX2                !
 ! A6    A(4,1,5)              112.9055         estimate D2E/DX2                !
 ! A7    A(1,2,8)              141.2479         estimate D2E/DX2                !
 ! A8    A(1,3,7)              148.2962         estimate D2E/DX2                !
 ! A9    A(1,4,6)              134.9216         estimate D2E/DX2                !
 ! A10   A(1,5,9)              170.0002         Frozen                          !
 ! A11   A(4,6,16)             109.9952         estimate D2E/DX2                !
 ! A12   A(4,6,17)             109.7479         estimate D2E/DX2                !
 ! A13   A(4,6,18)             111.8422         estimate D2E/DX2                !
 ! A14   A(16,6,17)            114.9972         estimate D2E/DX2                !
 ! A15   A(16,6,18)            108.0658         estimate D2E/DX2                !
 ! A16   A(17,6,18)            101.9869         estimate D2E/DX2                !
 ! A17   A(3,7,19)             103.269          estimate D2E/DX2                !
 ! A18   A(3,7,20)             114.3706         estimate D2E/DX2                !
 ! A19   A(3,7,21)             111.9733         estimate D2E/DX2                !
 ! A20   A(19,7,20)            106.3205         estimate D2E/DX2                !
 ! A21   A(19,7,21)            112.6973         estimate D2E/DX2                !
 ! A22   A(20,7,21)            108.1076         estimate D2E/DX2                !
 ! A23   A(2,8,13)             111.4365         estimate D2E/DX2                !
 ! A24   A(2,8,14)             107.7362         estimate D2E/DX2                !
 ! A25   A(2,8,15)             107.5759         estimate D2E/DX2                !
 ! A26   A(13,8,14)            110.4391         estimate D2E/DX2                !
 ! A27   A(13,8,15)            110.7606         estimate D2E/DX2                !
 ! A28   A(14,8,15)            108.7751         estimate D2E/DX2                !
 ! A29   A(5,9,10)             113.7763         estimate D2E/DX2                !
 ! A30   A(5,9,11)             110.232          estimate D2E/DX2                !
 ! A31   A(5,9,12)             105.0571         estimate D2E/DX2                !
 ! A32   A(10,9,11)            105.2126         estimate D2E/DX2                !
 ! A33   A(10,9,12)            108.4598         estimate D2E/DX2                !
 ! A34   A(11,9,12)            114.3202         estimate D2E/DX2                !
 ! A35   A(9,10,23)            115.8437         estimate D2E/DX2                !
 ! A36   A(9,11,24)            117.3552         estimate D2E/DX2                !
 ! A37   A(9,12,22)            116.8567         estimate D2E/DX2                !
 ! A38   A(8,13,25)            116.8991         estimate D2E/DX2                !
 ! A39   A(8,14,27)            114.056          estimate D2E/DX2                !
 ! A40   A(8,15,26)            117.2166         estimate D2E/DX2                !
 ! A41   A(6,16,32)            116.4907         estimate D2E/DX2                !
 ! A42   A(6,17,33)            117.1859         estimate D2E/DX2                !
 ! A43   A(6,18,31)            116.3076         estimate D2E/DX2                !
 ! A44   A(7,19,30)            115.1373         estimate D2E/DX2                !
 ! A45   A(7,20,28)            116.1676         estimate D2E/DX2                !
 ! A46   A(7,21,29)            116.2372         estimate D2E/DX2                !
 ! D1    D(3,1,2,8)             57.7292         estimate D2E/DX2                !
 ! D2    D(4,1,2,8)            -52.5301         estimate D2E/DX2                !
 ! D3    D(5,1,2,8)           -174.7067         estimate D2E/DX2                !
 ! D4    D(2,1,3,7)            -50.098          estimate D2E/DX2                !
 ! D5    D(4,1,3,7)             58.8315         estimate D2E/DX2                !
 ! D6    D(5,1,3,7)           -175.9641         estimate D2E/DX2                !
 ! D7    D(2,1,4,6)             42.7683         estimate D2E/DX2                !
 ! D8    D(3,1,4,6)            -68.2312         estimate D2E/DX2                !
 ! D9    D(5,1,4,6)            164.8802         estimate D2E/DX2                !
 ! D10   D(3,1,5,9)             15.4392         Frozen                          !
 ! D11   D(2,1,9,10)           157.2651         estimate D2E/DX2                !
 ! D12   D(2,1,9,11)            35.5375         estimate D2E/DX2                !
 ! D13   D(2,1,9,12)           -87.054          estimate D2E/DX2                !
 ! D14   D(3,1,9,10)           -82.7855         estimate D2E/DX2                !
 ! D15   D(3,1,9,11)           155.4869         estimate D2E/DX2                !
 ! D16   D(3,1,9,12)            32.8954         estimate D2E/DX2                !
 ! D17   D(4,1,9,10)            37.3643         estimate D2E/DX2                !
 ! D18   D(4,1,9,11)           -84.3632         estimate D2E/DX2                !
 ! D19   D(4,1,9,12)           153.0453         estimate D2E/DX2                !
 ! D20   D(1,2,8,13)            93.5308         estimate D2E/DX2                !
 ! D21   D(1,2,8,14)           -27.7655         estimate D2E/DX2                !
 ! D22   D(1,2,8,15)          -144.8802         estimate D2E/DX2                !
 ! D23   D(1,3,7,19)           -61.1012         estimate D2E/DX2                !
 ! D24   D(1,3,7,20)          -176.1751         estimate D2E/DX2                !
 ! D25   D(1,3,7,21)            60.409          estimate D2E/DX2                !
 ! D26   D(1,4,6,16)           160.167          estimate D2E/DX2                !
 ! D27   D(1,4,6,17)            32.6925         estimate D2E/DX2                !
 ! D28   D(1,4,6,18)           -79.742          estimate D2E/DX2                !
 ! D29   D(1,5,9,12)            18.3486         Frozen                          !
 ! D30   D(4,6,16,32)          -14.1998         estimate D2E/DX2                !
 ! D31   D(17,6,16,32)         110.2979         estimate D2E/DX2                !
 ! D32   D(18,6,16,32)        -136.5531         estimate D2E/DX2                !
 ! D33   D(4,6,17,33)           51.0095         estimate D2E/DX2                !
 ! D34   D(16,6,17,33)         -73.6179         estimate D2E/DX2                !
 ! D35   D(18,6,17,33)         169.7166         estimate D2E/DX2                !
 ! D36   D(4,6,18,31)          -96.4424         estimate D2E/DX2                !
 ! D37   D(16,6,18,31)          24.7715         estimate D2E/DX2                !
 ! D38   D(17,6,18,31)         146.349          estimate D2E/DX2                !
 ! D39   D(3,7,19,30)         -162.1837         estimate D2E/DX2                !
 ! D40   D(20,7,19,30)         -41.4662         estimate D2E/DX2                !
 ! D41   D(21,7,19,30)          76.796          estimate D2E/DX2                !
 ! D42   D(3,7,20,28)          -98.427          estimate D2E/DX2                !
 ! D43   D(19,7,20,28)         148.2947         estimate D2E/DX2                !
 ! D44   D(21,7,20,28)          27.0455         estimate D2E/DX2                !
 ! D45   D(3,7,21,29)          -49.8995         estimate D2E/DX2                !
 ! D46   D(19,7,21,29)          66.0156         estimate D2E/DX2                !
 ! D47   D(20,7,21,29)        -176.7753         estimate D2E/DX2                !
 ! D48   D(2,8,13,25)          -58.468          estimate D2E/DX2                !
 ! D49   D(14,8,13,25)          61.2404         estimate D2E/DX2                !
 ! D50   D(15,8,13,25)        -178.1888         estimate D2E/DX2                !
 ! D51   D(2,8,14,27)           80.2918         estimate D2E/DX2                !
 ! D52   D(13,8,14,27)         -41.6247         estimate D2E/DX2                !
 ! D53   D(15,8,14,27)        -163.3756         estimate D2E/DX2                !
 ! D54   D(2,8,15,26)         -174.1994         estimate D2E/DX2                !
 ! D55   D(13,8,15,26)         -52.1897         estimate D2E/DX2                !
 ! D56   D(14,8,15,26)          69.3652         estimate D2E/DX2                !
 ! D57   D(5,9,10,23)          -94.8509         estimate D2E/DX2                !
 ! D58   D(11,9,10,23)          25.9075         estimate D2E/DX2                !
 ! D59   D(12,9,10,23)         148.64           estimate D2E/DX2                !
 ! D60   D(5,9,11,24)          -43.8211         estimate D2E/DX2                !
 ! D61   D(10,9,11,24)        -166.8802         estimate D2E/DX2                !
 ! D62   D(12,9,11,24)          74.2389         estimate D2E/DX2                !
 ! D63   D(5,9,12,22)         -166.4767         estimate D2E/DX2                !
 ! D64   D(10,9,12,22)         -44.4746         estimate D2E/DX2                !
 ! D65   D(11,9,12,22)          72.5544         estimate D2E/DX2                !
 --------------------------------------------------------------------------------
 Trust Radius=3.00D-01 FncErr=1.00D-07 GrdErr=1.00D-06 EigMax=2.50D+02 EigMin=1.00D-04
 Number of steps in this run=    153 maximum allowed number of steps=    198.
 GradGradGradGradGradGradGradGradGradGradGradGradGradGradGradGradGradGrad

                          Input orientation:                          
 ---------------------------------------------------------------------
 Center     Atomic      Atomic             Coordinates (Angstroms)
 Number     Number       Type             X           Y           Z
 ---------------------------------------------------------------------
      1         40           0        0.657790   -0.125060   -0.071640
      2          8           0       -0.222850   -0.906240    1.477300
      3          8           0        0.103020    1.747480   -0.122990
      4          8           0       -0.268300   -0.978850   -1.597050
      5          8           0        2.592060   -0.436300   -0.082840
      6         14           0       -1.831190   -1.332440   -1.953600
      7         14           0       -1.115500    2.841720   -0.082790
      8         14           0       -1.723760   -1.152910    2.115170
      9         14           0        4.227420   -0.419710   -0.025180
     10          8           0        4.944820   -0.324460   -1.509040
     11          8           0        4.791770   -1.828450    0.641110
     12          8           0        4.612410    0.938090    0.829340
     13          8           0       -2.319240   -2.624000    1.696270
     14          8           0       -2.724220    0.065080    1.550860
     15          8           0       -1.597340   -1.019570    3.744390
     16          8           0       -2.001440   -1.559650   -3.577820
     17          8           0       -2.825090   -0.186760   -1.301450
     18          8           0       -2.344480   -2.714390   -1.182770
     19          8           0       -2.040460    2.439570   -1.430230
     20          8           0       -0.635650    4.400490   -0.299870
     21          8           0       -1.965510    2.760860    1.313830
     22          1           0        5.531410    1.226100    0.798130
     23          1           0        5.204000   -1.164140   -1.905130
     24          1           0        4.340850   -2.158790    1.426100
     25          1           0       -2.405770   -2.809510    0.743920
     26          1           0       -2.381370   -1.224230    4.265350
     27          1           0       -3.060340   -0.083060    0.645890
     28          1           0       -0.527310    4.927280    0.500150
     29          1           0       -2.269090    1.869320    1.585330
     30          1           0       -2.648540    3.126760   -1.730140
     31          1           0       -2.304520   -3.529520   -1.695620
     32          1           0       -1.271140   -1.263050   -4.132230
     33          1           0       -2.610260    0.754610   -1.489930
 ---------------------------------------------------------------------
                    Distance matrix (angstroms):
                    1          2          3          4          5
     1  Zr   0.000000
     2  O    1.945504   0.000000
     3  O    1.953666   3.115983   0.000000
     4  O    1.978251   3.075543   3.121475   0.000000
     5  O    1.959183   3.252476   3.311469   3.281593   0.000000
     6  Si   3.345827   3.813067   4.071635   1.641578   4.885484
     7  Si   3.456366   4.156670   1.638221   4.196128   4.948880
     8  Si   3.392697   1.649380   4.093745   3.991145   4.896027
     9  Si   3.582071   4.722188   4.660145   4.795301   1.636460
    10  O    4.525981   5.996791   5.445833   5.254769   2.753549
    11  O    4.527620   5.166827   5.946049   5.597811   2.702019
    12  O    4.192979   5.215472   4.679385   5.777833   2.608224
    13  O    4.270002   2.719099   5.318542   4.214123   5.663226
    14  O    3.755882   2.684348   3.691278   4.126823   5.584191
    15  O    4.521929   2.653632   5.050190   5.504452   5.704294
    16  O    4.628483   5.398571   5.225104   2.695283   5.880225
    17  O    3.694143   3.874372   3.701875   2.692947   5.558129
    18  O    4.117386   3.853141   5.198238   2.737563   5.546978
    19  O    3.962783   4.790812   2.604299   3.854086   5.616612
    20  O    4.712290   5.611606   2.759598   5.545712   5.818913
    21  O    4.138812   4.063399   2.714813   5.033803   5.739683
    22  H    5.131696   6.174112   5.530616   6.650964   3.489908
    23  H    5.010928   6.399847   6.137878   5.484096   3.266913
    24  H    4.465895   4.732743   5.968067   5.637017   2.881343
    25  H    4.154132   2.987545   5.273682   3.660633   5.594101
    26  H    5.408711   3.540275   5.853271   6.236426   6.653014
    27  H    3.786965   3.069237   3.734823   3.691708   5.710118
    28  H    5.220876   5.922624   3.301022   6.272775   6.232041
    29  H    3.910208   3.450000   2.925766   4.716225   5.632890
    30  H    4.925117   5.695325   3.472237   4.747556   6.547739
    31  H    4.796138   4.613282   6.009671   3.265245   6.012118
    32  H    4.637260   5.717784   5.198616   2.741094   5.657331
    33  H    3.669539   4.154829   3.196280   2.915671   5.519266
                    6          7          8          9         10
     6  Si   0.000000
     7  Si   4.629876   0.000000
     8  Si   4.074145   4.599791   0.000000
     9  Si   6.423288   6.259955   6.366728   0.000000
    10  O    6.864981   6.984724   7.634867   1.650932   0.000000
    11  O    7.130368   7.565075   6.714264   1.657402   2.628413
    12  O    7.376994   6.104485   6.795049   1.649861   2.678162
    13  O    3.902290   5.872660   1.641396   7.119062   8.266103
    14  O    3.877087   3.600906   1.674176   7.144524   8.266130
    15  O    5.711363   5.457933   1.639549   6.964002   8.419119
    16  O    1.648848   5.689656   5.714252   7.260813   7.352284
    17  O    1.650975   3.685040   3.717481   7.170846   7.773902
    18  O    1.663560   5.795749   3.701340   7.056588   7.678028
    19  O    3.813892   1.683113   5.057279   7.031072   7.512670
    20  O    6.085279   1.645340   6.152776   6.852681   7.411403
    21  O    5.239203   1.636949   4.002272   7.089524   8.077156
    22  H    8.265956   6.896931   7.748017   2.255420   2.841013
    23  H    7.037370   7.700904   8.009794   2.245461   0.963911
    24  H    7.085147   7.553384   6.185960   2.267924   3.513487
    25  H    3.128657   5.855309   2.256056   7.092381   8.079757
    26  H    6.244177   6.086107   2.249625   7.920354   9.371565
    27  H    3.135141   3.587160   2.256060   7.326330   8.293647
    28  H    6.848729   2.243958   6.403787   7.174520   7.846134
    29  H    4.792395   2.249212   3.116406   7.073757   8.150355
    30  H    4.538993   2.268308   5.827281   7.922321   8.343795
    31  H    2.262246   6.678899   4.528540   7.424791   7.928439
    32  H    2.250533   5.768130   6.264743   6.914712   6.811772
    33  H    2.275460   2.927521   4.173878   7.090725   7.631775
                   11         12         13         14         15
    11  O    0.000000
    12  O    2.778731   0.000000
    13  O    7.232754   7.841417   0.000000
    14  O    7.804051   7.423535   2.723289   0.000000
    15  O    7.148801   7.133789   2.700024   2.694049   0.000000
    16  O    8.001208   8.330953   5.389792   5.428215   7.353213
    17  O    8.030270   7.818053   3.896453   2.865182   5.259415
    18  O    7.418726   8.110950   2.880569   3.916936   5.263795
    19  O    8.317801   7.184760   5.957555   3.872032   6.240088
    20  O    8.315168   6.387915   7.494165   5.155881   6.830662
    21  O    8.196045   6.842971   5.410000   2.810526   4.509415
    22  H    3.146744   0.963579   8.789916   8.370782   8.033838
    23  H    2.663565   3.499525   8.467610   8.735647   8.842862
    24  H    0.963671   3.165523   6.681782   7.407859   6.475677
    25  H    7.264821   7.956548   0.974101   3.002637   3.586121
    26  H    8.059413   8.086702   2.926327   3.024619   0.963321
    27  H    8.043758   7.742577   2.847614   0.976674   3.552200
    28  H    8.599556   6.514501   7.852614   5.437959   6.858213
    29  H    8.026257   6.985252   4.494969   1.861079   3.668579
    30  H    9.248521   8.003912   6.702236   4.488271   6.947485
    31  H    7.662328   8.612716   3.510712   4.861783   6.032716
    32  H    7.737140   8.004896   6.076357   6.014390   7.887131
    33  H    8.124259   7.588125   4.653125   3.120071   5.618881
                   16         17         18         19         20
    16  O    0.000000
    17  O    2.783000   0.000000
    18  O    2.680926   2.575652   0.000000
    19  O    4.539540   2.744055   5.168846   0.000000
    20  O    6.937839   5.180702   7.370287   2.663909   0.000000
    21  O    6.526587   4.033241   6.029510   2.763822   2.657243
    22  H    9.146211   8.731294   9.026687   7.985694   7.022463
    23  H    7.407610   8.110856   7.739808   8.105212   8.224566
    24  H    8.100792   7.917015   7.197814   8.368073   8.412412
    25  H    4.516976   3.352340   1.930010   5.693261   7.497128
    26  H    7.859527   5.680008   5.648358   6.780802   7.451594
    27  H    4.597968   1.964238   3.283344   3.422586   5.184188
    28  H    7.802766   5.888884   8.033022   3.493521   0.963990
    29  H    6.203837   3.587492   5.355227   3.077509   3.553720
    30  H    5.078888   3.345797   5.874615   0.965369   2.778450
    31  H    2.741336   3.405937   0.963872   5.980819   8.223035
    32  H    0.963680   3.403891   3.458000   4.647801   6.867788
    33  H    3.175806   0.983796   3.492699   1.779698   4.313672
                   21         22         23         24         25
    21  O    0.000000
    22  H    7.669762   0.000000
    23  H    8.784600   3.623266   0.000000
    24  H    7.999109   3.642700   3.582101   0.000000
    25  H    5.616729   8.904376   8.223947   6.812172   0.000000
    26  H    4.976480   8.979856   9.778357   7.356833   3.861888
    27  H    3.119724   8.692252   8.716407   7.726254   2.805637
    28  H    2.724678   7.106027   8.702797   8.646893   7.965297
    29  H    0.980162   7.866461   8.788189   7.742243   4.755849
    30  H    3.141045   8.770190   8.950130   9.313993   6.435776
    31  H    6.981447   9.499290   7.875074   7.468934   2.545589
    32  H    6.806877   8.762363   6.848153   7.949328   5.239825
    33  H    3.507394   8.470201   8.057087   8.081402   4.211277
                   26         27         28         29         30
    26  H    0.000000
    27  H    3.855355   0.000000
    28  H    7.446835   5.616136   0.000000
    29  H    4.094529   2.306602   3.682734   0.000000
    30  H    7.412718   4.014728   3.565906   3.566157   0.000000
    31  H    6.391669   4.234622   8.916129   6.317702   6.665254
    32  H    8.470742   5.236797   7.767394   6.595312   5.190154
    33  H    6.090275   2.337946   5.070530   3.288799   2.384588
                   31         32         33
    31  H    0.000000
    32  H    3.484513   0.000000
    33  H    4.299948   3.584124   0.000000
 Stoichiometry    H12O16Si4Zr
 Framework group  C1[X(H12O16Si4Zr)]
 Deg. of freedom    93
 Full point group                 C1      NOp   1
 Largest Abelian subgroup         C1      NOp   1
 Largest concise Abelian subgroup C1      NOp   1
                         Standard orientation:                         
 ---------------------------------------------------------------------
 Center     Atomic      Atomic             Coordinates (Angstroms)
 Number     Number       Type             X           Y           Z
 ---------------------------------------------------------------------
      1         40           0        0.659759   -0.060355   -0.057314
      2          8           0       -0.197402   -0.876912    1.486542
      3          8           0        0.018273    1.783908   -0.120588
      4          8           0       -0.211284   -0.961669   -1.587802
      5          8           0        2.606519   -0.280511   -0.049990
      6         14           0       -1.752546   -1.389385   -1.957057
      7         14           0       -1.250541    2.819883   -0.095390
      8         14           0       -1.690862   -1.191653    2.111819
      9         14           0        4.238706   -0.187003    0.022290
     10          8           0        4.964387   -0.063063   -1.455411
     11          8           0        4.862386   -1.565510    0.698841
     12          8           0        4.551764    1.190167    0.875191
     13          8           0       -2.212840   -2.690435    1.693048
     14          8           0       -2.742141   -0.023816    1.534035
     15          8           0       -1.585737   -1.047178    3.741603
     16          8           0       -1.897094   -1.629666   -3.581887
     17          8           0       -2.805004   -0.289476   -1.318112
     18          8           0       -2.207487   -2.791363   -1.185748
     19          8           0       -2.143264    2.370346   -1.449581
     20          8           0       -0.842358    4.398734   -0.313932
     21          8           0       -2.108558    2.703807    1.293831
     22          1           0        5.456492    1.520885    0.851167
     23          1           0        5.266272   -0.890950   -1.846041
     24          1           0        4.420296   -1.914069    1.480970
     25          1           0       -2.281863   -2.882928    0.740654
     26          1           0       -2.364037   -1.286695    4.256257
     27          1           0       -3.062655   -0.190537    0.626639
     28          1           0       -0.766163    4.932652    0.485069
     29          1           0       -2.372462    1.799899    1.565899
     30          1           0       -2.780135    3.027253   -1.757486
     31          1           0       -2.124655   -3.605399   -1.695191
     32          1           0       -1.176469   -1.300942   -4.130813
     33          1           0       -2.632845    0.660315   -1.508145
 ---------------------------------------------------------------------
 Rotational constants (GHZ):           0.2117278           0.1334494           0.1235051
 General basis read from cards:  (5D, 7F)
 ======================================================================================================
                                       Pseudopotential Parameters
 ======================================================================================================
  Center     Atomic      Valence      Angular      Power
  Number     Number     Electrons     Momentum     of R      Exponent        Coefficient   SO-Coeffient
 ======================================================================================================
    1         40           12
                                      G and up 
                                                     2        1.0000000        0.00000000    0.00000000
                                      S - G
                                                     2        8.6365280      150.24299400    0.00000000
                                                     2        3.7176390       18.78003600    0.00000000
                                      P - G
                                                     2        7.6267280       33.19279100    0.00000000
                                                     2        7.4532070       66.38903900    0.00000000
                                                     2        3.3583890        4.62072600    0.00000000
                                                     2        3.2297380        9.26027000    0.00000000
                                      D - G
                                                     2        5.9380860       13.99338300    0.00000000
                                                     2        5.8255440       20.99588200    0.00000000
                                                     2        2.2050190        2.28516600    0.00000000
                                                     2        2.2062920        3.44126000    0.00000000
                                      F - G
                                                     2        4.8002150       -5.23932000    0.00000000
                                                     2        4.7989920       -6.98742400    0.00000000
    2          8
                                   No pseudopotential on this center.
    3          8
                                   No pseudopotential on this center.
    4          8
                                   No pseudopotential on this center.
    5          8
                                   No pseudopotential on this center.
    6         14
                                   No pseudopotential on this center.
    7         14
                                   No pseudopotential on this center.
    8         14
                                   No pseudopotential on this center.
    9         14
                                   No pseudopotential on this center.
   10          8
                                   No pseudopotential on this center.
   11          8
                                   No pseudopotential on this center.
   12          8
                                   No pseudopotential on this center.
   13          8
                                   No pseudopotential on this center.
   14          8
                                   No pseudopotential on this center.
   15          8
                                   No pseudopotential on this center.
   16          8
                                   No pseudopotential on this center.
   17          8
                                   No pseudopotential on this center.
   18          8
                                   No pseudopotential on this center.
   19          8
                                   No pseudopotential on this center.
   20          8
                                   No pseudopotential on this center.
   21          8
                                   No pseudopotential on this center.
   22          1
                                   No pseudopotential on this center.
   23          1
                                   No pseudopotential on this center.
   24          1
                                   No pseudopotential on this center.
   25          1
                                   No pseudopotential on this center.
   26          1
                                   No pseudopotential on this center.
   27          1
                                   No pseudopotential on this center.
   28          1
                                   No pseudopotential on this center.
   29          1
                                   No pseudopotential on this center.
   30          1
                                   No pseudopotential on this center.
   31          1
                                   No pseudopotential on this center.
   32          1
                                   No pseudopotential on this center.
   33          1
                                   No pseudopotential on this center.
 ======================================================================================================
 There are   570 symmetry adapted cartesian basis functions of A   symmetry.
 There are   524 symmetry adapted basis functions of A   symmetry.
   524 basis functions,  1074 primitive gaussians,   570 cartesian basis functions
   104 alpha electrons      104 beta electrons
       nuclear repulsion energy      2830.4387302901 Hartrees.
 NAtoms=   33 NActive=   33 NUniq=   33 SFac= 1.00D+00 NAtFMM=   60 NAOKFM=F Big=F
 Integral buffers will be    131072 words long.
 Raffenetti 2 integral format.
 Two-electron integral symmetry is turned on.
 Nuclear repulsion after empirical dispersion term =     2830.3979623177 Hartrees.
 One-electron integrals computed using PRISM.
 PrsmSu:  requested number of processors reduced to:   4 ShMem   1 Linda.
   1 Symmetry operations used in ECPInt.
 ECPInt:  NShTT=   13203 NPrTT=   78401 LenC2=   11524 LenP2D=   44606.
 LDataN:  DoStor=T MaxTD1= 8 Len=  415
 Number of processors reduced to  13 by ecpmxn.
 NBasis=   524 RedAO= T EigKep=  3.20D-05  NBF=   524
 NBsUse=   524 1.00D-06 EigRej= -1.00D+00 NBFU=   524
 Defaulting to unpruned grid for atomic number  40.
 ExpMin= 1.01D-02 ExpMax= 1.61D+04 ExpMxC= 2.43D+03 IAcc=3 IRadAn=         5 AccDes= 0.00D+00
 Harris functional with IExCor=  402 and IRadAn=       5 diagonalized for initial guess.
 HarFok:  IExCor=  402 AccDes= 0.00D+00 IRadAn=         5 IDoV= 1 UseB2=F ITyADJ=14
 ICtDFT=  3500011 ScaDFX=  1.000000  1.000000  1.000000  1.000000
 Defaulting to unpruned grid for atomic number  40.
 FoFCou: FMM=F IPFlag=           0 FMFlag=      100000 FMFlg1=           0
         NFxFlg=           0 DoJE=T BraDBF=F KetDBF=T FulRan=T
         wScrn=  0.000000 ICntrl=       500 IOpCl=  0 I1Cent=   200000004 NGrid=           0
         NMat0=    1 NMatS0=      1 NMatT0=    0 NMatD0=    1 NMtDS0=    0 NMtDT0=    0
 Petite list used in FoFCou.
 Requested convergence on RMS density matrix=1.00D-08 within 128 cycles.
 Requested convergence on MAX density matrix=1.00D-06.
 Requested convergence on             energy=1.00D-06.
 No special actions if energy rises.
 Defaulting to unpruned grid for atomic number  40.
 Defaulting to unpruned grid for atomic number  40.
 Defaulting to unpruned grid for atomic number  40.
 Defaulting to unpruned grid for atomic number  40.
 Defaulting to unpruned grid for atomic number  40.
 Defaulting to unpruned grid for atomic number  40.
 Defaulting to unpruned grid for atomic number  40.
 Defaulting to unpruned grid for atomic number  40.
 Defaulting to unpruned grid for atomic number  40.
 Defaulting to unpruned grid for atomic number  40.
 Defaulting to unpruned grid for atomic number  40.
 Defaulting to unpruned grid for atomic number  40.
 Defaulting to unpruned grid for atomic number  40.
 Defaulting to unpruned grid for atomic number  40.
 Defaulting to unpruned grid for atomic number  40.
 Defaulting to unpruned grid for atomic number  40.
 SCF Done:  E(RB3LYP) =  -2416.94682026     A.U. after   14 cycles
            NFock= 14  Conv=0.28D-08     -V/T= 2.0185

 **********************************************************************

            Population analysis using the SCF Density.

 **********************************************************************

 Orbital symmetries:
       Occupied  (A) (A) (A) (A) (A) (A) (A) (A) (A) (A) (A) (A)
                 (A) (A) (A) (A) (A) (A) (A) (A) (A) (A) (A) (A)
                 (A) (A) (A) (A) (A) (A) (A) (A) (A) (A) (A) (A)
                 (A) (A) (A) (A) (A) (A) (A) (A) (A) (A) (A) (A)
                 (A) (A) (A) (A) (A) (A) (A) (A) (A) (A) (A) (A)
                 (A) (A) (A) (A) (A) (A) (A) (A) (A) (A) (A) (A)
                 (A) (A) (A) (A) (A) (A) (A) (A) (A) (A) (A) (A)
                 (A) (A) (A) (A) (A) (A) (A) (A) (A) (A) (A) (A)
                 (A) (A) (A) (A) (A) (A) (A) (A)
       Virtual   (A) (A) (A) (A) (A) (A) (A) (A) (A) (A) (A) (A)
                 (A) (A) (A) (A) (A) (A) (A) (A) (A) (A) (A) (A)
                 (A) (A) (A) (A) (A) (A) (A) (A) (A) (A) (A) (A)
                 (A) (A) (A) (A) (A) (A) (A) (A) (A) (A) (A) (A)
                 (A) (A) (A) (A) (A) (A) (A) (A) (A) (A) (A) (A)
                 (A) (A) (A) (A) (A) (A) (A) (A) (A) (A) (A) (A)
                 (A) (A) (A) (A) (A) (A) (A) (A) (A) (A) (A) (A)
                 (A) (A) (A) (A) (A) (A) (A) (A) (A) (A) (A) (A)
                 (A) (A) (A) (A) (A) (A) (A) (A) (A) (A) (A) (A)
                 (A) (A) (A) (A) (A) (A) (A) (A) (A) (A) (A) (A)
                 (A) (A) (A) (A) (A) (A) (A) (A) (A) (A) (A) (A)
                 (A) (A) (A) (A) (A) (A) (A) (A) (A) (A) (A) (A)
                 (A) (A) (A) (A) (A) (A) (A) (A) (A) (A) (A) (A)
                 (A) (A) (A) (A) (A) (A) (A) (A) (A) (A) (A) (A)
                 (A) (A) (A) (A) (A) (A) (A) (A) (A) (A) (A) (A)
                 (A) (A) (A) (A) (A) (A) (A) (A) (A) (A) (A) (A)
                 (A) (A) (A) (A) (A) (A) (A) (A) (A) (A) (A) (A)
                 (A) (A) (A) (A) (A) (A) (A) (A) (A) (A) (A) (A)
                 (A) (A) (A) (A) (A) (A) (A) (A) (A) (A) (A) (A)
                 (A) (A) (A) (A) (A) (A) (A) (A) (A) (A) (A) (A)
                 (A) (A) (A) (A) (A) (A) (A) (A) (A) (A) (A) (A)
                 (A) (A) (A) (A) (A) (A) (A) (A) (A) (A) (A) (A)
                 (A) (A) (A) (A) (A) (A) (A) (A) (A) (A) (A) (A)
                 (A) (A) (A) (A) (A) (A) (A) (A) (A) (A) (A) (A)
                 (A) (A) (A) (A) (A) (A) (A) (A) (A) (A) (A) (A)
                 (A) (A) (A) (A) (A) (A) (A) (A) (A) (A) (A) (A)
                 (A) (A) (A) (A) (A) (A) (A) (A) (A) (A) (A) (A)
                 (A) (A) (A) (A) (A) (A) (A) (A) (A) (A) (A) (A)
                 (A) (A) (A) (A) (A) (A) (A) (A) (A) (A) (A) (A)
                 (A) (A) (A) (A) (A) (A) (A) (A) (A) (A) (A) (A)
                 (A) (A) (A) (A) (A) (A) (A) (A) (A) (A) (A) (A)
                 (A) (A) (A) (A) (A) (A) (A) (A) (A) (A) (A) (A)
                 (A) (A) (A) (A) (A) (A) (A) (A) (A) (A) (A) (A)
                 (A) (A) (A) (A) (A) (A) (A) (A) (A) (A) (A) (A)
                 (A) (A) (A) (A) (A) (A) (A) (A) (A) (A) (A) (A)
 The electronic state is 1-A.
 Alpha  occ. eigenvalues --  -66.22838 -66.21780 -66.21486 -66.21072 -19.18622
 Alpha  occ. eigenvalues --  -19.18375 -19.17817 -19.17056 -19.16756 -19.16546
 Alpha  occ. eigenvalues --  -19.16438 -19.16215 -19.16156 -19.16055 -19.16026
 Alpha  occ. eigenvalues --  -19.15528 -19.15327 -19.15299 -19.14922 -19.14741
 Alpha  occ. eigenvalues --   -5.36899  -5.35861  -5.35558  -5.35132  -3.72882
 Alpha  occ. eigenvalues --   -3.72856  -3.72809  -3.71853  -3.71806  -3.71771
 Alpha  occ. eigenvalues --   -3.71527  -3.71519  -3.71478  -3.71097  -3.71088
 Alpha  occ. eigenvalues --   -3.71063  -2.13408  -1.29644  -1.29564  -1.29409
 Alpha  occ. eigenvalues --   -1.05712  -1.04801  -1.04135  -1.03528  -1.02596
 Alpha  occ. eigenvalues --   -1.02196  -1.01499  -1.00892  -1.00749  -1.00693
 Alpha  occ. eigenvalues --   -0.99861  -0.99336  -0.97392  -0.96317  -0.95746
 Alpha  occ. eigenvalues --   -0.95428  -0.61022  -0.59182  -0.58971  -0.58522
 Alpha  occ. eigenvalues --   -0.55571  -0.54557  -0.53851  -0.53067  -0.52963
 Alpha  occ. eigenvalues --   -0.52523  -0.52178  -0.51738  -0.48814  -0.47623
 Alpha  occ. eigenvalues --   -0.47229  -0.46764  -0.43405  -0.42683  -0.41892
 Alpha  occ. eigenvalues --   -0.41416  -0.41098  -0.40575  -0.39856  -0.39363
 Alpha  occ. eigenvalues --   -0.38823  -0.38716  -0.38648  -0.38163  -0.38051
 Alpha  occ. eigenvalues --   -0.37646  -0.37514  -0.37221  -0.36541  -0.36432
 Alpha  occ. eigenvalues --   -0.36074  -0.35645  -0.35487  -0.35111  -0.34882
 Alpha  occ. eigenvalues --   -0.34633  -0.34021  -0.33707  -0.33500  -0.33290
 Alpha  occ. eigenvalues --   -0.32826  -0.32162  -0.32077  -0.31335
 Alpha virt. eigenvalues --   -0.04358  -0.03202  -0.03066  -0.02748  -0.02120
 Alpha virt. eigenvalues --   -0.01202  -0.00591  -0.00178   0.00106   0.00309
 Alpha virt. eigenvalues --    0.00722   0.00930   0.00995   0.01923   0.02336
 Alpha virt. eigenvalues --    0.03262   0.03347   0.03843   0.03884   0.04059
 Alpha virt. eigenvalues --    0.04189   0.04658   0.05545   0.05817   0.06137
 Alpha virt. eigenvalues --    0.06442   0.07108   0.07488   0.07710   0.08655
 Alpha virt. eigenvalues --    0.08787   0.09001   0.09163   0.09613   0.09926
 Alpha virt. eigenvalues --    0.10351   0.10593   0.10912   0.11183   0.11662
 Alpha virt. eigenvalues --    0.11896   0.12524   0.13207   0.13356   0.13728
 Alpha virt. eigenvalues --    0.13940   0.14435   0.14826   0.15040   0.15280
 Alpha virt. eigenvalues --    0.15406   0.15737   0.16178   0.16735   0.16859
 Alpha virt. eigenvalues --    0.17360   0.17503   0.17685   0.18132   0.18474
 Alpha virt. eigenvalues --    0.18541   0.18653   0.19170   0.19685   0.19737
 Alpha virt. eigenvalues --    0.20149   0.20312   0.20597   0.20954   0.21191
 Alpha virt. eigenvalues --    0.21728   0.21937   0.22330   0.22368   0.22747
 Alpha virt. eigenvalues --    0.23175   0.23693   0.24010   0.24164   0.24419
 Alpha virt. eigenvalues --    0.24703   0.25077   0.25561   0.25642   0.26080
 Alpha virt. eigenvalues --    0.26557   0.26726   0.26936   0.27253   0.27489
 Alpha virt. eigenvalues --    0.27896   0.28247   0.28480   0.28775   0.29053
 Alpha virt. eigenvalues --    0.29403   0.29706   0.29995   0.30355   0.30456
 Alpha virt. eigenvalues --    0.30748   0.31189   0.31399   0.31573   0.32076
 Alpha virt. eigenvalues --    0.32479   0.32667   0.33146   0.33606   0.34014
 Alpha virt. eigenvalues --    0.34312   0.34576   0.35380   0.35659   0.36343
 Alpha virt. eigenvalues --    0.36830   0.37500   0.37767   0.38207   0.38912
 Alpha virt. eigenvalues --    0.39225   0.39939   0.40133   0.41122   0.41706
 Alpha virt. eigenvalues --    0.42707   0.43106   0.43819   0.44216   0.44694
 Alpha virt. eigenvalues --    0.45309   0.45721   0.46035   0.46778   0.47482
 Alpha virt. eigenvalues --    0.47736   0.48481   0.48739   0.49248   0.49505
 Alpha virt. eigenvalues --    0.49926   0.50893   0.51114   0.51279   0.52760
 Alpha virt. eigenvalues --    0.53937   0.54481   0.55197   0.56692   0.57279
 Alpha virt. eigenvalues --    0.58066   0.58772   0.59376   0.59489   0.60145
 Alpha virt. eigenvalues --    0.61371   0.61767   0.62139   0.63773   0.65840
 Alpha virt. eigenvalues --    0.66992   0.67831   0.68312   0.69053   0.69357
 Alpha virt. eigenvalues --    0.70134   0.70901   0.72913   0.74407   0.75265
 Alpha virt. eigenvalues --    0.75516   0.77283   0.78461   0.78859   0.80748
 Alpha virt. eigenvalues --    0.80857   0.81536   0.82733   0.84096   0.85435
 Alpha virt. eigenvalues --    0.86668   0.87898   0.89706   0.90292   0.91272
 Alpha virt. eigenvalues --    0.94009   0.95664   0.96375   0.96831   0.97439
 Alpha virt. eigenvalues --    0.98181   0.98819   0.99051   0.99736   1.00316
 Alpha virt. eigenvalues --    1.00925   1.01446   1.02209   1.03018   1.04111
 Alpha virt. eigenvalues --    1.04240   1.05540   1.06335   1.06728   1.07887
 Alpha virt. eigenvalues --    1.09720   1.12473   1.15246   1.16150   1.16396
 Alpha virt. eigenvalues --    1.18609   1.19027   1.19951   1.20559   1.20848
 Alpha virt. eigenvalues --    1.21596   1.21704   1.22247   1.22731   1.22885
 Alpha virt. eigenvalues --    1.23409   1.23940   1.24175   1.25110   1.25738
 Alpha virt. eigenvalues --    1.26038   1.27141   1.27430   1.28051   1.28203
 Alpha virt. eigenvalues --    1.28923   1.29713   1.30121   1.30805   1.31316
 Alpha virt. eigenvalues --    1.32242   1.32722   1.32927   1.33540   1.34624
 Alpha virt. eigenvalues --    1.35200   1.35973   1.36591   1.36817   1.37644
 Alpha virt. eigenvalues --    1.39204   1.39758   1.40160   1.41164   1.41499
 Alpha virt. eigenvalues --    1.42662   1.43305   1.44099   1.45263   1.46475
 Alpha virt. eigenvalues --    1.46853   1.48832   1.50535   1.51758   1.53179
 Alpha virt. eigenvalues --    1.56700   1.57276   1.57635   1.59369   1.59445
 Alpha virt. eigenvalues --    1.60144   1.61021   1.61889   1.62608   1.63152
 Alpha virt. eigenvalues --    1.63229   1.63805   1.65028   1.65304   1.66671
 Alpha virt. eigenvalues --    1.67541   1.68041   1.69218   1.69809   1.70010
 Alpha virt. eigenvalues --    1.71009   1.71440   1.71665   1.72403   1.73318
 Alpha virt. eigenvalues --    1.74190   1.75140   1.75316   1.75793   1.76369
 Alpha virt. eigenvalues --    1.77114   1.77307   1.78696   1.78807   1.79708
 Alpha virt. eigenvalues --    1.80563   1.81604   1.82163   1.82643   1.82801
 Alpha virt. eigenvalues --    1.83612   1.84907   1.85095   1.85943   1.86749
 Alpha virt. eigenvalues --    1.87238   1.88099   1.88753   1.89560   1.90435
 Alpha virt. eigenvalues --    1.91242   1.91423   1.92411   1.92769   1.93637
 Alpha virt. eigenvalues --    1.94352   1.95961   1.96295   1.97248   1.97976
 Alpha virt. eigenvalues --    1.98446   2.00405   2.01082   2.02942   2.03628
 Alpha virt. eigenvalues --    2.05804   2.06547   2.07340   2.09754   2.10493
 Alpha virt. eigenvalues --    2.11346   2.12969   2.14209   2.15830   2.16248
 Alpha virt. eigenvalues --    2.17802   2.18464   2.18898   2.20420   2.28075
 Alpha virt. eigenvalues --    2.32221   2.33565   2.35380   2.39474   2.40447
 Alpha virt. eigenvalues --    2.41171   2.41244   2.41714   2.42788   2.43672
 Alpha virt. eigenvalues --    2.43997   2.45949   2.46699   2.47480   2.48966
 Alpha virt. eigenvalues --    2.50231   2.50330   2.51645   2.53000   2.53260
 Alpha virt. eigenvalues --    2.55471   2.57893   2.58816   2.60026   2.60694
 Alpha virt. eigenvalues --    2.61038   2.61833   2.62103   2.62361   2.62765
 Alpha virt. eigenvalues --    2.63161   2.63960   2.64481   2.64941   2.65951
 Alpha virt. eigenvalues --    2.66043   2.66448   2.67174   2.67537   2.68765
 Alpha virt. eigenvalues --    2.69353   2.70260   2.71197   2.71658   2.72168
 Alpha virt. eigenvalues --    2.72656   2.74236   2.75536   2.76680   2.77393
 Alpha virt. eigenvalues --    2.78953   2.80577   2.81412   2.82419   2.83431
 Alpha virt. eigenvalues --    2.83661   2.84714   2.86629   2.87737   2.88130
 Alpha virt. eigenvalues --    3.14337   3.20278   3.35841   3.41096   3.46942
 Alpha virt. eigenvalues --    3.47873   3.48426   3.48596   3.51072   3.51127
 Alpha virt. eigenvalues --    3.53097   3.54125   3.60286   3.61050   3.62063
 Alpha virt. eigenvalues --    3.66178   4.29351   4.58424   7.96778  31.31660
          Condensed to atoms (all electrons):
               1          2          3          4          5          6
     1  Zr  14.893275  -0.104681  -0.011714  -0.099112  -0.190651  -0.593761
     2  O   -0.104681   9.068636   0.021835  -0.043586  -0.059826   0.085807
     3  O   -0.011714   0.021835   8.852908   0.017502  -0.048060  -0.001238
     4  O   -0.099112  -0.043586   0.017502   8.821639  -0.056021  -0.705280
     5  O   -0.190651  -0.059826  -0.048060  -0.056021   9.478072  -0.011506
     6  Si  -0.593761   0.085807  -0.001238  -0.705280  -0.011506  14.043436
     7  Si  -0.587126  -0.030751  -0.889089  -0.009638  -0.037313   0.078312
     8  Si  -0.572154  -1.021496  -0.015413   0.062594  -0.019517  -0.010584
     9  Si  -0.290998  -0.046826  -0.040825  -0.039429  -1.263918   0.032797
    10  O   -0.009677   0.001258  -0.001244   0.001375   0.135588  -0.002028
    11  O   -0.050090   0.003336   0.002849   0.001076   0.307473  -0.001082
    12  O    0.035364   0.000208   0.004267   0.002143   0.157203  -0.002739
    13  O   -0.037024   0.184814   0.001783  -0.016008  -0.000379   0.038017
    14  O   -0.007492   0.267959  -0.016496  -0.007972   0.002697   0.025232
    15  O   -0.083241   0.294946  -0.000766   0.001305   0.000527  -0.000667
    16  O   -0.128464   0.004712  -0.000518   0.345832   0.003237  -0.420563
    17  O   -0.052992  -0.040637   0.008860   0.221432   0.001701  -0.474839
    18  O   -0.016568  -0.014593   0.003830   0.196790  -0.000419  -0.456624
    19  O    0.002305   0.008925   0.262898   0.009478   0.002267  -0.006036
    20  O   -0.148988  -0.000552   0.171423  -0.000874   0.001861   0.008907
    21  O    0.033812   0.010151   0.144086   0.003264   0.000127  -0.010077
    22  H   -0.006769  -0.000017  -0.000021  -0.000008   0.006090   0.000060
    23  H   -0.008471  -0.000013  -0.000003  -0.000048  -0.025351   0.000075
    24  H   -0.004908  -0.000243  -0.000018   0.000003  -0.005808   0.000094
    25  H    0.017302  -0.020010  -0.000115  -0.000188   0.000011   0.002011
    26  H    0.006538   0.000551   0.000015  -0.000012  -0.000004  -0.000066
    27  H   -0.000682  -0.019066   0.000747  -0.001775   0.000001   0.010464
    28  H    0.005310  -0.000011  -0.018712  -0.000014  -0.000016  -0.000268
    29  H    0.004595  -0.007113  -0.020446  -0.000151  -0.000084   0.000219
    30  H    0.000994  -0.000013   0.000036  -0.000452  -0.000010  -0.000698
    31  H   -0.000839   0.000187  -0.000019  -0.018487  -0.000009   0.064053
    32  H    0.002040  -0.000022   0.000042   0.010309   0.000001   0.022954
    33  H   -0.015809   0.001002  -0.010111  -0.009287  -0.000110   0.052612
               7          8          9         10         11         12
     1  Zr  -0.587126  -0.572154  -0.290998  -0.009677  -0.050090   0.035364
     2  O   -0.030751  -1.021496  -0.046826   0.001258   0.003336   0.000208
     3  O   -0.889089  -0.015413  -0.040825  -0.001244   0.002849   0.004267
     4  O   -0.009638   0.062594  -0.039429   0.001375   0.001076   0.002143
     5  O   -0.037313  -0.019517  -1.263918   0.135588   0.307473   0.157203
     6  Si   0.078312  -0.010584   0.032797  -0.002028  -0.001082  -0.002739
     7  Si  13.805859   0.178166   0.018887  -0.000533  -0.001171   0.003477
     8  Si   0.178166  13.840332   0.023799  -0.000949   0.000871  -0.000718
     9  Si   0.018887   0.023799  14.313273  -0.090924  -0.178883  -0.194269
    10  O   -0.000533  -0.000949  -0.090924   8.525423   0.024296   0.025763
    11  O   -0.001171   0.000871  -0.178883   0.024296   8.493112  -0.048213
    12  O    0.003477  -0.000718  -0.194269   0.025763  -0.048213   8.595729
    13  O    0.007418  -0.096042   0.000382   0.000000   0.000023   0.000005
    14  O    0.005633  -0.381245  -0.001711  -0.000003  -0.000000   0.000010
    15  O   -0.002886  -0.306527  -0.000855  -0.000000  -0.000023  -0.000007
    16  O    0.004076  -0.010113  -0.000859   0.000001  -0.000001  -0.000002
    17  O   -0.004748   0.090437   0.001926  -0.000003   0.000002  -0.000005
    18  O   -0.000743   0.072999   0.004118  -0.000004   0.000001  -0.000001
    19  O   -0.407467  -0.015000   0.001021   0.000005  -0.000003  -0.000017
    20  O   -0.117920   0.009533   0.002823   0.000001  -0.000003  -0.000025
    21  O    0.027710  -0.037941  -0.001473   0.000001  -0.000000   0.000014
    22  H   -0.000140   0.000064   0.044678  -0.006898  -0.005027   0.220281
    23  H    0.000066   0.000069   0.083121   0.228084  -0.006635   0.005957
    24  H    0.000049  -0.000113   0.035527   0.007130   0.244767  -0.007552
    25  H   -0.000482   0.057453  -0.000232  -0.000000  -0.000000  -0.000000
    26  H   -0.000360   0.046785  -0.000031   0.000000   0.000000  -0.000000
    27  H    0.001992   0.070431   0.000031   0.000000  -0.000000  -0.000000
    28  H    0.056986  -0.000078  -0.000123  -0.000000  -0.000000  -0.000002
    29  H    0.048016   0.021776  -0.000042   0.000000   0.000000  -0.000000
    30  H    0.040010   0.000057   0.000021  -0.000000   0.000000   0.000000
    31  H    0.000159  -0.001782  -0.000051   0.000000  -0.000000   0.000000
    32  H   -0.000629   0.000045   0.000037  -0.000000   0.000000   0.000000
    33  H    0.020649   0.000117   0.000071  -0.000000   0.000000   0.000000
              13         14         15         16         17         18
     1  Zr  -0.037024  -0.007492  -0.083241  -0.128464  -0.052992  -0.016568
     2  O    0.184814   0.267959   0.294946   0.004712  -0.040637  -0.014593
     3  O    0.001783  -0.016496  -0.000766  -0.000518   0.008860   0.003830
     4  O   -0.016008  -0.007972   0.001305   0.345832   0.221432   0.196790
     5  O   -0.000379   0.002697   0.000527   0.003237   0.001701  -0.000419
     6  Si   0.038017   0.025232  -0.000667  -0.420563  -0.474839  -0.456624
     7  Si   0.007418   0.005633  -0.002886   0.004076  -0.004748  -0.000743
     8  Si  -0.096042  -0.381245  -0.306527  -0.010113   0.090437   0.072999
     9  Si   0.000382  -0.001711  -0.000855  -0.000859   0.001926   0.004118
    10  O    0.000000  -0.000003  -0.000000   0.000001  -0.000003  -0.000004
    11  O    0.000023  -0.000000  -0.000023  -0.000001   0.000002   0.000001
    12  O    0.000005   0.000010  -0.000007  -0.000002  -0.000005  -0.000001
    13  O    8.627346   0.087483  -0.089686   0.003749  -0.030846  -0.045740
    14  O    0.087483   8.677261   0.055566   0.003752  -0.035940  -0.026644
    15  O   -0.089686   0.055566   8.778018  -0.000176   0.003540   0.001707
    16  O    0.003749   0.003752  -0.000176   8.901461  -0.091313  -0.114881
    17  O   -0.030846  -0.035940   0.003540  -0.091313   8.936811   0.227830
    18  O   -0.045740  -0.026644   0.001707  -0.114881   0.227830   9.012788
    19  O    0.000161  -0.000436   0.000143  -0.001551  -0.030425   0.000129
    20  O    0.000008  -0.000091   0.000041   0.000069  -0.000891   0.000012
    21  O   -0.000259   0.015349  -0.000629  -0.000219  -0.005427   0.000484
    22  H    0.000000  -0.000000  -0.000000   0.000000   0.000000  -0.000000
    23  H    0.000000   0.000000  -0.000000  -0.000000   0.000000  -0.000000
    24  H   -0.000001   0.000000   0.000002   0.000000  -0.000000  -0.000000
    25  H    0.218504  -0.012056   0.008874  -0.000052   0.000659   0.015102
    26  H   -0.005049  -0.010067   0.216909   0.000000  -0.000002   0.000007
    27  H   -0.009727   0.219573   0.004671   0.000170   0.018219  -0.000252
    28  H    0.000000  -0.000005  -0.000001  -0.000000   0.000004  -0.000000
    29  H    0.000802   0.017527  -0.002573  -0.000004  -0.000408   0.000005
    30  H    0.000001  -0.000009   0.000000   0.000114  -0.000451  -0.000007
    31  H    0.002381   0.000164  -0.000018   0.003804  -0.000785   0.218355
    32  H   -0.000008  -0.000006   0.000000   0.233377  -0.003652   0.003889
    33  H    0.000218   0.002054  -0.000033  -0.000027   0.231250   0.002091
              19         20         21         22         23         24
     1  Zr   0.002305  -0.148988   0.033812  -0.006769  -0.008471  -0.004908
     2  O    0.008925  -0.000552   0.010151  -0.000017  -0.000013  -0.000243
     3  O    0.262898   0.171423   0.144086  -0.000021  -0.000003  -0.000018
     4  O    0.009478  -0.000874   0.003264  -0.000008  -0.000048   0.000003
     5  O    0.002267   0.001861   0.000127   0.006090  -0.025351  -0.005808
     6  Si  -0.006036   0.008907  -0.010077   0.000060   0.000075   0.000094
     7  Si  -0.407467  -0.117920   0.027710  -0.000140   0.000066   0.000049
     8  Si  -0.015000   0.009533  -0.037941   0.000064   0.000069  -0.000113
     9  Si   0.001021   0.002823  -0.001473   0.044678   0.083121   0.035527
    10  O    0.000005   0.000001   0.000001  -0.006898   0.228084   0.007130
    11  O   -0.000003  -0.000003  -0.000000  -0.005027  -0.006635   0.244767
    12  O   -0.000017  -0.000025   0.000014   0.220281   0.005957  -0.007552
    13  O    0.000161   0.000008  -0.000259   0.000000   0.000000  -0.000001
    14  O   -0.000436  -0.000091   0.015349  -0.000000   0.000000   0.000000
    15  O    0.000143   0.000041  -0.000629  -0.000000  -0.000000   0.000002
    16  O   -0.001551   0.000069  -0.000219   0.000000  -0.000000   0.000000
    17  O   -0.030425  -0.000891  -0.005427   0.000000   0.000000  -0.000000
    18  O    0.000129   0.000012   0.000484  -0.000000  -0.000000  -0.000000
    19  O    8.870318   0.033090   0.022025  -0.000000   0.000000  -0.000000
    20  O    0.033090   8.660980  -0.050162   0.000000   0.000000  -0.000000
    21  O    0.022025  -0.050162   8.482483  -0.000000   0.000000   0.000000
    22  H   -0.000000   0.000000  -0.000000   0.363665   0.000062   0.000122
    23  H    0.000000   0.000000   0.000000   0.000062   0.351108   0.000015
    24  H   -0.000000  -0.000000   0.000000   0.000122   0.000015   0.364865
    25  H   -0.000024   0.000000  -0.000020   0.000000   0.000000   0.000000
    26  H    0.000001  -0.000000   0.000041  -0.000000  -0.000000  -0.000000
    27  H    0.000072   0.000188  -0.003952  -0.000000  -0.000000   0.000000
    28  H    0.004591   0.229590  -0.002135  -0.000000   0.000000   0.000000
    29  H   -0.008576   0.007640   0.206450   0.000000   0.000000  -0.000000
    30  H    0.224286  -0.001503  -0.007098   0.000000   0.000000  -0.000000
    31  H    0.000004  -0.000000  -0.000000  -0.000000  -0.000000   0.000000
    32  H    0.000102  -0.000000   0.000001  -0.000000  -0.000000  -0.000000
    33  H    0.014979  -0.000103   0.001504  -0.000000  -0.000000  -0.000000
              25         26         27         28         29         30
     1  Zr   0.017302   0.006538  -0.000682   0.005310   0.004595   0.000994
     2  O   -0.020010   0.000551  -0.019066  -0.000011  -0.007113  -0.000013
     3  O   -0.000115   0.000015   0.000747  -0.018712  -0.020446   0.000036
     4  O   -0.000188  -0.000012  -0.001775  -0.000014  -0.000151  -0.000452
     5  O    0.000011  -0.000004   0.000001  -0.000016  -0.000084  -0.000010
     6  Si   0.002011  -0.000066   0.010464  -0.000268   0.000219  -0.000698
     7  Si  -0.000482  -0.000360   0.001992   0.056986   0.048016   0.040010
     8  Si   0.057453   0.046785   0.070431  -0.000078   0.021776   0.000057
     9  Si  -0.000232  -0.000031   0.000031  -0.000123  -0.000042   0.000021
    10  O   -0.000000   0.000000   0.000000  -0.000000   0.000000  -0.000000
    11  O   -0.000000   0.000000  -0.000000  -0.000000   0.000000   0.000000
    12  O   -0.000000  -0.000000  -0.000000  -0.000002  -0.000000   0.000000
    13  O    0.218504  -0.005049  -0.009727   0.000000   0.000802   0.000001
    14  O   -0.012056  -0.010067   0.219573  -0.000005   0.017527  -0.000009
    15  O    0.008874   0.216909   0.004671  -0.000001  -0.002573   0.000000
    16  O   -0.000052   0.000000   0.000170  -0.000000  -0.000004   0.000114
    17  O    0.000659  -0.000002   0.018219   0.000004  -0.000408  -0.000451
    18  O    0.015102   0.000007  -0.000252  -0.000000   0.000005  -0.000007
    19  O   -0.000024   0.000001   0.000072   0.004591  -0.008576   0.224286
    20  O    0.000000  -0.000000   0.000188   0.229590   0.007640  -0.001503
    21  O   -0.000020   0.000041  -0.003952  -0.002135   0.206450  -0.007098
    22  H    0.000000  -0.000000  -0.000000  -0.000000   0.000000   0.000000
    23  H    0.000000  -0.000000  -0.000000   0.000000   0.000000   0.000000
    24  H    0.000000  -0.000000   0.000000   0.000000  -0.000000  -0.000000
    25  H    0.298754  -0.000013   0.000123   0.000000   0.000001   0.000000
    26  H   -0.000013   0.365817   0.000035   0.000000   0.000022  -0.000000
    27  H    0.000123   0.000035   0.283171  -0.000000  -0.001503   0.000010
    28  H    0.000000   0.000000  -0.000000   0.348973  -0.000016  -0.000016
    29  H    0.000001   0.000022  -0.001503  -0.000016   0.286025   0.000156
    30  H    0.000000  -0.000000   0.000010  -0.000016   0.000156   0.334125
    31  H   -0.000510   0.000000   0.000013  -0.000000   0.000000  -0.000000
    32  H   -0.000001   0.000000  -0.000000   0.000000  -0.000000  -0.000000
    33  H    0.000006  -0.000000  -0.002435  -0.000002   0.000095  -0.001154
              31         32         33
     1  Zr  -0.000839   0.002040  -0.015809
     2  O    0.000187  -0.000022   0.001002
     3  O   -0.000019   0.000042  -0.010111
     4  O   -0.018487   0.010309  -0.009287
     5  O   -0.000009   0.000001  -0.000110
     6  Si   0.064053   0.022954   0.052612
     7  Si   0.000159  -0.000629   0.020649
     8  Si  -0.001782   0.000045   0.000117
     9  Si  -0.000051   0.000037   0.000071
    10  O    0.000000  -0.000000  -0.000000
    11  O   -0.000000   0.000000   0.000000
    12  O    0.000000   0.000000   0.000000
    13  O    0.002381  -0.000008   0.000218
    14  O    0.000164  -0.000006   0.002054
    15  O   -0.000018   0.000000  -0.000033
    16  O    0.003804   0.233377  -0.000027
    17  O   -0.000785  -0.003652   0.231250
    18  O    0.218355   0.003889   0.002091
    19  O    0.000004   0.000102   0.014979
    20  O   -0.000000  -0.000000  -0.000103
    21  O   -0.000000   0.000001   0.001504
    22  H   -0.000000  -0.000000  -0.000000
    23  H   -0.000000  -0.000000  -0.000000
    24  H    0.000000  -0.000000  -0.000000
    25  H   -0.000510  -0.000001   0.000006
    26  H    0.000000   0.000000  -0.000000
    27  H    0.000013  -0.000000  -0.002435
    28  H   -0.000000   0.000000  -0.000002
    29  H    0.000000  -0.000000   0.000095
    30  H   -0.000000  -0.000000  -0.001154
    31  H    0.331376   0.000001  -0.000038
    32  H    0.000001   0.349931   0.000155
    33  H   -0.000038   0.000155   0.269176
 Mulliken charges:
               1
     1  Zr   0.020677
     2  O   -0.544871
     3  O   -0.418273
     4  O   -0.686400
     5  O   -0.377854
     6  Si   2.233004
     7  Si   1.793532
     8  Si   2.014145
     9  Si   1.588937
    10  O   -0.836661
    11  O   -0.786674
    12  O   -0.796869
    13  O   -0.842327
    14  O   -0.880086
    15  O   -0.878160
    16  O   -0.735613
    17  O   -0.969308
    18  O   -1.083661
    19  O   -0.987265
    20  O   -0.805057
    21  O   -0.828110
    22  H    0.383859
    23  H    0.371966
    24  H    0.366068
    25  H    0.414901
    26  H    0.378886
    27  H    0.429479
    28  H    0.375945
    29  H    0.447586
    30  H    0.411598
    31  H    0.402040
    32  H    0.381433
    33  H    0.443131
 Sum of Mulliken charges =  -0.00000
 Mulliken charges with hydrogens summed into heavy atoms:
               1
     1  Zr   0.020677
     2  O   -0.544871
     3  O   -0.418273
     4  O   -0.686400
     5  O   -0.377854
     6  Si   2.233004
     7  Si   1.793532
     8  Si   2.014145
     9  Si   1.588937
    10  O   -0.464696
    11  O   -0.420606
    12  O   -0.413010
    13  O   -0.427426
    14  O   -0.450607
    15  O   -0.499274
    16  O   -0.354180
    17  O   -0.526176
    18  O   -0.681621
    19  O   -0.575666
    20  O   -0.429112
    21  O   -0.380524
 Electronic spatial extent (au):  <R**2>=           9905.0883
 Charge=              0.0000 electrons
 Dipole moment (field-independent basis, Debye):
    X=              1.0049    Y=             -0.8479    Z=             -2.4285  Tot=              2.7616
 Quadrupole moment (field-independent basis, Debye-Ang):
   XX=           -160.1752   YY=           -155.2659   ZZ=           -157.8507
   XY=             -5.6766   XZ=              1.9160   YZ=              5.6006
 Traceless Quadrupole moment (field-independent basis, Debye-Ang):
   XX=             -2.4113   YY=              2.4981   ZZ=             -0.0868
   XY=             -5.6766   XZ=              1.9160   YZ=              5.6006
 Octapole moment (field-independent basis, Debye-Ang**2):
  XXX=             73.1719  YYY=              6.3805  ZZZ=            -18.5106  XYY=             -3.0442
  XXY=             21.9737  XXZ=             18.3963  XZZ=              5.0744  YZZ=            -16.8498
  YYZ=            -14.2141  XYZ=             29.5308
 Hexadecapole moment (field-independent basis, Debye-Ang**3):
 XXXX=          -6011.0663 YYYY=          -2852.1653 ZZZZ=          -2267.4420 XXXY=             57.6255
 XXXZ=             -0.0686 YYYX=             -7.4164 YYYZ=            230.7009 ZZZX=           -182.0440
 ZZZY=            -63.5145 XXYY=          -1503.9799 XXZZ=          -1368.7557 YYZZ=           -928.9726
 XXYZ=            -20.1887 YYXZ=            109.1582 ZZXY=            -61.1476
 N-N= 2.830397962318D+03 E-N=-1.137335224206D+04  KE= 2.373152334361D+03
 PrsmSu:  requested number of processors reduced to:   2 ShMem   1 Linda.
 PrsmSu:  requested number of processors reduced to:  10 ShMem   1 Linda.
   1 Symmetry operations used in ECPInt.
 ECPInt:  NShTT=   13203 NPrTT=   78401 LenC2=   11524 LenP2D=   44606.
 LDataN:  DoStor=T MaxTD1= 9 Len=  602
 Number of processors reduced to  14 by ecpmxn.
 Calling FoFJK, ICntrl=      2127 FMM=F ISym2X=0 I1Cent= 0 IOpClX= 0 NMat=1 NMatS=1 NMatT=0.
 CoulSu:  requested number of processors reduced to:  10 ShMem   1 Linda.
 Defaulting to unpruned grid for atomic number  40.
 Defaulting to unpruned grid for atomic number  40.
 Defaulting to unpruned grid for atomic number  40.
 Defaulting to unpruned grid for atomic number  40.
 Defaulting to unpruned grid for atomic number  40.
 Defaulting to unpruned grid for atomic number  40.
 Defaulting to unpruned grid for atomic number  40.
 Defaulting to unpruned grid for atomic number  40.
 Defaulting to unpruned grid for atomic number  40.
 Defaulting to unpruned grid for atomic number  40.
 Defaulting to unpruned grid for atomic number  40.
 Defaulting to unpruned grid for atomic number  40.
 Defaulting to unpruned grid for atomic number  40.
 Defaulting to unpruned grid for atomic number  40.
 Defaulting to unpruned grid for atomic number  40.
 Defaulting to unpruned grid for atomic number  40.
 ***** Axes restored to original set *****
 -------------------------------------------------------------------
 Center     Atomic                   Forces (Hartrees/Bohr)
 Number     Number              X              Y              Z
 -------------------------------------------------------------------
      1       40           0.000749454   -0.000225318   -0.000030288
      2        8           0.000051934   -0.000006449   -0.000089475
      3        8          -0.000045581    0.000224716    0.000003129
      4        8           0.000070639   -0.000005807    0.000119860
      5        8          -0.000550205   -0.000422801   -0.000144795
      6       14          -0.000112348    0.000016906   -0.000048659
      7       14          -0.000013295    0.000023187   -0.000028190
      8       14          -0.000102174    0.000003970    0.000077681
      9       14          -0.000268472    0.001061778    0.000301729
     10        8          -0.000012735   -0.000138649   -0.000075890
     11        8          -0.000019812   -0.000247196   -0.000028082
     12        8           0.000025302   -0.000237435   -0.000093739
     13        8           0.000030427    0.000006269   -0.000008702
     14        8           0.000067813   -0.000048954   -0.000010176
     15        8           0.000016594   -0.000010536   -0.000044373
     16        8           0.000023008   -0.000005822    0.000022681
     17        8           0.000039116   -0.000020253   -0.000006689
     18        8           0.000023119    0.000005539    0.000013317
     19        8           0.000011702   -0.000008566    0.000014692
     20        8           0.000014960   -0.000022619    0.000014150
     21        8           0.000005555   -0.000003574    0.000006080
     22        1          -0.000015595   -0.000071035   -0.000035927
     23        1           0.000022279    0.000006390    0.000006910
     24        1           0.000052345    0.000038183    0.000066097
     25        1          -0.000007907    0.000002661   -0.000002593
     26        1          -0.000004088    0.000005744    0.000010625
     27        1          -0.000000091    0.000017040   -0.000015815
     28        1          -0.000007574    0.000017798   -0.000001311
     29        1          -0.000035639    0.000031647    0.000024693
     30        1           0.000000030    0.000002805   -0.000003863
     31        1          -0.000006916   -0.000007290   -0.000005633
     32        1          -0.000008703    0.000005118   -0.000009653
     33        1           0.000006856    0.000012555    0.000002212
 -------------------------------------------------------------------
 Cartesian Forces:  Max     0.001061778 RMS     0.000165499

 GradGradGradGradGradGradGradGradGradGradGradGradGradGradGradGradGradGrad
 Berny optimization.
 FormGI is forming the generalized inverse of G from B-inverse, IUseBI=4.
 Internal  Forces:  Max     0.000753990 RMS     0.000106647
 Search for a local minimum.
 Step number   1 out of a maximum of  153
 All quantities printed in internal units (Hartrees-Bohrs-Radians)
 Mixed Optimization -- En-DIIS/RFO-DIIS
 Second derivative matrix not updated -- first step.
 ITU=  0
     Eigenvalues ---    0.00230   0.00230   0.00230   0.02254   0.03240
     Eigenvalues ---    0.03358   0.03498   0.03580   0.03665   0.03665
     Eigenvalues ---    0.03680   0.03686   0.03693   0.03739   0.03789
     Eigenvalues ---    0.03792   0.03816   0.03834   0.03850   0.05940
     Eigenvalues ---    0.06887   0.07074   0.11077   0.11224   0.11833
     Eigenvalues ---    0.11884   0.12177   0.12217   0.12239   0.12732
     Eigenvalues ---    0.12895   0.13099   0.13313   0.16000   0.16000
     Eigenvalues ---    0.16000   0.16000   0.16000   0.16000   0.16000
     Eigenvalues ---    0.16000   0.16000   0.16000   0.16000   0.16000
     Eigenvalues ---    0.18323   0.18885   0.19173   0.19686   0.20203
     Eigenvalues ---    0.20203   0.20208   0.20515   0.20653   0.20730
     Eigenvalues ---    0.20795   0.20989   0.21175   0.21186   0.25000
     Eigenvalues ---    0.25000   0.25000   0.38002   0.39187   0.40659
     Eigenvalues ---    0.41547   0.42502   0.42508   0.42670   0.42743
     Eigenvalues ---    0.42824   0.43363   0.43951   0.43980   0.44273
     Eigenvalues ---    0.44485   0.44689   0.44763   0.50655   0.51353
     Eigenvalues ---    0.52036   0.52548   0.54334   0.54624   0.54641
     Eigenvalues ---    0.54649   0.54689   0.54691   0.54711   0.54765
     Eigenvalues --- 1000.000001000.000001000.000001000.000001000.00000
     Eigenvalues --- 1000.000001000.000001000.000001000.000001000.00000
     Eigenvalues --- 1000.000001000.000001000.000001000.000001000.00000
     Eigenvalues --- 1000.000001000.000001000.000001000.000001000.00000
     Eigenvalues --- 1000.000001000.000001000.000001000.000001000.00000
     Eigenvalues --- 1000.000001000.000001000.000001000.000001000.00000
     Eigenvalues --- 1000.000001000.000001000.000001000.000001000.00000
     Eigenvalues --- 1000.000001000.000001000.000001000.000001000.00000
     Eigenvalues --- 1000.000001000.000001000.000001000.000001000.00000
     Eigenvalues --- 1000.000001000.000001000.000001000.000001000.00000
     Eigenvalues --- 1000.000001000.000001000.00000
 RFO step:  Lambda=-7.32797115D-06 EMin= 2.30000000D-03
 Linear search not attempted -- first point.
 Iteration  1 RMS(Cart)=  0.00935261 RMS(Int)=  0.00002354
 Iteration  2 RMS(Cart)=  0.00004005 RMS(Int)=  0.00000019
 Iteration  3 RMS(Cart)=  0.00000000 RMS(Int)=  0.00000019
 Iteration  1 RMS(Cart)=  0.00000007 RMS(Int)=  0.00000001
 Variable       Old X    -DE/DX   Delta X   Delta X   Delta X     New X
                                 (Linear)    (Quad)   (Total)
    R1        3.67647  -0.00008   0.00000  -0.00037  -0.00037   3.67610
    R2        3.69189   0.00027   0.00000   0.00133   0.00133   3.69323
    R3        3.73835  -0.00008   0.00000  -0.00044  -0.00044   3.73791
    R4        3.70232  -0.00075   0.00000  -0.00374  -0.00374   3.69858
    R5        3.11688   0.00000   0.00000   0.00001   0.00001   3.11689
    R6        3.09579   0.00005   0.00000   0.00010   0.00010   3.09589
    R7        3.10213   0.00004   0.00000   0.00009   0.00009   3.10223
    R8        3.09246  -0.00021   0.00000  -0.00046  -0.00046   3.09200
    R9        3.11587  -0.00001   0.00000  -0.00003  -0.00003   3.11584
   R10        3.11989  -0.00003   0.00000  -0.00008  -0.00008   3.11981
   R11        3.14367  -0.00000   0.00000  -0.00000  -0.00000   3.14367
   R12        3.18062  -0.00002   0.00000  -0.00004  -0.00004   3.18058
   R13        3.10924  -0.00000   0.00000  -0.00001  -0.00001   3.10923
   R14        3.09339   0.00004   0.00000   0.00009   0.00009   3.09348
   R15        3.10179  -0.00001   0.00000  -0.00003  -0.00003   3.10176
   R16        3.16373  -0.00006   0.00000  -0.00014  -0.00014   3.16359
   R17        3.09830  -0.00003   0.00000  -0.00008  -0.00008   3.09822
   R18        3.11981   0.00006   0.00000   0.00014   0.00014   3.11995
   R19        3.13204   0.00020   0.00000   0.00049   0.00049   3.13253
   R20        3.11779  -0.00032   0.00000  -0.00075  -0.00075   3.11704
   R21        1.82153  -0.00000   0.00000  -0.00000  -0.00000   1.82152
   R22        1.82108   0.00002   0.00000   0.00003   0.00003   1.82110
   R23        1.82090  -0.00003   0.00000  -0.00006  -0.00006   1.82084
   R24        1.84078   0.00000   0.00000   0.00001   0.00001   1.84079
   R25        1.84565   0.00001   0.00000   0.00002   0.00002   1.84567
   R26        1.82041   0.00001   0.00000   0.00001   0.00001   1.82043
   R27        1.82109   0.00000   0.00000   0.00000   0.00000   1.82109
   R28        1.85910   0.00001   0.00000   0.00003   0.00003   1.85913
   R29        1.82145   0.00001   0.00000   0.00002   0.00002   1.82147
   R30        1.82428   0.00000   0.00000   0.00001   0.00001   1.82429
   R31        1.82168   0.00001   0.00000   0.00002   0.00002   1.82169
   R32        1.85224  -0.00001   0.00000  -0.00002  -0.00002   1.85222
    A1        1.85172   0.00013   0.00000   0.00075   0.00075   1.85248
    A2        1.80155  -0.00015   0.00000  -0.00044  -0.00044   1.80111
    A3        1.96889  -0.00001   0.00000   0.00004   0.00004   1.96893
    A4        1.83430   0.00007   0.00000   0.00006   0.00006   1.83436
    A5        2.01802  -0.00007   0.00000  -0.00042  -0.00042   2.01761
    A6        1.97057   0.00004   0.00000   0.00004   0.00004   1.97062
    A7        2.46524  -0.00006   0.00000  -0.00023  -0.00023   2.46501
    A8        2.58826   0.00018   0.00000   0.00073   0.00073   2.58899
    A9        2.35483  -0.00004   0.00000  -0.00015  -0.00015   2.35468
[...]
 Alpha virt. eigenvalues --    3.47849   3.48451   3.48607   3.51083   3.51120
 Alpha virt. eigenvalues --    3.53102   3.54084   3.60328   3.61059   3.62081
 Alpha virt. eigenvalues --    3.66154   4.29444   4.58133   7.97812  31.31811
          Condensed to atoms (all electrons):
               1          2          3          4          5          6
     1  Zr  14.897788  -0.107183  -0.011544  -0.100593  -0.196367  -0.587587
     2  O   -0.107183   9.066728   0.021853  -0.043035  -0.060284   0.085575
     3  O   -0.011544   0.021853   8.853884   0.017471  -0.048457  -0.001502
     4  O   -0.100593  -0.043035   0.017471   8.822541  -0.056027  -0.705078
     5  O   -0.196367  -0.060284  -0.048457  -0.056027   9.476365  -0.011617
     6  Si  -0.587587   0.085575  -0.001502  -0.705078  -0.011617  14.037567
     7  Si  -0.585504  -0.030443  -0.888811  -0.009640  -0.037431   0.078327
     8  Si  -0.571244  -1.016386  -0.015275   0.062878  -0.019404  -0.012910
     9  Si  -0.285037  -0.046336  -0.040896  -0.039327  -1.252234   0.032394
    10  O   -0.010346   0.001263  -0.001240   0.001348   0.133245  -0.001957
    11  O   -0.049364   0.003276   0.002815   0.001004   0.299829  -0.001077
    12  O    0.033219   0.000158   0.004235   0.002140   0.153969  -0.002727
    13  O   -0.037770   0.183805   0.001772  -0.015988  -0.000398   0.038389
    14  O   -0.009430   0.267900  -0.016519  -0.007984   0.002723   0.025612
    15  O   -0.083059   0.294988  -0.000794   0.001308   0.000516  -0.000736
    16  O   -0.128395   0.004680  -0.000539   0.344735   0.003242  -0.417916
    17  O   -0.053976  -0.040152   0.008847   0.221328   0.001717  -0.474744
    18  O   -0.018341  -0.014333   0.003824   0.197013  -0.000420  -0.456808
    19  O    0.001538   0.008940   0.262288   0.009456   0.002268  -0.005757
    20  O   -0.149141  -0.000551   0.171042  -0.000868   0.001873   0.008857
    21  O    0.033571   0.010204   0.143925   0.003255   0.000142  -0.009988
    22  H   -0.006693  -0.000017  -0.000022  -0.000008   0.006236   0.000060
    23  H   -0.008475  -0.000013  -0.000004  -0.000047  -0.025292   0.000075
    24  H   -0.005084  -0.000231  -0.000016   0.000005  -0.006601   0.000092
    25  H    0.017487  -0.020020  -0.000115  -0.000193   0.000012   0.001952
    26  H    0.006515   0.000562   0.000015  -0.000012  -0.000004  -0.000071
    27  H   -0.000447  -0.019059   0.000742  -0.001825   0.000001   0.010539
    28  H    0.005326  -0.000011  -0.018657  -0.000014  -0.000016  -0.000270
    29  H    0.004503  -0.007081  -0.020403  -0.000151  -0.000084   0.000202
    30  H    0.000964  -0.000013   0.000034  -0.000450  -0.000010  -0.000711
    31  H   -0.000739   0.000188  -0.000019  -0.018505  -0.000009   0.064021
    32  H    0.002029  -0.000022   0.000041   0.010222   0.000001   0.023006
    33  H   -0.015637   0.000975  -0.010101  -0.009276  -0.000112   0.052532
               7          8          9         10         11         12
     1  Zr  -0.585504  -0.571244  -0.285037  -0.010346  -0.049364   0.033219
     2  O   -0.030443  -1.016386  -0.046336   0.001263   0.003276   0.000158
     3  O   -0.888811  -0.015275  -0.040896  -0.001240   0.002815   0.004235
     4  O   -0.009640   0.062878  -0.039327   0.001348   0.001004   0.002140
     5  O   -0.037431  -0.019404  -1.252234   0.133245   0.299829   0.153969
     6  Si   0.078327  -0.012910   0.032394  -0.001957  -0.001077  -0.002727
     7  Si  13.803292   0.178024   0.018775  -0.000540  -0.001148   0.003527
     8  Si   0.178024  13.830913   0.024024  -0.000941   0.000823  -0.000685
     9  Si   0.018775   0.024024  14.282447  -0.088596  -0.167245  -0.184826
    10  O   -0.000540  -0.000941  -0.088596   8.525221   0.026555   0.023809
    11  O   -0.001148   0.000823  -0.167245   0.026555   8.488196  -0.050544
    12  O    0.003527  -0.000685  -0.184826   0.023809  -0.050544   8.593279
    13  O    0.007517  -0.094785   0.000407   0.000000   0.000022   0.000005
    14  O    0.005450  -0.379457  -0.001724  -0.000003   0.000000   0.000011
    15  O   -0.002888  -0.307363  -0.000871  -0.000000  -0.000023  -0.000007
    16  O    0.004057  -0.010069  -0.000861   0.000002  -0.000001  -0.000002
    17  O   -0.005009   0.090499   0.001911  -0.000002   0.000002  -0.000005
    18  O   -0.000656   0.073281   0.004137  -0.000004   0.000001  -0.000001
    19  O   -0.406312  -0.014855   0.001049   0.000005  -0.000003  -0.000017
    20  O   -0.116591   0.009568   0.002849   0.000001  -0.000002  -0.000024
    21  O    0.026976  -0.037936  -0.001479   0.000001  -0.000000   0.000014
    22  H   -0.000141   0.000063   0.044407  -0.006906  -0.005110   0.220593
    23  H    0.000066   0.000069   0.083186   0.228118  -0.006666   0.005892
    24  H    0.000050  -0.000109   0.036785   0.007266   0.245027  -0.007725
    25  H   -0.000485   0.057559  -0.000234   0.000000  -0.000000  -0.000000
    26  H   -0.000359   0.046867  -0.000032   0.000000   0.000000  -0.000000
    27  H    0.002070   0.070303   0.000031   0.000000  -0.000000  -0.000000
    28  H    0.056914  -0.000079  -0.000123  -0.000000  -0.000000  -0.000002
    29  H    0.048030   0.021666  -0.000041   0.000000   0.000000  -0.000000
    30  H    0.040118   0.000055   0.000022  -0.000000   0.000000   0.000000
    31  H    0.000156  -0.001789  -0.000051   0.000000  -0.000000   0.000000
    32  H   -0.000628   0.000050   0.000036  -0.000000   0.000000   0.000000
    33  H    0.020590   0.000072   0.000071  -0.000000   0.000000   0.000000
              13         14         15         16         17         18
     1  Zr  -0.037770  -0.009430  -0.083059  -0.128395  -0.053976  -0.018341
     2  O    0.183805   0.267900   0.294988   0.004680  -0.040152  -0.014333
     3  O    0.001772  -0.016519  -0.000794  -0.000539   0.008847   0.003824
     4  O   -0.015988  -0.007984   0.001308   0.344735   0.221328   0.197013
     5  O   -0.000398   0.002723   0.000516   0.003242   0.001717  -0.000420
     6  Si   0.038389   0.025612  -0.000736  -0.417916  -0.474744  -0.456808
     7  Si   0.007517   0.005450  -0.002888   0.004057  -0.005009  -0.000656
     8  Si  -0.094785  -0.379457  -0.307363  -0.010069   0.090499   0.073281
     9  Si   0.000407  -0.001724  -0.000871  -0.000861   0.001911   0.004137
    10  O    0.000000  -0.000003  -0.000000   0.000002  -0.000002  -0.000004
    11  O    0.000022   0.000000  -0.000023  -0.000001   0.000002   0.000001
    12  O    0.000005   0.000011  -0.000007  -0.000002  -0.000005  -0.000001
    13  O    8.628407   0.087391  -0.090472   0.003740  -0.030859  -0.045656
    14  O    0.087391   8.678415   0.055859   0.003760  -0.035981  -0.026735
    15  O   -0.090472   0.055859   8.779572  -0.000177   0.003571   0.001708
    16  O    0.003740   0.003760  -0.000177   8.900015  -0.091427  -0.114876
    17  O   -0.030859  -0.035981   0.003571  -0.091427   8.936636   0.228076
    18  O   -0.045656  -0.026735   0.001708  -0.114876   0.228076   9.013634
    19  O    0.000160  -0.000399   0.000141  -0.001560  -0.030536   0.000144
    20  O    0.000008  -0.000100   0.000040   0.000070  -0.000911   0.000012
    21  O   -0.000277   0.015821  -0.000609  -0.000216  -0.005405   0.000480
    22  H    0.000000  -0.000000  -0.000000   0.000000   0.000000  -0.000000
    23  H    0.000000   0.000000  -0.000000  -0.000000   0.000000  -0.000000
    24  H   -0.000001   0.000000   0.000002   0.000000  -0.000000  -0.000000
    25  H    0.218293  -0.012040   0.008903  -0.000049   0.000656   0.015058
    26  H   -0.005038  -0.010087   0.216845   0.000000  -0.000002   0.000007
    27  H   -0.009719   0.219323   0.004645   0.000176   0.018256  -0.000249
    28  H   -0.000000  -0.000005  -0.000001  -0.000000   0.000004  -0.000000
    29  H    0.000801   0.017530  -0.002570  -0.000004  -0.000413   0.000005
    30  H    0.000001  -0.000010   0.000000   0.000114  -0.000459  -0.000007
    31  H    0.002383   0.000166  -0.000019   0.003800  -0.000814   0.218289
    32  H   -0.000008  -0.000006   0.000000   0.233463  -0.003692   0.003940
    33  H    0.000215   0.002046  -0.000033  -0.000031   0.231429   0.002101
              19         20         21         22         23         24
     1  Zr   0.001538  -0.149141   0.033571  -0.006693  -0.008475  -0.005084
     2  O    0.008940  -0.000551   0.010204  -0.000017  -0.000013  -0.000231
     3  O    0.262288   0.171042   0.143925  -0.000022  -0.000004  -0.000016
     4  O    0.009456  -0.000868   0.003255  -0.000008  -0.000047   0.000005
     5  O    0.002268   0.001873   0.000142   0.006236  -0.025292  -0.006601
     6  Si  -0.005757   0.008857  -0.009988   0.000060   0.000075   0.000092
     7  Si  -0.406312  -0.116591   0.026976  -0.000141   0.000066   0.000050
     8  Si  -0.014855   0.009568  -0.037936   0.000063   0.000069  -0.000109
     9  Si   0.001049   0.002849  -0.001479   0.044407   0.083186   0.036785
    10  O    0.000005   0.000001   0.000001  -0.006906   0.228118   0.007266
    11  O   -0.000003  -0.000002  -0.000000  -0.005110  -0.006666   0.245027
    12  O   -0.000017  -0.000024   0.000014   0.220593   0.005892  -0.007725
    13  O    0.000160   0.000008  -0.000277   0.000000   0.000000  -0.000001
    14  O   -0.000399  -0.000100   0.015821  -0.000000   0.000000   0.000000
    15  O    0.000141   0.000040  -0.000609  -0.000000  -0.000000   0.000002
    16  O   -0.001560   0.000070  -0.000216   0.000000  -0.000000   0.000000
    17  O   -0.030536  -0.000911  -0.005405   0.000000   0.000000  -0.000000
    18  O    0.000144   0.000012   0.000480  -0.000000  -0.000000  -0.000000
    19  O    8.870472   0.032705   0.022178  -0.000000   0.000000  -0.000000
    20  O    0.032705   8.660608  -0.049943   0.000000   0.000000  -0.000000
    21  O    0.022178  -0.049943   8.482816  -0.000000   0.000000   0.000000
    22  H   -0.000000   0.000000  -0.000000   0.363415   0.000065   0.000132
    23  H    0.000000   0.000000   0.000000   0.000065   0.350719   0.000011
    24  H   -0.000000  -0.000000   0.000000   0.000132   0.000011   0.364707
    25  H   -0.000024   0.000000  -0.000020   0.000000   0.000000   0.000000
    26  H    0.000001  -0.000000   0.000042  -0.000000  -0.000000  -0.000000
    27  H    0.000074   0.000189  -0.003995  -0.000000  -0.000000   0.000000
    28  H    0.004548   0.229511  -0.002082  -0.000000   0.000000   0.000000
    29  H   -0.008595   0.007652   0.206511   0.000000   0.000000  -0.000000
    30  H    0.224208  -0.001478  -0.007125   0.000000   0.000000  -0.000000
    31  H    0.000004  -0.000000  -0.000000  -0.000000  -0.000000   0.000000
    32  H    0.000102  -0.000000   0.000001  -0.000000  -0.000000  -0.000000
    33  H    0.014962  -0.000098   0.001496  -0.000000  -0.000000  -0.000000
              25         26         27         28         29         30
     1  Zr   0.017487   0.006515  -0.000447   0.005326   0.004503   0.000964
     2  O   -0.020020   0.000562  -0.019059  -0.000011  -0.007081  -0.000013
     3  O   -0.000115   0.000015   0.000742  -0.018657  -0.020403   0.000034
     4  O   -0.000193  -0.000012  -0.001825  -0.000014  -0.000151  -0.000450
     5  O    0.000012  -0.000004   0.000001  -0.000016  -0.000084  -0.000010
     6  Si   0.001952  -0.000071   0.010539  -0.000270   0.000202  -0.000711
     7  Si  -0.000485  -0.000359   0.002070   0.056914   0.048030   0.040118
     8  Si   0.057559   0.046867   0.070303  -0.000079   0.021666   0.000055
     9  Si  -0.000234  -0.000032   0.000031  -0.000123  -0.000041   0.000022
    10  O    0.000000   0.000000   0.000000  -0.000000   0.000000  -0.000000
    11  O   -0.000000   0.000000  -0.000000  -0.000000   0.000000   0.000000
    12  O   -0.000000  -0.000000  -0.000000  -0.000002  -0.000000   0.000000
    13  O    0.218293  -0.005038  -0.009719  -0.000000   0.000801   0.000001
    14  O   -0.012040  -0.010087   0.219323  -0.000005   0.017530  -0.000010
    15  O    0.008903   0.216845   0.004645  -0.000001  -0.002570   0.000000
    16  O   -0.000049   0.000000   0.000176  -0.000000  -0.000004   0.000114
    17  O    0.000656  -0.000002   0.018256   0.000004  -0.000413  -0.000459
    18  O    0.015058   0.000007  -0.000249  -0.000000   0.000005  -0.000007
    19  O   -0.000024   0.000001   0.000074   0.004548  -0.008595   0.224208
    20  O    0.000000  -0.000000   0.000189   0.229511   0.007652  -0.001478
    21  O   -0.000020   0.000042  -0.003995  -0.002082   0.206511  -0.007125
    22  H    0.000000  -0.000000  -0.000000  -0.000000   0.000000   0.000000
    23  H    0.000000  -0.000000  -0.000000   0.000000   0.000000   0.000000
    24  H    0.000000  -0.000000   0.000000   0.000000  -0.000000  -0.000000
    25  H    0.298869  -0.000013   0.000122   0.000000   0.000001   0.000000
    26  H   -0.000013   0.365859   0.000035   0.000000   0.000021  -0.000000
    27  H    0.000122   0.000035   0.283075  -0.000000  -0.001480   0.000010
    28  H    0.000000   0.000000  -0.000000   0.349022  -0.000016  -0.000016
    29  H    0.000001   0.000021  -0.001480  -0.000016   0.286084   0.000157
    30  H    0.000000  -0.000000   0.000010  -0.000016   0.000157   0.334252
    31  H   -0.000511   0.000000   0.000013  -0.000000   0.000000  -0.000000
    32  H   -0.000001   0.000000  -0.000000   0.000000  -0.000000  -0.000000
    33  H    0.000006  -0.000000  -0.002447  -0.000002   0.000095  -0.001149
              31         32         33
     1  Zr  -0.000739   0.002029  -0.015637
     2  O    0.000188  -0.000022   0.000975
     3  O   -0.000019   0.000041  -0.010101
     4  O   -0.018505   0.010222  -0.009276
     5  O   -0.000009   0.000001  -0.000112
     6  Si   0.064021   0.023006   0.052532
     7  Si   0.000156  -0.000628   0.020590
     8  Si  -0.001789   0.000050   0.000072
     9  Si  -0.000051   0.000036   0.000071
    10  O    0.000000  -0.000000  -0.000000
    11  O   -0.000000   0.000000   0.000000
    12  O    0.000000   0.000000   0.000000
    13  O    0.002383  -0.000008   0.000215
    14  O    0.000166  -0.000006   0.002046
    15  O   -0.000019   0.000000  -0.000033
    16  O    0.003800   0.233463  -0.000031
    17  O   -0.000814  -0.003692   0.231429
    18  O    0.218289   0.003940   0.002101
    19  O    0.000004   0.000102   0.014962
    20  O   -0.000000  -0.000000  -0.000098
    21  O   -0.000000   0.000001   0.001496
    22  H   -0.000000  -0.000000  -0.000000
    23  H   -0.000000  -0.000000  -0.000000
    24  H    0.000000  -0.000000  -0.000000
    25  H   -0.000511  -0.000001   0.000006
    26  H    0.000000   0.000000  -0.000000
    27  H    0.000013  -0.000000  -0.002447
    28  H   -0.000000   0.000000  -0.000002
    29  H    0.000000  -0.000000   0.000095
    30  H   -0.000000  -0.000000  -0.001149
    31  H    0.331353   0.000000  -0.000038
    32  H    0.000000   0.349939   0.000157
    33  H   -0.000038   0.000157   0.268870
 Mulliken charges:
               1
     1  Zr   0.019015
     2  O   -0.545925
     3  O   -0.417877
     4  O   -0.685681
     5  O   -0.367376
     6  Si   2.232255
     7  Si   1.792646
     8  Si   2.016574
     9  Si   1.577382
    10  O   -0.836298
    11  O   -0.786367
    12  O   -0.794284
    13  O   -0.842347
    14  O   -0.881525
    15  O   -0.878478
    16  O   -0.735728
    17  O   -0.968546
    18  O   -1.083622
    19  O   -0.987184
    20  O   -0.805278
    21  O   -0.828360
    22  H    0.383927
    23  H    0.372297
    24  H    0.365686
    25  H    0.414787
    26  H    0.378849
    27  H    0.429617
    28  H    0.375970
    29  H    0.447582
    30  H    0.411491
    31  H    0.402120
    32  H    0.381369
    33  H    0.443308
 Sum of Mulliken charges =  -0.00000
 Mulliken charges with hydrogens summed into heavy atoms:
               1
     1  Zr   0.019015
     2  O   -0.545925
     3  O   -0.417877
     4  O   -0.685681
     5  O   -0.367376
     6  Si   2.232255
     7  Si   1.792646
     8  Si   2.016574
     9  Si   1.577382
    10  O   -0.464002
    11  O   -0.420680
    12  O   -0.410357
    13  O   -0.427560
    14  O   -0.451908
    15  O   -0.499629
    16  O   -0.354358
    17  O   -0.525238
    18  O   -0.681502
    19  O   -0.575692
    20  O   -0.429308
    21  O   -0.380778
 Electronic spatial extent (au):  <R**2>=           9902.1199
 Charge=              0.0000 electrons
 Dipole moment (field-independent basis, Debye):
    X=              1.0398    Y=             -0.8209    Z=             -2.3956  Tot=              2.7375
 Quadrupole moment (field-independent basis, Debye-Ang):
   XX=           -159.7619   YY=           -155.3850   ZZ=           -157.7921
   XY=             -5.6085   XZ=              2.1222   YZ=              5.6048
 Traceless Quadrupole moment (field-independent basis, Debye-Ang):
   XX=             -2.1156   YY=              2.2614   ZZ=             -0.1457
   XY=             -5.6085   XZ=              2.1222   YZ=              5.6048
 Octapole moment (field-independent basis, Debye-Ang**2):
  XXX=             75.6770  YYY=              6.6796  ZZZ=            -18.1680  XYY=             -3.5985
  XXY=             21.7276  XXZ=             19.4796  XZZ=              5.3062  YZZ=            -16.8808
  YYZ=            -14.5256  XYZ=             29.1329
 Hexadecapole moment (field-independent basis, Debye-Ang**3):
 XXXX=          -5991.6698 YYYY=          -2853.6441 ZZZZ=          -2267.8193 XXXY=             56.5835
 XXXZ=              3.7633 YYYX=             -6.4261 YYYZ=            230.5874 ZZZX=           -180.0935
 ZZZY=            -63.0920 XXYY=          -1503.0129 XXZZ=          -1365.8244 YYZZ=           -929.2115
 XXYZ=            -20.9429 YYXZ=            109.7852 ZZXY=            -62.0778
 N-N= 2.830585541814D+03 E-N=-1.137374142977D+04  KE= 2.373155238547D+03
 1\1\GINC-GRA1039\FOpt\RB3LYP\Gen\H12O16Si4Zr1\SARASHS\12-Aug-2020\0\\#
 n B3LYP/Gen Pseudo=cards EmpiricalDispersion=GD3 Opt=modredundant\\Tit
 le\\0,1\Zr,0.6567369157,-0.1290768613,-0.0704962731\O,-0.2216001005,-0
 .9122346139,1.478865798\O,0.1030022419,1.7445638909,-0.1224806977\O,-0
 .2692136195,-0.9842417155,-1.5950848114\O,2.5896364737,-0.4366877493,-
 0.0829874753\Si,-1.8326229089,-1.3331747866,-1.9541266861\Si,-1.113465
 1807,2.8408766948,-0.0818898995\Si,-1.7240155391,-1.1556865065,2.11469
 72068\Si,4.2246433929,-0.4172554301,-0.0265824162\O,4.9381036853,-0.32
 68865975,-1.5127229174\O,4.7924197288,-1.8247997959,0.6404741139\O,4.6
 108361503,0.9405890384,0.8263949604\O,-2.321626191,-2.6257844659,1.695
 3282217\O,-2.7209215125,0.0641245213,1.5483718736\O,-1.599488131,-1.02
 20164254,3.7439876192\O,-2.0017096791,-1.5591414595,-3.5785741057\O,-2
 .8238605717,-0.1849615393,-1.3024115297\O,-2.3505034219,-2.7139737968,
 -1.1844230504\O,-2.0388129391,2.4405669226,-1.4296370518\O,-0.63069662
 71,4.3988964387,-0.2980065524\O,-1.9640937781,2.7616565049,1.314603977
 3\H,5.530112381,1.2274332313,0.7927471235\H,5.2032200545,-1.1674456576
 ,-1.902985171\H,4.3605235912,-2.1415655002,1.4416252751\H,-2.409885931
 4,-2.8103575438,0.7429685518\H,-2.3846261857,-1.2243982088,4.264165988
 2\H,-3.0563527137,-0.0828306538,0.6428989321\H,-0.5253943309,4.9261250
 698,0.5021348415\H,-2.2684629091,1.870566838,1.5864305496\H,-2.6466774
 637,3.128271236,-1.7288053698\H,-2.3138580102,-3.5288295242,-1.6979609
 727\H,-1.2712807745,-1.2621792177,-4.1326051202\H,-2.6078860963,0.7561
 276628,-1.4910949324\\Version=ES64L-G16RevB.01\State=1-A\HF=-2416.9468
 265\RMSD=3.017e-09\RMSF=4.267e-05\Dipole=0.3854226,-0.3373483,-0.94742
 05\Quadrupole=-1.9149346,2.0205455,-0.1056109,-3.97433,1.7661548,4.135
 4381\PG=C01 [X(H12O16Si4Zr1)]\\@


      SCIENCE SANS CONSCIENCE N'EST QUE RUINE DE L'AME.

                                                  -- RABELAIS
 Job cpu time:       0 days 14 hours 47 minutes 59.8 seconds.
 Elapsed time:       0 days  1 hours  6 minutes 46.8 seconds.
 File lengths (MBytes):  RWF=    167 Int=      0 D2E=      0 Chk=     21 Scr=      1
 Normal termination of Gaussian 16 at Wed Aug 12 20:49:48 2020.
