 Entering Gaussian System, Link 0=g16
 Initial command:
 /opt/software/gaussian/g16.b01/l1.exe "/localscratch/sarashs.36760147.0/Gau-74486.inp" -scrdir="/localscratch/sarashs.36760147.0/"
 Entering Link 1 = /opt/software/gaussian/g16.b01/l1.exe PID=     74487.
  
 Copyright (c) 1988-2017, Gaussian, Inc.  All Rights Reserved.
  
 This is part of the Gaussian(R) 16 program.  It is based on
 the Gaussian(R) 09 system (copyright 2009, Gaussian, Inc.),
 the Gaussian(R) 03 system (copyright 2003, Gaussian, Inc.),
 the Gaussian(R) 98 system (copyright 1998, Gaussian, Inc.),
 the Gaussian(R) 94 system (copyright 1995, Gaussian, Inc.),
 the Gaussian 92(TM) system (copyright 1992, Gaussian, Inc.),
 the Gaussian 90(TM) system (copyright 1990, Gaussian, Inc.),
 the Gaussian 88(TM) system (copyright 1988, Gaussian, Inc.),
 the Gaussian 86(TM) system (copyright 1986, Carnegie Mellon
 University), and the Gaussian 82(TM) system (copyright 1983,
 Carnegie Mellon University). Gaussian is a federally registered
 trademark of Gaussian, Inc.
  
 This software contains proprietary and confidential information,
 including trade secrets, belonging to Gaussian, Inc.
  
 This software is provided under written license and may be
 used, copied, transmitted, or stored only in accord with that
 written license.
  
 The following legend is applicable only to US Government
 contracts under FAR:
  
                    RESTRICTED RIGHTS LEGEND
  
 Use, reproduction and disclosure by the US Government is
 subject to restrictions as set forth in subparagraphs (a)
 and (c) of the Commercial Computer Software - Restricted
 Rights clause in FAR 52.227-19.
  
 Gaussian, Inc.
 340 Quinnipiac St., Bldg. 40, Wallingford CT 06492
  
  
 ---------------------------------------------------------------
 Warning -- This program may not be used in any manner that
 competes with the business of Gaussian, Inc. or will provide
 assistance to any competitor of Gaussian, Inc.  The licensee
 of this program is prohibited from giving any competitor of
 Gaussian, Inc. access to this program.  By using this program,
 the user acknowledges that Gaussian, Inc. is engaged in the
 business of creating and licensing software in the field of
 computational chemistry and represents and warrants to the
 licensee that it is not a competitor of Gaussian, Inc. and that
 it will not use this program in any manner prohibited above.
 ---------------------------------------------------------------
  

 Cite this work as:
 Gaussian 16, Revision B.01,
 M. J. Frisch, G. W. Trucks, H. B. Schlegel, G. E. Scuseria, 
 M. A. Robb, J. R. Cheeseman, G. Scalmani, V. Barone, 
 G. A. Petersson, H. Nakatsuji, X. Li, M. Caricato, A. V. Marenich, 
 J. Bloino, B. G. Janesko, R. Gomperts, B. Mennucci, H. P. Hratchian, 
 J. V. Ortiz, A. F. Izmaylov, J. L. Sonnenberg, D. Williams-Young, 
 F. Ding, F. Lipparini, F. Egidi, J. Goings, B. Peng, A. Petrone, 
 T. Henderson, D. Ranasinghe, V. G. Zakrzewski, J. Gao, N. Rega, 
 G. Zheng, W. Liang, M. Hada, M. Ehara, K. Toyota, R. Fukuda, 
 J. Hasegawa, M. Ishida, T. Nakajima, Y. Honda, O. Kitao, H. Nakai, 
 T. Vreven, K. Throssell, J. A. Montgomery, Jr., J. E. Peralta, 
 F. Ogliaro, M. J. Bearpark, J. J. Heyd, E. N. Brothers, K. N. Kudin, 
 V. N. Staroverov, T. A. Keith, R. Kobayashi, J. Normand, 
 K. Raghavachari, A. P. Rendell, J. C. Burant, S. S. Iyengar, 
 J. Tomasi, M. Cossi, J. M. Millam, M. Klene, C. Adamo, R. Cammi, 
 J. W. Ochterski, R. L. Martin, K. Morokuma, O. Farkas, 
 J. B. Foresman, and D. J. Fox, Gaussian, Inc., Wallingford CT, 2016.
 
 ******************************************
 Gaussian 16:  ES64L-G16RevB.01 20-Dec-2017
                 2-Aug-2020 
 ******************************************
 %NProcShared=16
 Will use up to   16 processors via shared memory.
 ------------------------------------------------------------------
 #n B3LYP/Gen Pseudo=cards EmpiricalDispersion=GD3 Opt=modredundant
 ------------------------------------------------------------------
 1/18=120,19=15,26=3,38=1/1,3;
 2/9=110,12=2,17=6,18=5,40=1/2;
 3/5=7,11=2,16=1,17=8,25=1,30=1,71=1,74=-5,124=31/1,2,3;
 4//1;
 5/5=2,38=5/2;
 6/7=2,8=2,9=2,10=2,28=1/1;
 7//1,2,3,16;
 1/18=20,19=15,26=3/3(2);
 2/9=110/2;
 99//99;
 2/9=110/2;
 3/5=7,6=1,11=2,16=1,17=8,25=1,30=1,71=1,74=-5,82=7,124=31/1,2,3;
 4/5=5,16=3,69=1/1;
 5/5=2,38=5/2;
 7//1,2,3,16;
 1/18=20,19=15,26=3/3(-5);
 2/9=110/2;
 6/7=2,8=2,9=2,10=2,19=2,28=1/1;
 99/9=1/99;
 -----
 Title
 -----
 Symbolic Z-matrix:
 Charge =  0 Multiplicity = 1
 Zr                    0.64646  -0.19013  -0.1519 
 O                    -0.19212  -0.93131   1.43939 
 O                     0.17263   1.70395  -0.1904 
 O                    -0.37772  -1.01692  -1.62844 
 O                     2.5678   -0.57883  -0.26812 
 Si                   -1.96924  -1.33216  -1.87829 
 Si                   -0.98958   2.85681  -0.11809 
 Si                   -1.67476  -1.05152   2.17706 
 Si                    4.17944  -0.85457  -0.33613 
 O                     4.90554  -0.27553  -1.70028 
 O                     4.48294  -2.48387  -0.33628 
 O                     4.80012  -0.04572   0.96283 
 O                    -2.33574  -2.51245   1.83004 
 O                    -2.6209    0.20928   1.64149 
 O                    -1.552    -0.82432   3.7965 
 O                    -2.25427  -1.59164  -3.48183 
 O                    -2.88371  -0.13912  -1.19557 
 O                    -2.46027  -2.68598  -1.04579 
 O                    -2.00825   2.45605  -1.3967 
 O                    -0.44623   4.38142  -0.41555 
 O                    -1.75835   2.86715   1.32642 
 H                     5.75352   0.09387   0.97524 
 H                     5.00438  -0.90251  -2.42566 
 H                     3.96547  -3.02962   0.26589 
 H                    -2.40738  -2.74575   0.88712 
 H                    -0.93391  -1.38513   4.27638 
 H                    -3.02928   0.04705   0.77024 
 H                    -0.29029   4.93346   0.35924 
 H                    -2.09489   2.00321   1.64266 
 H                    -2.6086    3.15807  -1.6773 
 H                    -2.56602  -3.49143  -1.56436 
 H                    -1.55278  -1.33714  -4.09141 
 H                    -2.64046   0.78995  -1.40829 
 
 The following ModRedundant input section has been read:
 A       1       5       9 F                                                   
 

 GradGradGradGradGradGradGradGradGradGradGradGradGradGradGradGradGradGrad
 Berny optimization.
 Initialization pass.
                           ----------------------------
                           !    Initial Parameters    !
                           ! (Angstroms and Degrees)  !
 --------------------------                            --------------------------
 ! Name  Definition              Value          Derivative Info.                !
 --------------------------------------------------------------------------------
 ! R1    R(1,2)                  1.9454         estimate D2E/DX2                !
 ! R2    R(1,3)                  1.9528         estimate D2E/DX2                !
 ! R3    R(1,4)                  1.9781         estimate D2E/DX2                !
 ! R4    R(1,5)                  1.9637         estimate D2E/DX2                !
 ! R5    R(2,8)                  1.6604         estimate D2E/DX2                !
 ! R6    R(3,7)                  1.6386         estimate D2E/DX2                !
 ! R7    R(4,6)                  1.6416         estimate D2E/DX2                !
 ! R8    R(5,9)                  1.6365         estimate D2E/DX2                !
 ! R9    R(6,16)                 1.6492         estimate D2E/DX2                !
 ! R10   R(6,17)                 1.651          estimate D2E/DX2                !
 ! R11   R(6,18)                 1.6634         estimate D2E/DX2                !
 ! R12   R(7,19)                 1.6832         estimate D2E/DX2                !
 ! R13   R(7,20)                 1.6456         estimate D2E/DX2                !
 ! R14   R(7,21)                 1.6364         estimate D2E/DX2                !
 ! R15   R(8,13)                 1.6406         estimate D2E/DX2                !
 ! R16   R(8,14)                 1.6648         estimate D2E/DX2                !
 ! R17   R(8,15)                 1.6399         estimate D2E/DX2                !
 ! R18   R(9,10)                 1.6503         estimate D2E/DX2                !
 ! R19   R(9,11)                 1.6573         estimate D2E/DX2                !
 ! R20   R(9,12)                 1.6513         estimate D2E/DX2                !
 ! R21   R(10,23)                0.9639         estimate D2E/DX2                !
 ! R22   R(11,24)                0.9634         estimate D2E/DX2                !
 ! R23   R(12,22)                0.9636         estimate D2E/DX2                !
 ! R24   R(13,25)                0.974          estimate D2E/DX2                !
 ! R25   R(14,27)                0.9758         estimate D2E/DX2                !
 ! R26   R(15,26)                0.9627         estimate D2E/DX2                !
 ! R27   R(16,32)                0.9636         estimate D2E/DX2                !
 ! R28   R(17,33)                0.9837         estimate D2E/DX2                !
 ! R29   R(18,31)                0.9638         estimate D2E/DX2                !
 ! R30   R(19,30)                0.9654         estimate D2E/DX2                !
 ! R31   R(20,28)                0.964          estimate D2E/DX2                !
 ! R32   R(21,29)                0.9796         estimate D2E/DX2                !
 ! A1    A(2,1,3)              106.3234         estimate D2E/DX2                !
 ! A2    A(2,1,4)              103.1879         estimate D2E/DX2                !
 ! A3    A(2,1,5)              113.2501         estimate D2E/DX2                !
 ! A4    A(3,1,4)              105.3705         estimate D2E/DX2                !
 ! A5    A(3,1,5)              115.3549         estimate D2E/DX2                !
 ! A6    A(4,1,5)              112.3142         estimate D2E/DX2                !
 ! A7    A(1,2,8)              140.8859         estimate D2E/DX2                !
 ! A8    A(1,3,7)              148.6074         estimate D2E/DX2                !
 ! A9    A(1,4,6)              134.0964         estimate D2E/DX2                !
 ! A10   A(1,5,9)              177.9998         Frozen                          !
 ! A11   A(4,6,16)             110.2282         estimate D2E/DX2                !
 ! A12   A(4,6,17)             109.5909         estimate D2E/DX2                !
 ! A13   A(4,6,18)             111.4884         estimate D2E/DX2                !
 ! A14   A(16,6,17)            114.8371         estimate D2E/DX2                !
 ! A15   A(16,6,18)            107.9112         estimate D2E/DX2                !
 ! A16   A(17,6,18)            102.5719         estimate D2E/DX2                !
 ! A17   A(3,7,19)             103.1918         estimate D2E/DX2                !
 ! A18   A(3,7,20)             114.1832         estimate D2E/DX2                !
 ! A19   A(3,7,21)             112.1241         estimate D2E/DX2                !
 ! A20   A(19,7,20)            106.4451         estimate D2E/DX2                !
 ! A21   A(19,7,21)            112.8144         estimate D2E/DX2                !
 ! A22   A(20,7,21)            107.9884         estimate D2E/DX2                !
 ! A23   A(2,8,13)             109.2843         estimate D2E/DX2                !
 ! A24   A(2,8,14)             108.0427         estimate D2E/DX2                !
 ! A25   A(2,8,15)             111.2146         estimate D2E/DX2                !
 ! A26   A(13,8,14)            112.1704         estimate D2E/DX2                !
 ! A27   A(13,8,15)            111.2482         estimate D2E/DX2                !
 ! A28   A(14,8,15)            104.7916         estimate D2E/DX2                !
 ! A29   A(5,9,10)             114.1133         estimate D2E/DX2                !
 ! A30   A(5,9,11)             110.2428         estimate D2E/DX2                !
 ! A31   A(5,9,12)             104.7703         estimate D2E/DX2                !
 ! A32   A(10,9,11)            105.3249         estimate D2E/DX2                !
 ! A33   A(10,9,12)            108.2399         estimate D2E/DX2                !
 ! A34   A(11,9,12)            114.3798         estimate D2E/DX2                !
 ! A35   A(9,10,23)            116.0381         estimate D2E/DX2                !
 ! A36   A(9,11,24)            117.288          estimate D2E/DX2                !
 ! A37   A(9,12,22)            116.934          estimate D2E/DX2                !
 ! A38   A(8,13,25)            116.5961         estimate D2E/DX2                !
 ! A39   A(8,14,27)            113.5263         estimate D2E/DX2                !
 ! A40   A(8,15,26)            117.3612         estimate D2E/DX2                !
 ! A41   A(6,16,32)            116.5984         estimate D2E/DX2                !
 ! A42   A(6,17,33)            117.1373         estimate D2E/DX2                !
 ! A43   A(6,18,31)            116.3135         estimate D2E/DX2                !
 ! A44   A(7,19,30)            115.0881         estimate D2E/DX2                !
 ! A45   A(7,20,28)            116.018          estimate D2E/DX2                !
 ! A46   A(7,21,29)            116.1544         estimate D2E/DX2                !
 ! D1    D(3,1,2,8)             54.013          estimate D2E/DX2                !
 ! D2    D(4,1,2,8)            -56.615          estimate D2E/DX2                !
 ! D3    D(5,1,2,8)           -178.2908         estimate D2E/DX2                !
 ! D4    D(2,1,3,7)            -51.1331         estimate D2E/DX2                !
 ! D5    D(4,1,3,7)             57.9568         estimate D2E/DX2                !
 ! D6    D(5,1,3,7)           -177.5709         estimate D2E/DX2                !
 ! D7    D(2,1,4,6)             41.2968         estimate D2E/DX2                !
 ! D8    D(3,1,4,6)            -70.0365         estimate D2E/DX2                !
 ! D9    D(5,1,4,6)            163.602          estimate D2E/DX2                !
 ! D10   D(2,1,9,10)           178.2288         estimate D2E/DX2                !
 ! D11   D(2,1,9,11)            59.2518         estimate D2E/DX2                !
 ! D12   D(2,1,9,12)           -64.171          estimate D2E/DX2                !
 ! D13   D(3,1,9,10)           -59.5661         estimate D2E/DX2                !
 ! D14   D(3,1,9,11)          -178.5432         estimate D2E/DX2                !
 ! D15   D(3,1,9,12)            58.0341         estimate D2E/DX2                !
 ! D16   D(4,1,9,10)            61.2638         estimate D2E/DX2                !
 ! D17   D(4,1,9,11)           -57.7132         estimate D2E/DX2                !
 ! D18   D(4,1,9,12)           178.864          estimate D2E/DX2                !
 ! D19   D(1,2,8,13)            98.0767         estimate D2E/DX2                !
 ! D20   D(1,2,8,14)           -24.2296         estimate D2E/DX2                !
 ! D21   D(1,2,8,15)          -138.7156         estimate D2E/DX2                !
 ! D22   D(1,3,7,19)           -58.6416         estimate D2E/DX2                !
 ! D23   D(1,3,7,20)          -173.7291         estimate D2E/DX2                !
 ! D24   D(1,3,7,21)            63.0404         estimate D2E/DX2                !
 ! D25   D(1,4,6,16)           161.8736         estimate D2E/DX2                !
 ! D26   D(1,4,6,17)            34.551          estimate D2E/DX2                !
 ! D27   D(1,4,6,18)           -78.3045         estimate D2E/DX2                !
 ! D28   D(4,6,16,32)          -13.7229         estimate D2E/DX2                !
 ! D29   D(17,6,16,32)         110.6319         estimate D2E/DX2                !
 ! D30   D(18,6,16,32)        -135.686          estimate D2E/DX2                !
 ! D31   D(4,6,17,33)           49.7998         estimate D2E/DX2                !
 ! D32   D(16,6,17,33)         -74.8906         estimate D2E/DX2                !
 ! D33   D(18,6,17,33)         168.3378         estimate D2E/DX2                !
 ! D34   D(4,6,18,31)         -102.9126         estimate D2E/DX2                !
 ! D35   D(16,6,18,31)          18.2691         estimate D2E/DX2                !
 ! D36   D(17,6,18,31)         139.8941         estimate D2E/DX2                !
 ! D37   D(3,7,19,30)         -162.9704         estimate D2E/DX2                !
 ! D38   D(20,7,19,30)         -42.4468         estimate D2E/DX2                !
 ! D39   D(21,7,19,30)          75.8144         estimate D2E/DX2                !
 ! D40   D(3,7,20,28)         -100.1112         estimate D2E/DX2                !
 ! D41   D(19,7,20,28)         146.7232         estimate D2E/DX2                !
 ! D42   D(21,7,20,28)          25.3303         estimate D2E/DX2                !
 ! D43   D(3,7,21,29)          -50.5298         estimate D2E/DX2                !
 ! D44   D(19,7,21,29)          65.4642         estimate D2E/DX2                !
 ! D45   D(20,7,21,29)        -177.1813         estimate D2E/DX2                !
 ! D46   D(2,8,13,25)          -54.0971         estimate D2E/DX2                !
 ! D47   D(14,8,13,25)          65.6987         estimate D2E/DX2                !
 ! D48   D(15,8,13,25)        -177.2849         estimate D2E/DX2                !
 ! D49   D(2,8,14,27)           81.1206         estimate D2E/DX2                !
 ! D50   D(13,8,14,27)         -39.3971         estimate D2E/DX2                !
 ! D51   D(15,8,14,27)        -160.2179         estimate D2E/DX2                !
 ! D52   D(2,8,15,26)          -54.9076         estimate D2E/DX2                !
 ! D53   D(13,8,15,26)          67.168          estimate D2E/DX2                !
 ! D54   D(14,8,15,26)        -171.403          estimate D2E/DX2                !
 ! D55   D(5,9,10,23)          -94.3729         estimate D2E/DX2                !
 ! D56   D(11,9,10,23)          26.6721         estimate D2E/DX2                !
 ! D57   D(12,9,10,23)         149.4208         estimate D2E/DX2                !
 ! D58   D(5,9,11,24)          -42.158          estimate D2E/DX2                !
 ! D59   D(10,9,11,24)        -165.7001         estimate D2E/DX2                !
 ! D60   D(12,9,11,24)          75.5819         estimate D2E/DX2                !
 ! D61   D(5,9,12,22)         -165.3211         estimate D2E/DX2                !
 ! D62   D(10,9,12,22)         -43.1977         estimate D2E/DX2                !
 ! D63   D(11,9,12,22)          73.8589         estimate D2E/DX2                !
 --------------------------------------------------------------------------------
 Trust Radius=3.00D-01 FncErr=1.00D-07 GrdErr=1.00D-06 EigMax=2.50D+02 EigMin=1.00D-04
 Number of steps in this run=    151 maximum allowed number of steps=    198.
 GradGradGradGradGradGradGradGradGradGradGradGradGradGradGradGradGradGrad

                          Input orientation:                          
 ---------------------------------------------------------------------
 Center     Atomic      Atomic             Coordinates (Angstroms)
 Number     Number       Type             X           Y           Z
 ---------------------------------------------------------------------
      1         40           0        0.646460   -0.190130   -0.151900
      2          8           0       -0.192120   -0.931310    1.439390
      3          8           0        0.172630    1.703950   -0.190400
      4          8           0       -0.377720   -1.016920   -1.628440
      5          8           0        2.567800   -0.578830   -0.268120
      6         14           0       -1.969240   -1.332160   -1.878290
      7         14           0       -0.989580    2.856810   -0.118090
      8         14           0       -1.674760   -1.051520    2.177060
      9         14           0        4.179440   -0.854570   -0.336130
     10          8           0        4.905540   -0.275530   -1.700280
     11          8           0        4.482940   -2.483870   -0.336280
     12          8           0        4.800120   -0.045720    0.962830
     13          8           0       -2.335740   -2.512450    1.830040
     14          8           0       -2.620900    0.209280    1.641490
     15          8           0       -1.552000   -0.824320    3.796500
     16          8           0       -2.254270   -1.591640   -3.481830
     17          8           0       -2.883710   -0.139120   -1.195570
     18          8           0       -2.460270   -2.685980   -1.045790
     19          8           0       -2.008250    2.456050   -1.396700
     20          8           0       -0.446230    4.381420   -0.415550
     21          8           0       -1.758350    2.867150    1.326420
     22          1           0        5.753520    0.093870    0.975240
     23          1           0        5.004380   -0.902510   -2.425660
     24          1           0        3.965470   -3.029620    0.265890
     25          1           0       -2.407380   -2.745750    0.887120
     26          1           0       -0.933910   -1.385130    4.276380
     27          1           0       -3.029280    0.047050    0.770240
     28          1           0       -0.290290    4.933460    0.359240
     29          1           0       -2.094890    2.003210    1.642660
     30          1           0       -2.608600    3.158070   -1.677300
     31          1           0       -2.566020   -3.491430   -1.564360
     32          1           0       -1.552780   -1.337140   -4.091410
     33          1           0       -2.640460    0.789950   -1.408290
 ---------------------------------------------------------------------
                    Distance matrix (angstroms):
                    1          2          3          4          5
     1  Zr   0.000000
     2  O    1.945448   0.000000
     3  O    1.952828   3.119912   0.000000
     4  O    1.978054   3.074631   3.126336   0.000000
     5  O    1.963706   3.264505   3.309677   3.273909   0.000000
     6  Si   3.335647   3.784949   4.080998   1.641565   4.872872
     7  Si   3.458557   4.172714   1.638611   4.202537   4.947836
     8  Si   3.399134   1.660370   4.075577   4.020614   4.919518
     9  Si   3.599635   4.718993   4.756237   4.739634   1.636472
    10  O    4.532608   6.022766   5.347758   5.335509   2.758279
    11  O    4.473681   5.236376   6.011480   5.239049   2.702144
    12  O    4.303065   5.092528   5.079857   5.870940   2.604361
    13  O    4.267877   2.692159   5.305858   4.246356   5.673259
    14  O    3.748522   2.690866   3.659736   4.150646   5.584831
    15  O    4.563473   2.723360   5.026119   5.553918   5.792595
    16  O    4.633238   5.376514   5.252073   2.699407   5.882693
    17  O    3.681569   3.849056   3.707895   2.690334   5.547294
    18  O    4.084125   3.794666   5.189927   2.731713   5.506936
    19  O    3.949592   4.776604   2.603277   3.843677   5.605749
    20  O    4.707712   5.632981   2.757268   5.533342   5.806048
    21  O    4.161190   4.110248   2.717068   5.071818   5.756119
    22  H    5.237668   6.051204   5.924306   6.753155   3.485295
    23  H    4.966783   6.476346   5.927548   5.442026   3.270576
    24  H    4.387833   4.802662   6.082805   5.148082   2.871414
    25  H    4.115422   2.916260   5.255219   3.665572   5.548201
    26  H    4.851315   2.967274   5.542470   5.942375   5.793494
    27  H    3.797060   3.074805   3.731002   3.730478   5.726886
    28  H    5.233540   5.964217   3.308494   6.274196   6.240801
    29  H    3.942865   3.503321   2.931094   4.771787   5.662039
    30  H    4.912505   5.681211   3.472834   4.733894   6.537991
    31  H    4.818055   4.605663   6.031579   3.303931   6.043144
    32  H    4.655322   5.710153   5.238621   2.747640   5.672016
    33  H    3.652796   4.131148   3.198770   2.904004   5.504500
                    6          7          8          9         10
     6  Si   0.000000
     7  Si   4.648172   0.000000
     8  Si   4.075701   4.583910   0.000000
     9  Si   6.357092   6.367154   6.373898   0.000000
    10  O    6.957784   6.860563   7.676996   1.650277   0.000000
    11  O    6.733116   7.649768   6.803365   1.657326   2.629801
    12  O    7.453263   6.566102   6.664087   1.651296   2.675085
    13  O    3.908851   5.868246   1.640620   7.063174   8.360808
    14  O    3.897377   3.573058   1.664822   7.161521   8.249228
    15  O    5.712725   5.402874   1.639901   7.066042   8.497975
    16  O    1.649216   5.718645   5.714070   7.199398   7.494594
    17  O    1.650971   3.704631   3.697116   7.151125   7.806776
    18  O    1.663429   5.809137   3.698006   6.924119   7.777775
    19  O    3.818898   1.683194   5.018568   7.097360   7.440039
    20  O    6.091319   1.645645   6.143920   6.987040   7.209657
    21  O    5.286667   1.636375   4.010804   7.202265   7.965223
    22  H    8.355670   7.368759   7.611546   2.257644   2.830889
    23  H    7.008251   7.442105   8.112838   2.246989   0.963872
    24  H    6.534498   7.703896   6.275161   2.266948   3.512060
    25  H    3.136510   5.865943   2.251909   6.961257   8.140972
    26  H    6.241368   6.108070   2.251066   6.906742   8.429167
    27  H    3.168693   3.583889   2.240697   7.348647   8.316784
    28  H    6.861735   2.242616   6.406342   7.345973   7.640147
    29  H    4.851553   2.247350   3.129452   7.172847   8.085414
    30  H    4.539972   2.267845   5.783493   7.998594   8.261503
    31  H    2.262111   6.699031   4.554748   7.345938   8.135398
    32  H    2.251969   5.804626   6.276159   6.869741   6.968100
    33  H    2.274816   2.943116   4.144674   7.096831   7.626442
                   11         12         13         14         15
    11  O    0.000000
    12  O    2.780803   0.000000
    13  O    7.154590   7.599823   0.000000
    14  O    7.850425   7.456349   2.743115   0.000000
    15  O    7.500298   6.998952   2.707581   2.618195   0.000000
    16  O    7.488695   8.479935   5.391706   5.442990   7.352282
    17  O    7.778417   7.981770   3.884235   2.870429   5.211882
    18  O    6.982293   7.982405   2.883751   3.953455   5.266736
    19  O    8.225743   7.627591   5.933388   3.828043   6.159409
    20  O    8.451935   7.001692   7.492554   5.134915   6.787033
    21  O    8.387591   7.185439   5.433885   2.812034   4.446440
    22  H    3.158987   0.963645   8.541646   8.401674   7.884999
    23  H    2.671724   3.501096   8.635986   8.713362   9.039221
    24  H    0.963445   3.175850   6.513008   7.467464   6.911659
    25  H    7.002985   7.697009   0.973991   3.057265   3.589994
    26  H    7.199036   6.756681   3.036537   3.511513   0.962719
    27  H    8.003961   7.832318   2.855734   0.975792   3.478490
    28  H    8.847839   7.146246   7.860578   5.421604   6.823394
    29  H    8.204751   7.225057   4.525959   1.869458   3.595648
    30  H    9.160773   8.492567   6.673131   4.439581   6.851155
    31  H    7.225731   8.515846   3.540252   4.896503   6.072934
    32  H    7.200410   8.220246   6.087524   6.033112   7.904563
    33  H    7.912644   7.853839   4.635243   3.104629   5.557018
                   16         17         18         19         20
    16  O    0.000000
    17  O    2.780826   0.000000
    18  O    2.678490   2.586162   0.000000
    19  O    4.559834   2.746232   5.173774   0.000000
    20  O    6.953311   5.194711   7.375751   2.666385   0.000000
    21  O    6.576170   4.082221   6.079254   2.765291   2.655020
    22  H    9.318322   8.908897   8.903846   8.452873   7.665134
    23  H    7.367387   8.019841   7.797808   7.843192   7.853000
    24  H    7.402591   7.576419   6.567247   8.279016   8.651646
    25  H    4.521409   3.370313   1.934557   5.695073   7.505972
    26  H    7.872472   5.941086   5.687484   6.934891   7.450177
    27  H    4.622342   1.979964   3.330344   3.397265   5.183147
    28  H    7.822274   5.905449   8.046042   3.488878   0.964036
    29  H    6.261689   3.642439   5.417543   3.074131   3.551083
    30  H    5.093292   3.343533   5.879943   0.965396   2.786475
    31  H    2.717183   3.387464   0.963767   5.975930   8.233774
    32  H    0.963559   3.404778   3.452348   4.675169   6.887549
    33  H    3.181302   0.983662   3.499423   1.782053   4.324215
                   21         22         23         24         25
    21  O    0.000000
    22  H    8.015148   0.000000
    23  H    8.603660   3.622169   0.000000
    24  H    8.286057   3.668309   3.584463   0.000000
    25  H    5.667351   8.641267   8.325036   6.409347   0.000000
    26  H    5.240596   7.603071   8.967360   6.541583   3.938208
    27  H    3.142859   8.785317   8.697996   7.658120   2.863591
    28  H    2.712983   7.767157   8.357496   9.029444   7.983169
    29  H    0.979622   8.104848   8.682976   7.997052   4.818829
    30  H    3.135266   9.292488   8.660590   9.234820   6.439863
    31  H    7.031392   9.408437   8.047068   6.798783   2.567286
    32  H    6.860845   9.005596   6.779379   7.231987   5.244071
    33  H    3.545633   8.753550   7.895761   7.812190   4.221896
                   26         27         28         29         30
    26  H    0.000000
    27  H    4.328364   0.000000
    28  H    7.462092   5.616760   0.000000
    29  H    4.445807   2.336828   3.672889   0.000000
    30  H    7.674084   3.980687   3.560065   3.552426   0.000000
    31  H    6.419854   4.264482   8.936328   6.379499   6.650595
    32  H    8.390781   5.266087   7.792470   6.658181   5.210527
    33  H    6.321294   2.334325   5.080958   3.328354   2.383563
                   31         32         33
    31  H    0.000000
    32  H    3.471830   0.000000
    33  H    4.284870   3.592589   0.000000
 Stoichiometry    H12O16Si4Zr
 Framework group  C1[X(H12O16Si4Zr)]
 Deg. of freedom    93
 Full point group                 C1      NOp   1
 Largest Abelian subgroup         C1      NOp   1
 Largest concise Abelian subgroup C1      NOp   1
                         Standard orientation:                         
 ---------------------------------------------------------------------
 Center     Atomic      Atomic             Coordinates (Angstroms)
 Number     Number       Type             X           Y           Z
 ---------------------------------------------------------------------
      1         40           0        0.653505    0.023862   -0.037749
      2          8           0       -0.175281   -0.812769    1.510777
      3          8           0       -0.106669    1.818172   -0.164722
      4          8           0       -0.115454   -0.980166   -1.558711
      5          8           0        2.615246   -0.057970   -0.005872
      6         14           0       -1.614864   -1.547513   -1.911736
      7         14           0       -1.437082    2.773746   -0.208615
      8         14           0       -1.671764   -1.153121    2.144440
      9         14           0        4.250701   -0.076432    0.048797
     10          8           0        4.977113    0.586294   -1.276546
     11          8           0        4.804578   -1.636957    0.117456
     12          8           0        4.638349    0.842955    1.364561
     13          8           0       -2.068185   -2.706046    1.793857
     14          8           0       -2.760853   -0.067406    1.506676
     15          8           0       -1.707417   -0.881146    3.761237
     16          8           0       -1.735159   -1.876749   -3.523271
     17          8           0       -2.753185   -0.502432   -1.330585
     18          8           0       -1.948801   -2.947232   -1.077309
     19          8           0       -2.282071    2.194643   -1.544195
     20          8           0       -1.118320    4.359689   -0.510815
     21          8           0       -2.303752    2.687540    1.176728
     22          1           0        5.554534    1.131803    1.440610
     23          1           0        5.226768   -0.029713   -1.974584
     24          1           0        4.335359   -2.247106    0.696920
     25          1           0       -2.031780   -2.964154    0.855394
     26          1           0       -1.046787   -1.328660    4.299872
     27          1           0       -3.072562   -0.307370    0.613690
     28          1           0       -1.109019    4.942877    0.256759
     29          1           0       -2.523626    1.786890    1.493184
     30          1           0       -2.962217    2.787850   -1.886972
     31          1           0       -1.888161   -3.768191   -1.578504
     32          1           0       -1.038577   -1.525156   -4.088604
     33          1           0       -2.643114    0.449566   -1.552342
 ---------------------------------------------------------------------
 Rotational constants (GHZ):           0.2109757           0.1333296           0.1232101
 General basis read from cards:  (5D, 7F)
 ======================================================================================================
                                       Pseudopotential Parameters
 ======================================================================================================
  Center     Atomic      Valence      Angular      Power
  Number     Number     Electrons     Momentum     of R      Exponent        Coefficient   SO-Coeffient
 ======================================================================================================
    1         40           12
                                      G and up 
                                                     2        1.0000000        0.00000000    0.00000000
                                      S - G
                                                     2        8.6365280      150.24299400    0.00000000
                                                     2        3.7176390       18.78003600    0.00000000
                                      P - G
                                                     2        7.6267280       33.19279100    0.00000000
                                                     2        7.4532070       66.38903900    0.00000000
                                                     2        3.3583890        4.62072600    0.00000000
                                                     2        3.2297380        9.26027000    0.00000000
                                      D - G
                                                     2        5.9380860       13.99338300    0.00000000
                                                     2        5.8255440       20.99588200    0.00000000
                                                     2        2.2050190        2.28516600    0.00000000
                                                     2        2.2062920        3.44126000    0.00000000
                                      F - G
                                                     2        4.8002150       -5.23932000    0.00000000
                                                     2        4.7989920       -6.98742400    0.00000000
    2          8
                                   No pseudopotential on this center.
    3          8
                                   No pseudopotential on this center.
    4          8
                                   No pseudopotential on this center.
    5          8
                                   No pseudopotential on this center.
    6         14
                                   No pseudopotential on this center.
    7         14
                                   No pseudopotential on this center.
    8         14
                                   No pseudopotential on this center.
    9         14
                                   No pseudopotential on this center.
   10          8
                                   No pseudopotential on this center.
   11          8
                                   No pseudopotential on this center.
   12          8
                                   No pseudopotential on this center.
   13          8
                                   No pseudopotential on this center.
   14          8
                                   No pseudopotential on this center.
   15          8
                                   No pseudopotential on this center.
   16          8
                                   No pseudopotential on this center.
   17          8
                                   No pseudopotential on this center.
   18          8
                                   No pseudopotential on this center.
   19          8
                                   No pseudopotential on this center.
   20          8
                                   No pseudopotential on this center.
   21          8
                                   No pseudopotential on this center.
   22          1
                                   No pseudopotential on this center.
   23          1
                                   No pseudopotential on this center.
   24          1
                                   No pseudopotential on this center.
   25          1
                                   No pseudopotential on this center.
   26          1
                                   No pseudopotential on this center.
   27          1
                                   No pseudopotential on this center.
   28          1
                                   No pseudopotential on this center.
   29          1
                                   No pseudopotential on this center.
   30          1
                                   No pseudopotential on this center.
   31          1
                                   No pseudopotential on this center.
   32          1
                                   No pseudopotential on this center.
   33          1
                                   No pseudopotential on this center.
 ======================================================================================================
 There are   570 symmetry adapted cartesian basis functions of A   symmetry.
 There are   524 symmetry adapted basis functions of A   symmetry.
   524 basis functions,  1074 primitive gaussians,   570 cartesian basis functions
   104 alpha electrons      104 beta electrons
       nuclear repulsion energy      2828.9068657685 Hartrees.
 NAtoms=   33 NActive=   33 NUniq=   33 SFac= 1.00D+00 NAtFMM=   60 NAOKFM=F Big=F
 Integral buffers will be    131072 words long.
 Raffenetti 2 integral format.
 Two-electron integral symmetry is turned on.
 Nuclear repulsion after empirical dispersion term =     2828.8660837969 Hartrees.
 One-electron integrals computed using PRISM.
 PrsmSu:  requested number of processors reduced to:   4 ShMem   1 Linda.
   1 Symmetry operations used in ECPInt.
 ECPInt:  NShTT=   13203 NPrTT=   78401 LenC2=   11519 LenP2D=   44649.
 LDataN:  DoStor=T MaxTD1= 8 Len=  415
 Number of processors reduced to  13 by ecpmxn.
 NBasis=   524 RedAO= T EigKep=  3.26D-05  NBF=   524
 NBsUse=   524 1.00D-06 EigRej= -1.00D+00 NBFU=   524
 Defaulting to unpruned grid for atomic number  40.
 ExpMin= 1.01D-02 ExpMax= 1.61D+04 ExpMxC= 2.43D+03 IAcc=3 IRadAn=         5 AccDes= 0.00D+00
 Harris functional with IExCor=  402 and IRadAn=       5 diagonalized for initial guess.
 HarFok:  IExCor=  402 AccDes= 0.00D+00 IRadAn=         5 IDoV= 1 UseB2=F ITyADJ=14
 ICtDFT=  3500011 ScaDFX=  1.000000  1.000000  1.000000  1.000000
 Defaulting to unpruned grid for atomic number  40.
 FoFCou: FMM=F IPFlag=           0 FMFlag=      100000 FMFlg1=           0
         NFxFlg=           0 DoJE=T BraDBF=F KetDBF=T FulRan=T
         wScrn=  0.000000 ICntrl=       500 IOpCl=  0 I1Cent=   200000004 NGrid=           0
         NMat0=    1 NMatS0=      1 NMatT0=    0 NMatD0=    1 NMtDS0=    0 NMtDT0=    0
 Petite list used in FoFCou.
 Requested convergence on RMS density matrix=1.00D-08 within 128 cycles.
 Requested convergence on MAX density matrix=1.00D-06.
 Requested convergence on             energy=1.00D-06.
 No special actions if energy rises.
 Defaulting to unpruned grid for atomic number  40.
 Defaulting to unpruned grid for atomic number  40.
 Defaulting to unpruned grid for atomic number  40.
 Defaulting to unpruned grid for atomic number  40.
 Defaulting to unpruned grid for atomic number  40.
 Defaulting to unpruned grid for atomic number  40.
 Defaulting to unpruned grid for atomic number  40.
 Defaulting to unpruned grid for atomic number  40.
 Defaulting to unpruned grid for atomic number  40.
 Defaulting to unpruned grid for atomic number  40.
 Defaulting to unpruned grid for atomic number  40.
 Defaulting to unpruned grid for atomic number  40.
 Defaulting to unpruned grid for atomic number  40.
 Defaulting to unpruned grid for atomic number  40.
 Defaulting to unpruned grid for atomic number  40.
 Defaulting to unpruned grid for atomic number  40.
 SCF Done:  E(RB3LYP) =  -2416.94538700     A.U. after   14 cycles
            NFock= 14  Conv=0.36D-08     -V/T= 2.0185

 **********************************************************************

            Population analysis using the SCF Density.

 **********************************************************************

 Orbital symmetries:
       Occupied  (A) (A) (A) (A) (A) (A) (A) (A) (A) (A) (A) (A)
                 (A) (A) (A) (A) (A) (A) (A) (A) (A) (A) (A) (A)
                 (A) (A) (A) (A) (A) (A) (A) (A) (A) (A) (A) (A)
                 (A) (A) (A) (A) (A) (A) (A) (A) (A) (A) (A) (A)
                 (A) (A) (A) (A) (A) (A) (A) (A) (A) (A) (A) (A)
                 (A) (A) (A) (A) (A) (A) (A) (A) (A) (A) (A) (A)
                 (A) (A) (A) (A) (A) (A) (A) (A) (A) (A) (A) (A)
                 (A) (A) (A) (A) (A) (A) (A) (A) (A) (A) (A) (A)
                 (A) (A) (A) (A) (A) (A) (A) (A)
       Virtual   (A) (A) (A) (A) (A) (A) (A) (A) (A) (A) (A) (A)
                 (A) (A) (A) (A) (A) (A) (A) (A) (A) (A) (A) (A)
                 (A) (A) (A) (A) (A) (A) (A) (A) (A) (A) (A) (A)
                 (A) (A) (A) (A) (A) (A) (A) (A) (A) (A) (A) (A)
                 (A) (A) (A) (A) (A) (A) (A) (A) (A) (A) (A) (A)
                 (A) (A) (A) (A) (A) (A) (A) (A) (A) (A) (A) (A)
                 (A) (A) (A) (A) (A) (A) (A) (A) (A) (A) (A) (A)
                 (A) (A) (A) (A) (A) (A) (A) (A) (A) (A) (A) (A)
                 (A) (A) (A) (A) (A) (A) (A) (A) (A) (A) (A) (A)
                 (A) (A) (A) (A) (A) (A) (A) (A) (A) (A) (A) (A)
                 (A) (A) (A) (A) (A) (A) (A) (A) (A) (A) (A) (A)
                 (A) (A) (A) (A) (A) (A) (A) (A) (A) (A) (A) (A)
                 (A) (A) (A) (A) (A) (A) (A) (A) (A) (A) (A) (A)
                 (A) (A) (A) (A) (A) (A) (A) (A) (A) (A) (A) (A)
                 (A) (A) (A) (A) (A) (A) (A) (A) (A) (A) (A) (A)
                 (A) (A) (A) (A) (A) (A) (A) (A) (A) (A) (A) (A)
                 (A) (A) (A) (A) (A) (A) (A) (A) (A) (A) (A) (A)
                 (A) (A) (A) (A) (A) (A) (A) (A) (A) (A) (A) (A)
                 (A) (A) (A) (A) (A) (A) (A) (A) (A) (A) (A) (A)
                 (A) (A) (A) (A) (A) (A) (A) (A) (A) (A) (A) (A)
                 (A) (A) (A) (A) (A) (A) (A) (A) (A) (A) (A) (A)
                 (A) (A) (A) (A) (A) (A) (A) (A) (A) (A) (A) (A)
                 (A) (A) (A) (A) (A) (A) (A) (A) (A) (A) (A) (A)
                 (A) (A) (A) (A) (A) (A) (A) (A) (A) (A) (A) (A)
                 (A) (A) (A) (A) (A) (A) (A) (A) (A) (A) (A) (A)
                 (A) (A) (A) (A) (A) (A) (A) (A) (A) (A) (A) (A)
                 (A) (A) (A) (A) (A) (A) (A) (A) (A) (A) (A) (A)
                 (A) (A) (A) (A) (A) (A) (A) (A) (A) (A) (A) (A)
                 (A) (A) (A) (A) (A) (A) (A) (A) (A) (A) (A) (A)
                 (A) (A) (A) (A) (A) (A) (A) (A) (A) (A) (A) (A)
                 (A) (A) (A) (A) (A) (A) (A) (A) (A) (A) (A) (A)
                 (A) (A) (A) (A) (A) (A) (A) (A) (A) (A) (A) (A)
                 (A) (A) (A) (A) (A) (A) (A) (A) (A) (A) (A) (A)
                 (A) (A) (A) (A) (A) (A) (A) (A) (A) (A) (A) (A)
                 (A) (A) (A) (A) (A) (A) (A) (A) (A) (A) (A) (A)
 The electronic state is 1-A.
 Alpha  occ. eigenvalues --  -66.22910 -66.21812 -66.21643 -66.21132 -19.18645
 Alpha  occ. eigenvalues --  -19.18410 -19.17911 -19.17062 -19.16833 -19.16764
 Alpha  occ. eigenvalues --  -19.16595 -19.16275 -19.16203 -19.16168 -19.16080
 Alpha  occ. eigenvalues --  -19.15611 -19.15439 -19.15431 -19.14936 -19.14727
 Alpha  occ. eigenvalues --   -5.36970  -5.35893  -5.35710  -5.35190  -3.72955
 Alpha  occ. eigenvalues --   -3.72931  -3.72875  -3.71883  -3.71838  -3.71803
 Alpha  occ. eigenvalues --   -3.71678  -3.71674  -3.71629  -3.71172  -3.71151
 Alpha  occ. eigenvalues --   -3.71099  -2.13514  -1.29725  -1.29674  -1.29517
 Alpha  occ. eigenvalues --   -1.05755  -1.04830  -1.04301  -1.03612  -1.02650
 Alpha  occ. eigenvalues --   -1.02222  -1.01531  -1.01108  -1.00848  -1.00782
 Alpha  occ. eigenvalues --   -0.99894  -0.99434  -0.97461  -0.96410  -0.95810
 Alpha  occ. eigenvalues --   -0.95410  -0.61021  -0.59215  -0.59134  -0.59038
 Alpha  occ. eigenvalues --   -0.55670  -0.54590  -0.54031  -0.53173  -0.53109
 Alpha  occ. eigenvalues --   -0.52673  -0.51953  -0.50276  -0.48787  -0.47992
 Alpha  occ. eigenvalues --   -0.47507  -0.47221  -0.43487  -0.42957  -0.41931
 Alpha  occ. eigenvalues --   -0.41536  -0.41253  -0.40724  -0.39918  -0.39541
 Alpha  occ. eigenvalues --   -0.39077  -0.38906  -0.38649  -0.38302  -0.38116
 Alpha  occ. eigenvalues --   -0.37672  -0.37558  -0.37196  -0.36558  -0.36381
 Alpha  occ. eigenvalues --   -0.36225  -0.35840  -0.35533  -0.35228  -0.34969
 Alpha  occ. eigenvalues --   -0.34557  -0.34172  -0.33830  -0.33634  -0.33148
 Alpha  occ. eigenvalues --   -0.32685  -0.32249  -0.32069  -0.31416
 Alpha virt. eigenvalues --   -0.04546  -0.03329  -0.03117  -0.02896  -0.02166
 Alpha virt. eigenvalues --   -0.01486  -0.00705  -0.00483  -0.00042   0.00268
 Alpha virt. eigenvalues --    0.00591   0.00787   0.00937   0.01729   0.02152
 Alpha virt. eigenvalues --    0.03161   0.03265   0.03760   0.03862   0.03984
 Alpha virt. eigenvalues --    0.04159   0.04777   0.05721   0.05833   0.06148
 Alpha virt. eigenvalues --    0.06234   0.07229   0.07384   0.07667   0.08346
 Alpha virt. eigenvalues --    0.08493   0.08751   0.08955   0.09405   0.09497
 Alpha virt. eigenvalues --    0.10101   0.10680   0.10825   0.11062   0.11592
 Alpha virt. eigenvalues --    0.11720   0.12430   0.13061   0.13312   0.13806
 Alpha virt. eigenvalues --    0.13886   0.14385   0.14697   0.15031   0.15218
 Alpha virt. eigenvalues --    0.15501   0.15953   0.16207   0.16539   0.16668
 Alpha virt. eigenvalues --    0.17061   0.17230   0.17625   0.17898   0.18473
 Alpha virt. eigenvalues --    0.18563   0.18759   0.18856   0.19332   0.19583
 Alpha virt. eigenvalues --    0.19797   0.20133   0.20788   0.21014   0.21220
 Alpha virt. eigenvalues --    0.21336   0.21796   0.21950   0.22393   0.22863
 Alpha virt. eigenvalues --    0.23543   0.23742   0.23903   0.24196   0.24453
 Alpha virt. eigenvalues --    0.24989   0.25198   0.25333   0.25783   0.25993
 Alpha virt. eigenvalues --    0.26132   0.26642   0.26751   0.27217   0.27505
 Alpha virt. eigenvalues --    0.27805   0.28177   0.28271   0.28675   0.29020
 Alpha virt. eigenvalues --    0.29230   0.29759   0.29836   0.30018   0.30274
 Alpha virt. eigenvalues --    0.30619   0.30720   0.31135   0.31383   0.32162
 Alpha virt. eigenvalues --    0.32357   0.32528   0.33131   0.33794   0.33849
 Alpha virt. eigenvalues --    0.34389   0.34762   0.35394   0.36129   0.36211
 Alpha virt. eigenvalues --    0.36571   0.37483   0.37914   0.38519   0.38753
 Alpha virt. eigenvalues --    0.39401   0.39584   0.40467   0.40929   0.41497
 Alpha virt. eigenvalues --    0.42069   0.42140   0.43359   0.43728   0.44263
 Alpha virt. eigenvalues --    0.45051   0.45565   0.45871   0.45919   0.46915
 Alpha virt. eigenvalues --    0.47388   0.47519   0.48620   0.48822   0.49215
 Alpha virt. eigenvalues --    0.49709   0.50315   0.50987   0.51980   0.52556
 Alpha virt. eigenvalues --    0.53297   0.54303   0.54992   0.56547   0.57269
 Alpha virt. eigenvalues --    0.58237   0.58754   0.59162   0.59651   0.60225
 Alpha virt. eigenvalues --    0.61350   0.61965   0.62046   0.62843   0.66142
 Alpha virt. eigenvalues --    0.66427   0.66965   0.67933   0.69155   0.69806
 Alpha virt. eigenvalues --    0.70559   0.71105   0.72235   0.74134   0.75074
 Alpha virt. eigenvalues --    0.75300   0.77100   0.78268   0.78760   0.80218
 Alpha virt. eigenvalues --    0.81053   0.81938   0.83146   0.83683   0.85048
 Alpha virt. eigenvalues --    0.86416   0.87875   0.89329   0.90432   0.90987
 Alpha virt. eigenvalues --    0.93282   0.95601   0.96521   0.96625   0.97409
 Alpha virt. eigenvalues --    0.98326   0.98670   0.99014   0.99206   0.99592
 Alpha virt. eigenvalues --    1.00768   1.01072   1.02268   1.03145   1.03631
 Alpha virt. eigenvalues --    1.04315   1.04624   1.05210   1.06921   1.07804
 Alpha virt. eigenvalues --    1.09231   1.12819   1.15234   1.16140   1.16749
 Alpha virt. eigenvalues --    1.18473   1.18761   1.19724   1.20135   1.20574
 Alpha virt. eigenvalues --    1.21685   1.21903   1.22339   1.22607   1.23316
 Alpha virt. eigenvalues --    1.23522   1.23642   1.24215   1.25174   1.25701
 Alpha virt. eigenvalues --    1.25751   1.26025   1.27365   1.27817   1.27892
 Alpha virt. eigenvalues --    1.28578   1.29609   1.29810   1.30607   1.31157
 Alpha virt. eigenvalues --    1.31584   1.32625   1.33161   1.33752   1.34745
 Alpha virt. eigenvalues --    1.35468   1.36238   1.36471   1.37140   1.38219
 Alpha virt. eigenvalues --    1.39217   1.39641   1.40154   1.40880   1.41416
 Alpha virt. eigenvalues --    1.41640   1.42279   1.42981   1.44274   1.45309
 Alpha virt. eigenvalues --    1.47601   1.49099   1.50030   1.52648   1.53502
 Alpha virt. eigenvalues --    1.56189   1.57621   1.57982   1.58308   1.59956
 Alpha virt. eigenvalues --    1.60306   1.60946   1.61528   1.62080   1.63189
 Alpha virt. eigenvalues --    1.63574   1.63630   1.64748   1.65801   1.66362
 Alpha virt. eigenvalues --    1.66901   1.68116   1.68618   1.69487   1.69979
 Alpha virt. eigenvalues --    1.70380   1.71129   1.71687   1.72338   1.73431
 Alpha virt. eigenvalues --    1.74469   1.74789   1.75181   1.75596   1.76174
 Alpha virt. eigenvalues --    1.76703   1.77192   1.78330   1.79071   1.80019
 Alpha virt. eigenvalues --    1.80679   1.81187   1.81983   1.82184   1.83051
 Alpha virt. eigenvalues --    1.83385   1.84265   1.85367   1.85826   1.86283
 Alpha virt. eigenvalues --    1.87630   1.88371   1.89004   1.89380   1.90241
 Alpha virt. eigenvalues --    1.90835   1.91691   1.91898   1.92815   1.93173
 Alpha virt. eigenvalues --    1.93699   1.95290   1.96380   1.97403   1.97961
 Alpha virt. eigenvalues --    1.99204   1.99546   2.00293   2.01943   2.04699
 Alpha virt. eigenvalues --    2.05832   2.06688   2.09552   2.09886   2.10579
 Alpha virt. eigenvalues --    2.11828   2.13320   2.14296   2.14718   2.15982
 Alpha virt. eigenvalues --    2.17215   2.18440   2.19770   2.20413   2.29619
 Alpha virt. eigenvalues --    2.31968   2.33174   2.35263   2.39404   2.40280
 Alpha virt. eigenvalues --    2.40634   2.41137   2.41547   2.42882   2.43868
 Alpha virt. eigenvalues --    2.44119   2.44994   2.46412   2.47766   2.49364
 Alpha virt. eigenvalues --    2.49541   2.50604   2.51000   2.52238   2.53852
 Alpha virt. eigenvalues --    2.54537   2.55964   2.58467   2.59923   2.60756
 Alpha virt. eigenvalues --    2.60941   2.61705   2.62011   2.62255   2.62589
 Alpha virt. eigenvalues --    2.63032   2.63446   2.64021   2.65089   2.65418
 Alpha virt. eigenvalues --    2.65809   2.66057   2.66832   2.67436   2.67823
 Alpha virt. eigenvalues --    2.68870   2.69496   2.71109   2.71991   2.72447
 Alpha virt. eigenvalues --    2.73360   2.74476   2.75494   2.76464   2.77922
 Alpha virt. eigenvalues --    2.79584   2.80383   2.80818   2.82837   2.83160
 Alpha virt. eigenvalues --    2.83923   2.84773   2.86290   2.87456   2.88073
 Alpha virt. eigenvalues --    3.14237   3.21184   3.36600   3.40813   3.47061
 Alpha virt. eigenvalues --    3.47622   3.47955   3.48716   3.48883   3.52168
 Alpha virt. eigenvalues --    3.53033   3.53991   3.59936   3.61117   3.62082
 Alpha virt. eigenvalues --    3.65834   4.25890   4.57146   8.08605  31.32421
          Condensed to atoms (all electrons):
               1          2          3          4          5          6
     1  Zr  14.573460  -0.004229  -0.036737  -0.035597  -0.184279  -0.684477
     2  O   -0.004229   8.877772   0.020975  -0.046271  -0.060203   0.064065
     3  O   -0.036737   0.020975   8.890543   0.017447  -0.062872   0.004007
     4  O   -0.035597  -0.046271   0.017447   8.837670  -0.050756  -0.753844
     5  O   -0.184279  -0.060203  -0.062872  -0.050756   9.499861  -0.017179
     6  Si  -0.684477   0.064065   0.004007  -0.753844  -0.017179  14.251614
     7  Si  -0.507584  -0.027342  -0.896915  -0.018289  -0.043591   0.069889
     8  Si  -0.623181  -0.821569  -0.002647   0.046900  -0.025439   0.043398
     9  Si  -0.205474  -0.046974  -0.048342  -0.042110  -1.221599   0.025805
    10  O   -0.012278   0.001492   0.000973   0.001032   0.133916  -0.001203
    11  O   -0.045593   0.002433   0.002814   0.001729   0.295208  -0.000519
    12  O    0.020281   0.001309   0.001983   0.002063   0.153402  -0.002464
    13  O   -0.031600   0.255328   0.002038  -0.016929   0.000241   0.045032
    14  O   -0.003896   0.268459  -0.014064  -0.000008   0.003442  -0.005721
    15  O   -0.052273   0.267342  -0.000069   0.002829   0.000843  -0.009105
    16  O   -0.142994   0.005685  -0.000340   0.352076   0.003237  -0.438490
    17  O    0.011079  -0.042328   0.011535   0.215699   0.001521  -0.506165
    18  O    0.007427  -0.018834   0.004239   0.189754  -0.000354  -0.479794
    19  O   -0.000401   0.008431   0.257712   0.008752   0.002442  -0.002328
    20  O   -0.143451  -0.000666   0.175959  -0.000760   0.002262   0.008628
    21  O    0.024080   0.010619   0.149869   0.003274   0.000141  -0.008031
    22  H   -0.002420  -0.000009  -0.000010  -0.000006   0.006147   0.000035
    23  H   -0.008526  -0.000007  -0.000004  -0.000013  -0.024034   0.000111
    24  H   -0.004738  -0.000145  -0.000021  -0.000006  -0.003677   0.000164
    25  H    0.024054  -0.022115  -0.000155  -0.000417  -0.000043  -0.001662
    26  H   -0.007507  -0.013001   0.000026  -0.000011  -0.000021   0.000381
    27  H   -0.006219  -0.020506   0.000678  -0.001763   0.000010   0.014047
    28  H    0.005084  -0.000011  -0.019276  -0.000012  -0.000017  -0.000229
    29  H    0.002634  -0.005531  -0.020500  -0.000217  -0.000090   0.000837
    30  H    0.001457  -0.000018   0.000250  -0.000478  -0.000012  -0.001087
    31  H    0.000712   0.000315  -0.000018  -0.017894  -0.000013   0.061171
    32  H    0.001799  -0.000024   0.000038   0.010693   0.000011   0.021063
    33  H   -0.014813   0.000969  -0.010382  -0.008723  -0.000104   0.050583
               7          8          9         10         11         12
     1  Zr  -0.507584  -0.623181  -0.205474  -0.012278  -0.045593   0.020281
     2  O   -0.027342  -0.821569  -0.046974   0.001492   0.002433   0.001309
     3  O   -0.896915  -0.002647  -0.048342   0.000973   0.002814   0.001983
     4  O   -0.018289   0.046900  -0.042110   0.001032   0.001729   0.002063
     5  O   -0.043591  -0.025439  -1.221599   0.133916   0.295208   0.153402
     6  Si   0.069889   0.043398   0.025805  -0.001203  -0.000519  -0.002464
     7  Si  13.782951   0.154129   0.015416  -0.000077  -0.001594   0.001992
     8  Si   0.154129  13.855961   0.026530  -0.001181   0.000279  -0.001003
     9  Si   0.015416   0.026530  14.165612  -0.083772  -0.163976  -0.152913
    10  O   -0.000077  -0.001181  -0.083772   8.512185   0.032920   0.014665
    11  O   -0.001594   0.000279  -0.163976   0.032920   8.464977  -0.045057
    12  O    0.001992  -0.001003  -0.152913   0.014665  -0.045057   8.597322
    13  O    0.003993  -0.134053   0.001019   0.000001   0.000005  -0.000012
    14  O    0.002434  -0.545484  -0.001749  -0.000005  -0.000004   0.000005
    15  O   -0.003811  -0.390305  -0.001543  -0.000003  -0.000004   0.000014
    16  O    0.003313  -0.007688  -0.000360   0.000001  -0.000019  -0.000004
    17  O   -0.014718   0.075483   0.000815   0.000001   0.000005  -0.000005
    18  O   -0.001190   0.072919   0.003363  -0.000001   0.000048   0.000003
    19  O   -0.405665  -0.014233   0.000855  -0.000000  -0.000003  -0.000010
    20  O   -0.126892   0.009561   0.002281   0.000009  -0.000002  -0.000017
    21  O    0.029976  -0.041541  -0.000832  -0.000002  -0.000001   0.000000
    22  H   -0.000026   0.000023   0.039624  -0.006416  -0.004543   0.221206
    23  H    0.000071   0.000060   0.080959   0.229491  -0.006700   0.006018
    24  H    0.000028   0.000101   0.028377   0.006662   0.248800  -0.007126
    25  H   -0.000401   0.053328  -0.000285  -0.000000  -0.000000  -0.000000
    26  H    0.000614   0.062516  -0.000062   0.000000   0.000000  -0.000000
    27  H    0.002682   0.082718   0.000087   0.000000  -0.000000   0.000000
    28  H    0.058667   0.000023  -0.000117   0.000000  -0.000000  -0.000000
    29  H    0.047147   0.023703  -0.000051   0.000000   0.000000  -0.000000
    30  H    0.040394  -0.000067   0.000013   0.000000   0.000000   0.000000
    31  H    0.000106  -0.002110  -0.000047   0.000000  -0.000000   0.000000
    32  H   -0.000518   0.000041   0.000097  -0.000000   0.000000  -0.000000
    33  H    0.021868  -0.000045   0.000063  -0.000000   0.000000   0.000000
              13         14         15         16         17         18
     1  Zr  -0.031600  -0.003896  -0.052273  -0.142994   0.011079   0.007427
     2  O    0.255328   0.268459   0.267342   0.005685  -0.042328  -0.018834
     3  O    0.002038  -0.014064  -0.000069  -0.000340   0.011535   0.004239
     4  O   -0.016929  -0.000008   0.002829   0.352076   0.215699   0.189754
     5  O    0.000241   0.003442   0.000843   0.003237   0.001521  -0.000354
     6  Si   0.045032  -0.005721  -0.009105  -0.438490  -0.506165  -0.479794
     7  Si   0.003993   0.002434  -0.003811   0.003313  -0.014718  -0.001190
     8  Si  -0.134053  -0.545484  -0.390305  -0.007688   0.075483   0.072919
     9  Si   0.001019  -0.001749  -0.001543  -0.000360   0.000815   0.003363
    10  O    0.000001  -0.000005  -0.000003   0.000001   0.000001  -0.000001
    11  O    0.000005  -0.000004  -0.000004  -0.000019   0.000005   0.000048
    12  O   -0.000012   0.000005   0.000014  -0.000004  -0.000005   0.000003
    13  O    8.638092   0.027005  -0.112365   0.003964  -0.028442  -0.042845
    14  O    0.027005   8.820191   0.154687   0.003057  -0.028756  -0.022482
    15  O   -0.112365   0.154687   8.772798  -0.000170   0.003659   0.001279
    16  O    0.003964   0.003057  -0.000170   8.917727  -0.093244  -0.104030
    17  O   -0.028442  -0.028756   0.003659  -0.093244   8.939870   0.221233
    18  O   -0.042845  -0.022482   0.001279  -0.104030   0.221233   9.029717
    19  O    0.000199   0.002482   0.000324  -0.001147  -0.032901   0.000081
    20  O    0.000012  -0.000472   0.000015   0.000070  -0.000577   0.000007
    21  O   -0.000560   0.024022   0.000923  -0.000191  -0.005367   0.000408
    22  H    0.000000  -0.000000   0.000000   0.000000   0.000000  -0.000000
    23  H    0.000000   0.000000   0.000000  -0.000000   0.000000   0.000000
    24  H   -0.000001   0.000000   0.000001   0.000000  -0.000000  -0.000001
    25  H    0.216660  -0.009669   0.007430  -0.000259   0.000675   0.015821
    26  H   -0.006539   0.001264   0.226136   0.000000  -0.000019   0.000012
    27  H   -0.004666   0.207171   0.000112   0.000248   0.018400  -0.000768
    28  H    0.000000  -0.000004  -0.000001  -0.000000   0.000002   0.000000
    29  H    0.000777   0.013540  -0.001339  -0.000003  -0.000736  -0.000004
    30  H    0.000001  -0.000051   0.000001   0.000100  -0.000600  -0.000006
    31  H    0.002402   0.000063  -0.000020   0.005142  -0.001286   0.217473
    32  H   -0.000007  -0.000006   0.000000   0.234993  -0.003465   0.003955
    33  H    0.000205   0.001842  -0.000049   0.000318   0.230943   0.002205
              19         20         21         22         23         24
     1  Zr  -0.000401  -0.143451   0.024080  -0.002420  -0.008526  -0.004738
     2  O    0.008431  -0.000666   0.010619  -0.000009  -0.000007  -0.000145
     3  O    0.257712   0.175959   0.149869  -0.000010  -0.000004  -0.000021
     4  O    0.008752  -0.000760   0.003274  -0.000006  -0.000013  -0.000006
     5  O    0.002442   0.002262   0.000141   0.006147  -0.024034  -0.003677
     6  Si  -0.002328   0.008628  -0.008031   0.000035   0.000111   0.000164
     7  Si  -0.405665  -0.126892   0.029976  -0.000026   0.000071   0.000028
     8  Si  -0.014233   0.009561  -0.041541   0.000023   0.000060   0.000101
     9  Si   0.000855   0.002281  -0.000832   0.039624   0.080959   0.028377
    10  O   -0.000000   0.000009  -0.000002  -0.006416   0.229491   0.006662
    11  O   -0.000003  -0.000002  -0.000001  -0.004543  -0.006700   0.248800
    12  O   -0.000010  -0.000017   0.000000   0.221206   0.006018  -0.007126
    13  O    0.000199   0.000012  -0.000560   0.000000   0.000000  -0.000001
    14  O    0.002482  -0.000472   0.024022  -0.000000   0.000000   0.000000
    15  O    0.000324   0.000015   0.000923   0.000000   0.000000   0.000001
    16  O   -0.001147   0.000070  -0.000191   0.000000  -0.000000   0.000000
    17  O   -0.032901  -0.000577  -0.005367   0.000000   0.000000  -0.000000
    18  O    0.000081   0.000007   0.000408  -0.000000   0.000000  -0.000001
    19  O    8.871061   0.036103   0.021020  -0.000000   0.000000  -0.000000
    20  O    0.036103   8.665844  -0.053545   0.000000   0.000000  -0.000000
    21  O    0.021020  -0.053545   8.476617  -0.000000   0.000000   0.000000
    22  H   -0.000000   0.000000  -0.000000   0.364942   0.000065   0.000111
    23  H    0.000000   0.000000   0.000000   0.000065   0.351580   0.000029
    24  H   -0.000000  -0.000000   0.000000   0.000111   0.000029   0.367246
    25  H   -0.000035   0.000000  -0.000016   0.000000   0.000000   0.000000
    26  H    0.000000  -0.000000   0.000043  -0.000000   0.000000  -0.000000
    27  H   -0.000116   0.000211  -0.004540   0.000000  -0.000000   0.000000
    28  H    0.004149   0.228689  -0.001807  -0.000000   0.000000   0.000000
    29  H   -0.008607   0.007920   0.208342   0.000000  -0.000000  -0.000000
    30  H    0.224248  -0.001672  -0.007085   0.000000  -0.000000  -0.000000
    31  H    0.000003  -0.000000  -0.000000  -0.000000  -0.000000  -0.000000
    32  H    0.000105  -0.000000   0.000001  -0.000000   0.000000   0.000000
    33  H    0.014042  -0.000132   0.001436  -0.000000  -0.000000  -0.000000
              25         26         27         28         29         30
     1  Zr   0.024054  -0.007507  -0.006219   0.005084   0.002634   0.001457
     2  O   -0.022115  -0.013001  -0.020506  -0.000011  -0.005531  -0.000018
     3  O   -0.000155   0.000026   0.000678  -0.019276  -0.020500   0.000250
     4  O   -0.000417  -0.000011  -0.001763  -0.000012  -0.000217  -0.000478
     5  O   -0.000043  -0.000021   0.000010  -0.000017  -0.000090  -0.000012
     6  Si  -0.001662   0.000381   0.014047  -0.000229   0.000837  -0.001087
     7  Si  -0.000401   0.000614   0.002682   0.058667   0.047147   0.040394
     8  Si   0.053328   0.062516   0.082718   0.000023   0.023703  -0.000067
     9  Si  -0.000285  -0.000062   0.000087  -0.000117  -0.000051   0.000013
    10  O   -0.000000   0.000000   0.000000   0.000000   0.000000   0.000000
    11  O   -0.000000   0.000000  -0.000000  -0.000000   0.000000   0.000000
    12  O   -0.000000  -0.000000   0.000000  -0.000000  -0.000000   0.000000
    13  O    0.216660  -0.006539  -0.004666   0.000000   0.000777   0.000001
    14  O   -0.009669   0.001264   0.207171  -0.000004   0.013540  -0.000051
    15  O    0.007430   0.226136   0.000112  -0.000001  -0.001339   0.000001
    16  O   -0.000259   0.000000   0.000248  -0.000000  -0.000003   0.000100
    17  O    0.000675  -0.000019   0.018400   0.000002  -0.000736  -0.000600
    18  O    0.015821   0.000012  -0.000768   0.000000  -0.000004  -0.000006
    19  O   -0.000035   0.000000  -0.000116   0.004149  -0.008607   0.224248
    20  O    0.000000  -0.000000   0.000211   0.228689   0.007920  -0.001672
    21  O   -0.000016   0.000043  -0.004540  -0.001807   0.208342  -0.007085
    22  H    0.000000  -0.000000   0.000000  -0.000000   0.000000   0.000000
    23  H    0.000000   0.000000  -0.000000   0.000000  -0.000000  -0.000000
    24  H    0.000000  -0.000000   0.000000   0.000000  -0.000000  -0.000000
    25  H    0.301339  -0.000033   0.000063   0.000000   0.000001   0.000000
    26  H   -0.000033   0.369203  -0.000036   0.000000   0.000018  -0.000000
    27  H    0.000063  -0.000036   0.284426  -0.000000  -0.001002   0.000010
    28  H    0.000000   0.000000  -0.000000   0.348497  -0.000015  -0.000009
    29  H    0.000001   0.000018  -0.001002  -0.000015   0.286362   0.000164
    30  H    0.000000  -0.000000   0.000010  -0.000009   0.000164   0.333928
    31  H   -0.000240   0.000000   0.000015   0.000000   0.000000  -0.000000
    32  H   -0.000001  -0.000000  -0.000000   0.000000  -0.000000  -0.000000
    33  H    0.000008   0.000000  -0.002535  -0.000002   0.000118  -0.001014
              31         32         33
     1  Zr   0.000712   0.001799  -0.014813
     2  O    0.000315  -0.000024   0.000969
     3  O   -0.000018   0.000038  -0.010382
     4  O   -0.017894   0.010693  -0.008723
     5  O   -0.000013   0.000011  -0.000104
     6  Si   0.061171   0.021063   0.050583
     7  Si   0.000106  -0.000518   0.021868
     8  Si  -0.002110   0.000041  -0.000045
     9  Si  -0.000047   0.000097   0.000063
    10  O    0.000000  -0.000000  -0.000000
    11  O   -0.000000   0.000000   0.000000
    12  O    0.000000  -0.000000   0.000000
    13  O    0.002402  -0.000007   0.000205
    14  O    0.000063  -0.000006   0.001842
    15  O   -0.000020   0.000000  -0.000049
    16  O    0.005142   0.234993   0.000318
    17  O   -0.001286  -0.003465   0.230943
    18  O    0.217473   0.003955   0.002205
    19  O    0.000003   0.000105   0.014042
    20  O   -0.000000  -0.000000  -0.000132
    21  O   -0.000000   0.000001   0.001436
    22  H   -0.000000  -0.000000  -0.000000
    23  H   -0.000000   0.000000  -0.000000
    24  H   -0.000000   0.000000  -0.000000
    25  H   -0.000240  -0.000001   0.000008
    26  H    0.000000  -0.000000   0.000000
    27  H    0.000015  -0.000000  -0.002535
    28  H    0.000000   0.000000  -0.000002
    29  H    0.000000  -0.000000   0.000118
    30  H   -0.000000  -0.000000  -0.001014
    31  H    0.327222  -0.000009  -0.000036
    32  H   -0.000009   0.349265   0.000145
    33  H   -0.000036   0.000145   0.270448
 Mulliken charges:
               1
     1  Zr   0.086199
     2  O   -0.655412
     3  O   -0.428734
     4  O   -0.695813
     5  O   -0.408404
     6  Si   2.251468
     7  Si   1.812944
     8  Si   2.102874
     9  Si   1.579289
    10  O   -0.828410
    11  O   -0.781205
    12  O   -0.811652
    13  O   -0.818956
    14  O   -0.897292
    15  O   -0.867339
    16  O   -0.740995
    17  O   -0.972311
    18  O   -1.099633
    19  O   -0.986562
    20  O   -0.809382
    21  O   -0.827254
    22  H    0.381277
    23  H    0.370900
    24  H    0.364195
    25  H    0.415948
    26  H    0.367018
    27  H    0.431271
    28  H    0.376388
    29  H    0.446531
    30  H    0.411534
    31  H    0.407050
    32  H    0.381824
    33  H    0.442644
 Sum of Mulliken charges =  -0.00000
 Mulliken charges with hydrogens summed into heavy atoms:
               1
     1  Zr   0.086199
     2  O   -0.655412
     3  O   -0.428734
     4  O   -0.695813
     5  O   -0.408404
     6  Si   2.251468
     7  Si   1.812944
     8  Si   2.102874
     9  Si   1.579289
    10  O   -0.457510
    11  O   -0.417010
    12  O   -0.430375
    13  O   -0.403008
    14  O   -0.466021
    15  O   -0.500321
    16  O   -0.359171
    17  O   -0.529667
    18  O   -0.692584
    19  O   -0.575028
    20  O   -0.432994
    21  O   -0.380722
 Electronic spatial extent (au):  <R**2>=           9924.6241
 Charge=             -0.0000 electrons
 Dipole moment (field-independent basis, Debye):
    X=              2.9119    Y=             -1.4278    Z=             -3.0265  Tot=              4.4359
 Quadrupole moment (field-independent basis, Debye-Ang):
   XX=           -167.9661   YY=           -154.8629   ZZ=           -157.5901
   XY=             -9.8506   XZ=             11.6122   YZ=              3.2201
 Traceless Quadrupole moment (field-independent basis, Debye-Ang):
   XX=             -7.8264   YY=              5.2768   ZZ=              2.5496
   XY=             -9.8506   XZ=             11.6122   YZ=              3.2201
 Octapole moment (field-independent basis, Debye-Ang**2):
  XXX=             85.1344  YYY=             -3.9926  ZZZ=            -29.5672  XYY=             -6.0566
  XXY=             32.0405  XXZ=            -25.5560  XZZ=             60.3623  YZZ=            -17.4553
  YYZ=             -1.0608  XYZ=             12.5796
 Hexadecapole moment (field-independent basis, Debye-Ang**3):
 XXXX=          -6021.6823 YYYY=          -2801.5635 ZZZZ=          -2238.7212 XXXY=              9.5978
 XXXZ=            183.8867 YYYX=            -53.7507 YYYZ=            215.9039 ZZZX=              5.0706
 ZZZY=            -91.7634 XXYY=          -1589.6751 XXZZ=          -1492.0230 YYZZ=           -955.2493
 XXYZ=             -6.0058 YYXZ=            137.3131 ZZXY=            -93.1107
 N-N= 2.828866083797D+03 E-N=-1.137012626642D+04  KE= 2.373145617592D+03
 PrsmSu:  requested number of processors reduced to:   2 ShMem   1 Linda.
 PrsmSu:  requested number of processors reduced to:  10 ShMem   1 Linda.
   1 Symmetry operations used in ECPInt.
 ECPInt:  NShTT=   13203 NPrTT=   78401 LenC2=   11519 LenP2D=   44649.
 LDataN:  DoStor=T MaxTD1= 9 Len=  602
 Number of processors reduced to  14 by ecpmxn.
 Calling FoFJK, ICntrl=      2127 FMM=F ISym2X=0 I1Cent= 0 IOpClX= 0 NMat=1 NMatS=1 NMatT=0.
 CoulSu:  requested number of processors reduced to:  10 ShMem   1 Linda.
 Defaulting to unpruned grid for atomic number  40.
 Defaulting to unpruned grid for atomic number  40.
 Defaulting to unpruned grid for atomic number  40.
 Defaulting to unpruned grid for atomic number  40.
 Defaulting to unpruned grid for atomic number  40.
 Defaulting to unpruned grid for atomic number  40.
 Defaulting to unpruned grid for atomic number  40.
 Defaulting to unpruned grid for atomic number  40.
 Defaulting to unpruned grid for atomic number  40.
 Defaulting to unpruned grid for atomic number  40.
 Defaulting to unpruned grid for atomic number  40.
 Defaulting to unpruned grid for atomic number  40.
 Defaulting to unpruned grid for atomic number  40.
 Defaulting to unpruned grid for atomic number  40.
 Defaulting to unpruned grid for atomic number  40.
 Defaulting to unpruned grid for atomic number  40.
 ***** Axes restored to original set *****
 -------------------------------------------------------------------
 Center     Atomic                   Forces (Hartrees/Bohr)
 Number     Number              X              Y              Z
 -------------------------------------------------------------------
      1       40           0.002705927   -0.000343752   -0.000184232
      2        8           0.000260960   -0.000117962   -0.000236373
      3        8          -0.000080645    0.000434825   -0.000041326
      4        8           0.000087082    0.000093530    0.000310686
      5        8          -0.002381731   -0.001442023   -0.000937243
      6       14          -0.000411347    0.000025152   -0.000121302
      7       14          -0.000046981    0.000170337   -0.000070376
      8       14          -0.000359601    0.000032176    0.000257813
      9       14          -0.000172028    0.003647693    0.002534606
     10        8          -0.000169773   -0.000380767   -0.000431799
     11        8          -0.000262553   -0.000848400   -0.000353195
     12        8          -0.000007344   -0.000912798   -0.000722306
     13        8           0.000135688    0.000005741   -0.000055596
     14        8           0.000132486   -0.000093198   -0.000031967
     15        8           0.000057702   -0.000007737   -0.000113803
     16        8           0.000089997   -0.000002977    0.000086641
     17        8           0.000127656   -0.000102935   -0.000008659
     18        8           0.000135490    0.000027069    0.000004291
     19        8           0.000042933   -0.000061498    0.000045947
     20        8           0.000013948   -0.000089478    0.000024150
     21        8           0.000043351   -0.000031080    0.000029560
     22        1          -0.000094087   -0.000146332   -0.000206488
     23        1           0.000100191    0.000015587    0.000015712
     24        1           0.000315132   -0.000023956    0.000224419
     25        1          -0.000084936   -0.000017224    0.000019277
     26        1          -0.000010200   -0.000013872    0.000056633
     27        1          -0.000022675    0.000005918   -0.000006945
     28        1          -0.000013121    0.000049827    0.000001569
     29        1          -0.000063177    0.000040039   -0.000002224
     30        1          -0.000001590    0.000014374   -0.000014018
     31        1          -0.000043171   -0.000010265   -0.000013270
     32        1          -0.000026044    0.000012326   -0.000045899
     33        1           0.000002463    0.000071660   -0.000014284
 -------------------------------------------------------------------
 Cartesian Forces:  Max     0.003647693 RMS     0.000633813

 GradGradGradGradGradGradGradGradGradGradGradGradGradGradGradGradGradGrad
 Berny optimization.
 FormGI is forming the generalized inverse of G from B-inverse, IUseBI=4.
 Internal  Forces:  Max     0.002602734 RMS     0.000398843
 Search for a local minimum.
 Step number   1 out of a maximum of  151
 All quantities printed in internal units (Hartrees-Bohrs-Radians)
 Mixed Optimization -- En-DIIS/RFO-DIIS
 Second derivative matrix not updated -- first step.
 ITU=  0
     Eigenvalues ---    0.00230   0.00230   0.00230   0.00230   0.00230
     Eigenvalues ---    0.03239   0.03482   0.03500   0.03541   0.03581
     Eigenvalues ---    0.03661   0.03665   0.03674   0.03688   0.03735
     Eigenvalues ---    0.03789   0.03802   0.03811   0.03828   0.03858
     Eigenvalues ---    0.05881   0.06727   0.07511   0.11097   0.11247
     Eigenvalues ---    0.11629   0.11979   0.12158   0.12205   0.12217
     Eigenvalues ---    0.12676   0.12970   0.13105   0.13190   0.13263
     Eigenvalues ---    0.16000   0.16000   0.16000   0.16000   0.16000
     Eigenvalues ---    0.16000   0.16000   0.16000   0.16000   0.16000
     Eigenvalues ---    0.16000   0.16000   0.19163   0.19184   0.19380
     Eigenvalues ---    0.19953   0.20200   0.20253   0.20377   0.20422
     Eigenvalues ---    0.20563   0.20992   0.21009   0.21136   0.21189
     Eigenvalues ---    0.21482   0.25000   0.25000   0.25000   0.37992
     Eigenvalues ---    0.40480   0.40678   0.41116   0.41558   0.42453
     Eigenvalues ---    0.42502   0.42607   0.42768   0.43316   0.43953
     Eigenvalues ---    0.44102   0.44216   0.44422   0.44766   0.44782
     Eigenvalues ---    0.50680   0.51458   0.52211   0.52570   0.54329
     Eigenvalues ---    0.54614   0.54649   0.54671   0.54697   0.54715
     Eigenvalues ---    0.54739   0.548931000.000001000.000001000.00000
     Eigenvalues --- 1000.000001000.000001000.000001000.000001000.00000
     Eigenvalues --- 1000.000001000.000001000.000001000.000001000.00000
     Eigenvalues --- 1000.000001000.000001000.000001000.000001000.00000
     Eigenvalues --- 1000.000001000.000001000.000001000.000001000.00000
     Eigenvalues --- 1000.000001000.000001000.000001000.000001000.00000
     Eigenvalues --- 1000.000001000.000001000.000001000.000001000.00000
     Eigenvalues --- 1000.000001000.000001000.000001000.000001000.00000
     Eigenvalues --- 1000.000001000.000001000.000001000.000001000.00000
     Eigenvalues --- 1000.000001000.000001000.000001000.000001000.00000
     Eigenvalues --- 1000.00000
 RFO step:  Lambda=-3.81688286D-04 EMin= 2.30000000D-03
 Linear search not attempted -- first point.
 Iteration  1 RMS(Cart)=  0.05548014 RMS(Int)=  0.02485113
 Iteration  2 RMS(Cart)=  0.10881211 RMS(Int)=  0.01981359
 Iteration  3 RMS(Cart)=  0.02427398 RMS(Int)=  0.01892006
 Iteration  4 RMS(Cart)=  0.06633935 RMS(Int)=  0.01813586
 Iteration  5 RMS(Cart)=  0.08430214 RMS(Int)=  0.01845744
 Iteration  6 RMS(Cart)=  0.00766564 RMS(Int)=  0.01819792
 Iteration  7 RMS(Cart)=  0.01295455 RMS(Int)=  0.01782525
 Iteration  8 RMS(Cart)=  0.03142023 RMS(Int)=  0.01733886
 Iteration  9 RMS(Cart)=  0.02903360 RMS(Int)=  0.01675617
 Iteration 10 RMS(Cart)=  0.02117670 RMS(Int)=  0.01685702
 Iteration 11 RMS(Cart)=  0.03151334 RMS(Int)=  0.01686585
 Iteration 12 RMS(Cart)=  0.03516797 RMS(Int)=  0.01698091
 Iteration 13 RMS(Cart)=  0.03060295 RMS(Int)=  0.01688201
 Iteration 14 RMS(Cart)=  0.04172104 RMS(Int)=  0.01717190
 Iteration 15 RMS(Cart)=  0.02708509 RMS(Int)=  0.01684965
 Iteration 16 RMS(Cart)=  0.02617987 RMS(Int)=  0.01690192
 Iteration 17 RMS(Cart)=  0.03213289 RMS(Int)=  0.01685548
 Iteration 18 RMS(Cart)=  0.03528217 RMS(Int)=  0.01701197
 Iteration 19 RMS(Cart)=  0.03205621 RMS(Int)=  0.01688763
 Iteration 20 RMS(Cart)=  0.04238498 RMS(Int)=  0.01722015
 Iteration 21 RMS(Cart)=  0.02913623 RMS(Int)=  0.01686053
 Iteration 22 RMS(Cart)=  0.02265652 RMS(Int)=  0.01683083
 Iteration 23 RMS(Cart)=  0.03144112 RMS(Int)=  0.01688482
 Iteration 24 RMS(Cart)=  0.03355100 RMS(Int)=  0.01692655
 Iteration 25 RMS(Cart)=  0.03325964 RMS(Int)=  0.01693955
 Iteration 26 RMS(Cart)=  0.04023663 RMS(Int)=  0.01708536
 Iteration 27 RMS(Cart)=  0.02890235 RMS(Int)=  0.01689631
 Iteration 28 RMS(Cart)=  0.02334804 RMS(Int)=  0.01682407
 Iteration 29 RMS(Cart)=  0.03135055 RMS(Int)=  0.01689066
 Iteration 30 RMS(Cart)=  0.03323947 RMS(Int)=  0.01691521
 Iteration 31 RMS(Cart)=  0.03403407 RMS(Int)=  0.01695951
 Iteration 32 RMS(Cart)=  0.03764637 RMS(Int)=  0.01701691
 Iteration 33 RMS(Cart)=  0.03277932 RMS(Int)=  0.01694433
 Iteration 34 RMS(Cart)=  0.05201509 RMS(Int)=  0.01743134
 Iteration 35 RMS(Cart)=  0.02256761 RMS(Int)=  0.01701832
 Iteration 36 RMS(Cart)=  0.03884738 RMS(Int)=  0.01707328
 Iteration 37 RMS(Cart)=  0.03772617 RMS(Int)=  0.01702096
 Iteration 38 RMS(Cart)=  0.04279726 RMS(Int)=  0.01717065
 Iteration 39 RMS(Cart)=  0.03209830 RMS(Int)=  0.01694531
 Iteration 40 RMS(Cart)=  0.02829438 RMS(Int)=  0.01689965
 Iteration 41 RMS(Cart)=  0.03215284 RMS(Int)=  0.01685746
 Iteration 42 RMS(Cart)=  0.03510769 RMS(Int)=  0.01700599
 Iteration 43 RMS(Cart)=  0.03227487 RMS(Int)=  0.01689227
 Iteration 44 RMS(Cart)=  0.04501721 RMS(Int)=  0.01728876
 Iteration 45 RMS(Cart)=  0.02841324 RMS(Int)=  0.01688818
 Iteration 46 RMS(Cart)=  0.03342330 RMS(Int)=  0.01698737
 Iteration 47 RMS(Cart)=  0.03013845 RMS(Int)=  0.01681508
 Iteration 48 RMS(Cart)=  0.02524648 RMS(Int)=  0.01688631
 Iteration 49 RMS(Cart)=  0.03141862 RMS(Int)=  0.01684612
 Iteration 50 RMS(Cart)=  0.03721107 RMS(Int)=  0.01705214
 Iteration 51 RMS(Cart)=  0.02854113 RMS(Int)=  0.01685258
 Iteration 52 RMS(Cart)=  0.01780987 RMS(Int)=  0.01678082
 Iteration 53 RMS(Cart)=  0.02904522 RMS(Int)=  0.01691347
 Iteration 54 RMS(Cart)=  0.03212464 RMS(Int)=  0.01686676
 Iteration 55 RMS(Cart)=  0.03690477 RMS(Int)=  0.01705128
 Iteration 56 RMS(Cart)=  0.03134195 RMS(Int)=  0.01688056
 Iteration 57 RMS(Cart)=  0.03191401 RMS(Int)=  0.01698840
 Iteration 58 RMS(Cart)=  0.03150449 RMS(Int)=  0.01682917
 Iteration 59 RMS(Cart)=  0.03406842 RMS(Int)=  0.01705020
 Iteration 60 RMS(Cart)=  0.03091851 RMS(Int)=  0.01682538
 Iteration 61 RMS(Cart)=  0.01990828 RMS(Int)=  0.01682576
 Iteration 62 RMS(Cart)=  0.03182224 RMS(Int)=  0.01690313
[...]
     1  Zr  14.747186  -0.105243  -0.031610  -0.056439  -0.196497  -0.582002
     2  O   -0.105243   9.094345   0.023218  -0.043301  -0.057835   0.084701
     3  O   -0.031610   0.023218   8.899275   0.015822  -0.056841   0.000170
     4  O   -0.056439  -0.043301   0.015822   8.837136  -0.048475  -0.760547
     5  O   -0.196497  -0.057835  -0.056841  -0.048475   9.530577  -0.013468
     6  Si  -0.582002   0.084701   0.000170  -0.760547  -0.013468  14.132551
     7  Si  -0.562032  -0.033374  -0.908415  -0.010882  -0.040212   0.077099
     8  Si  -0.532825  -1.061542  -0.011177   0.052544  -0.025285  -0.011524
     9  Si  -0.265607  -0.054843  -0.054677  -0.044709  -1.331179   0.023090
    10  O   -0.002407   0.001603  -0.000400   0.002257   0.145872  -0.001070
    11  O   -0.027656   0.003167   0.002347   0.000468   0.282601  -0.001734
    12  O    0.012372   0.000618   0.004612   0.002128   0.183453  -0.001946
    13  O   -0.043830   0.186752   0.001945  -0.015984   0.000076   0.042194
    14  O   -0.007818   0.280770  -0.014757  -0.006886   0.003974   0.022614
    15  O   -0.080096   0.295066  -0.000994   0.001380   0.000327  -0.002118
    16  O   -0.134034   0.004592  -0.000663   0.345074   0.002913  -0.411972
    17  O   -0.015214  -0.040907   0.009015   0.229596   0.001943  -0.513027
    18  O   -0.006772  -0.013929   0.003894   0.199435  -0.000085  -0.471120
    19  O   -0.001916   0.009117   0.260432   0.008975   0.002679  -0.003115
    20  O   -0.155097  -0.000498   0.178939  -0.000877   0.002369   0.008600
    21  O    0.029469   0.010467   0.145478   0.002980   0.000179  -0.007695
    22  H   -0.003341  -0.000015  -0.000028  -0.000009   0.006074   0.000026
    23  H   -0.009276  -0.000012  -0.000001  -0.000016  -0.024799   0.000027
    24  H   -0.004273  -0.000379  -0.000019   0.000001  -0.007640   0.000080
    25  H    0.018056  -0.020265  -0.000120  -0.000106  -0.000002   0.001035
    26  H    0.005680   0.000515   0.000017  -0.000014  -0.000004   0.000051
    27  H   -0.004468  -0.019292   0.000609  -0.001930  -0.000015   0.012162
    28  H    0.005802  -0.000011  -0.019011  -0.000013  -0.000017  -0.000265
    29  H    0.006128  -0.007173  -0.020790  -0.000157  -0.000103   0.000239
    30  H    0.001777  -0.000017   0.000126  -0.000452  -0.000012  -0.000930
    31  H   -0.001683   0.000201  -0.000017  -0.018641  -0.000007   0.064728
    32  H    0.001665  -0.000019   0.000041   0.010181   0.000006   0.023348
    33  H   -0.016466   0.000915  -0.010084  -0.008647  -0.000119   0.052059
               7          8          9         10         11         12
     1  Zr  -0.562032  -0.532825  -0.265607  -0.002407  -0.027656   0.012372
     2  O   -0.033374  -1.061542  -0.054843   0.001603   0.003167   0.000618
     3  O   -0.908415  -0.011177  -0.054677  -0.000400   0.002347   0.004612
     4  O   -0.010882   0.052544  -0.044709   0.002257   0.000468   0.002128
     5  O   -0.040212  -0.025285  -1.331179   0.145872   0.282601   0.183453
     6  Si   0.077099  -0.011524   0.023090  -0.001070  -0.001734  -0.001946
     7  Si  13.812540   0.177896   0.020353  -0.000755  -0.001126   0.002909
     8  Si   0.177896  13.884676   0.022321  -0.000666   0.000445  -0.000081
     9  Si   0.020353   0.022321  14.443278  -0.129624  -0.164053  -0.191064
    10  O   -0.000755  -0.000666  -0.129624   8.529839   0.042445   0.016485
    11  O   -0.001126   0.000445  -0.164053   0.042445   8.454566  -0.044784
    12  O    0.002909  -0.000081  -0.191064   0.016485  -0.044784   8.597927
    13  O    0.007685  -0.098745   0.000639  -0.000000   0.000034   0.000003
    14  O    0.002398  -0.402150  -0.002142  -0.000003  -0.000003   0.000004
    15  O   -0.003618  -0.307170  -0.001233  -0.000000  -0.000031  -0.000003
    16  O    0.004707  -0.009497  -0.000766  -0.000009   0.000005  -0.000003
    17  O   -0.009646   0.083234   0.001285  -0.000006  -0.000001  -0.000004
    18  O   -0.000915   0.070337   0.004328  -0.000009  -0.000004  -0.000002
    19  O   -0.405093  -0.013233   0.000936   0.000003  -0.000004  -0.000009
    20  O   -0.122220   0.009339   0.002405  -0.000001  -0.000002  -0.000012
    21  O    0.026135  -0.035204  -0.001338   0.000001  -0.000001   0.000004
    22  H   -0.000129   0.000034   0.041019  -0.007119  -0.005242   0.221608
    23  H    0.000062   0.000096   0.084532   0.228215  -0.007452   0.005978
    24  H    0.000068  -0.000211   0.035215   0.006974   0.248238  -0.007947
    25  H   -0.000506   0.058121  -0.000265  -0.000000  -0.000000  -0.000000
    26  H   -0.000318   0.047245  -0.000020   0.000000   0.000000  -0.000000
    27  H    0.002476   0.072368   0.000074   0.000000  -0.000000  -0.000000
    28  H    0.057093  -0.000109  -0.000097  -0.000000  -0.000000  -0.000001
    29  H    0.047489   0.021036  -0.000018   0.000000   0.000000  -0.000000
    30  H    0.039561  -0.000049   0.000020   0.000000  -0.000000   0.000000
    31  H    0.000171  -0.001575  -0.000052   0.000000   0.000000   0.000000
    32  H   -0.000557   0.000058   0.000065  -0.000000   0.000000   0.000000
    33  H    0.020684   0.000254   0.000076  -0.000000   0.000000   0.000000
              13         14         15         16         17         18
     1  Zr  -0.043830  -0.007818  -0.080096  -0.134034  -0.015214  -0.006772
     2  O    0.186752   0.280770   0.295066   0.004592  -0.040907  -0.013929
     3  O    0.001945  -0.014757  -0.000994  -0.000663   0.009015   0.003894
     4  O   -0.015984  -0.006886   0.001380   0.345074   0.229596   0.199435
     5  O    0.000076   0.003974   0.000327   0.002913   0.001943  -0.000085
     6  Si   0.042194   0.022614  -0.002118  -0.411972  -0.513027  -0.471120
     7  Si   0.007685   0.002398  -0.003618   0.004707  -0.009646  -0.000915
     8  Si  -0.098745  -0.402150  -0.307170  -0.009497   0.083234   0.070337
     9  Si   0.000639  -0.002142  -0.001233  -0.000766   0.001285   0.004328
    10  O   -0.000000  -0.000003  -0.000000  -0.000009  -0.000006  -0.000009
    11  O    0.000034  -0.000003  -0.000031   0.000005  -0.000001  -0.000004
    12  O    0.000003   0.000004  -0.000003  -0.000003  -0.000004  -0.000002
    13  O    8.628149   0.089198  -0.089975   0.003780  -0.030635  -0.045459
    14  O    0.089198   8.687762   0.056047   0.003789  -0.036119  -0.026258
    15  O   -0.089975   0.056047   8.778935  -0.000181   0.003470   0.001763
    16  O    0.003780   0.003789  -0.000181   8.897911  -0.090686  -0.114031
    17  O   -0.030635  -0.036119   0.003470  -0.090686   8.938455   0.229762
    18  O   -0.045459  -0.026258   0.001763  -0.114031   0.229762   9.015953
    19  O    0.000152   0.000017   0.000151  -0.001548  -0.030862   0.000129
    20  O    0.000008   0.000109   0.000042   0.000066  -0.000802   0.000010
    21  O   -0.000267   0.015092  -0.000545  -0.000216  -0.005222   0.000479
    22  H    0.000000   0.000000  -0.000000   0.000000   0.000000  -0.000000
    23  H    0.000000   0.000000  -0.000000  -0.000000   0.000000  -0.000000
    24  H   -0.000001   0.000000   0.000004   0.000000  -0.000000  -0.000000
    25  H    0.218458  -0.012233   0.008830  -0.000049   0.000669   0.015222
    26  H   -0.004938  -0.010017   0.217144   0.000000  -0.000002   0.000008
    27  H   -0.009818   0.219418   0.004690   0.000171   0.018713  -0.000308
    28  H   -0.000000  -0.000004  -0.000001  -0.000000   0.000004  -0.000000
    29  H    0.000789   0.017436  -0.002550  -0.000004  -0.000429   0.000004
    30  H    0.000001  -0.000034   0.000000   0.000118  -0.000526  -0.000006
    31  H    0.002392   0.000163  -0.000018   0.003962  -0.000960   0.218265
    32  H   -0.000007  -0.000006   0.000000   0.233492  -0.003670   0.003890
    33  H    0.000196   0.001991  -0.000031   0.000089   0.232212   0.002060
              19         20         21         22         23         24
     1  Zr  -0.001916  -0.155097   0.029469  -0.003341  -0.009276  -0.004273
     2  O    0.009117  -0.000498   0.010467  -0.000015  -0.000012  -0.000379
     3  O    0.260432   0.178939   0.145478  -0.000028  -0.000001  -0.000019
     4  O    0.008975  -0.000877   0.002980  -0.000009  -0.000016   0.000001
     5  O    0.002679   0.002369   0.000179   0.006074  -0.024799  -0.007640
     6  Si  -0.003115   0.008600  -0.007695   0.000026   0.000027   0.000080
     7  Si  -0.405093  -0.122220   0.026135  -0.000129   0.000062   0.000068
     8  Si  -0.013233   0.009339  -0.035204   0.000034   0.000096  -0.000211
     9  Si   0.000936   0.002405  -0.001338   0.041019   0.084532   0.035215
    10  O    0.000003  -0.000001   0.000001  -0.007119   0.228215   0.006974
    11  O   -0.000004  -0.000002  -0.000001  -0.005242  -0.007452   0.248238
    12  O   -0.000009  -0.000012   0.000004   0.221608   0.005978  -0.007947
    13  O    0.000152   0.000008  -0.000267   0.000000   0.000000  -0.000001
    14  O    0.000017   0.000109   0.015092   0.000000   0.000000   0.000000
    15  O    0.000151   0.000042  -0.000545  -0.000000  -0.000000   0.000004
    16  O   -0.001548   0.000066  -0.000216   0.000000  -0.000000   0.000000
    17  O   -0.030862  -0.000802  -0.005222   0.000000   0.000000  -0.000000
    18  O    0.000129   0.000010   0.000479  -0.000000  -0.000000  -0.000000
    19  O    8.868203   0.034166   0.021290   0.000000   0.000000  -0.000000
    20  O    0.034166   8.664185  -0.050048   0.000000  -0.000000  -0.000000
    21  O    0.021290  -0.050048   8.480473   0.000000   0.000000   0.000000
    22  H    0.000000   0.000000   0.000000   0.364583   0.000070   0.000133
    23  H    0.000000  -0.000000   0.000000   0.000070   0.350215   0.000010
    24  H   -0.000000  -0.000000   0.000000   0.000133   0.000010   0.363532
    25  H   -0.000025   0.000000  -0.000022   0.000000   0.000000   0.000000
    26  H    0.000001  -0.000000   0.000044  -0.000000  -0.000000  -0.000000
    27  H    0.000135   0.000182  -0.003875  -0.000000  -0.000000   0.000000
    28  H    0.004468   0.229578  -0.002108  -0.000000   0.000000   0.000000
    29  H   -0.008631   0.007640   0.206748   0.000000   0.000000  -0.000000
    30  H    0.224094  -0.001436  -0.007038   0.000000   0.000000  -0.000000
    31  H    0.000005  -0.000000  -0.000000  -0.000000  -0.000000   0.000000
    32  H    0.000109  -0.000000   0.000001  -0.000000   0.000000  -0.000000
    33  H    0.015079  -0.000117   0.001514  -0.000000  -0.000000  -0.000000
              25         26         27         28         29         30
     1  Zr   0.018056   0.005680  -0.004468   0.005802   0.006128   0.001777
     2  O   -0.020265   0.000515  -0.019292  -0.000011  -0.007173  -0.000017
     3  O   -0.000120   0.000017   0.000609  -0.019011  -0.020790   0.000126
     4  O   -0.000106  -0.000014  -0.001930  -0.000013  -0.000157  -0.000452
     5  O   -0.000002  -0.000004  -0.000015  -0.000017  -0.000103  -0.000012
     6  Si   0.001035   0.000051   0.012162  -0.000265   0.000239  -0.000930
     7  Si  -0.000506  -0.000318   0.002476   0.057093   0.047489   0.039561
     8  Si   0.058121   0.047245   0.072368  -0.000109   0.021036  -0.000049
     9  Si  -0.000265  -0.000020   0.000074  -0.000097  -0.000018   0.000020
    10  O   -0.000000   0.000000   0.000000  -0.000000   0.000000   0.000000
    11  O   -0.000000   0.000000  -0.000000  -0.000000   0.000000  -0.000000
    12  O   -0.000000  -0.000000  -0.000000  -0.000001  -0.000000   0.000000
    13  O    0.218458  -0.004938  -0.009818  -0.000000   0.000789   0.000001
    14  O   -0.012233  -0.010017   0.219418  -0.000004   0.017436  -0.000034
    15  O    0.008830   0.217144   0.004690  -0.000001  -0.002550   0.000000
    16  O   -0.000049   0.000000   0.000171  -0.000000  -0.000004   0.000118
    17  O    0.000669  -0.000002   0.018713   0.000004  -0.000429  -0.000526
    18  O    0.015222   0.000008  -0.000308  -0.000000   0.000004  -0.000006
    19  O   -0.000025   0.000001   0.000135   0.004468  -0.008631   0.224094
    20  O    0.000000  -0.000000   0.000182   0.229578   0.007640  -0.001436
    21  O   -0.000022   0.000044  -0.003875  -0.002108   0.206748  -0.007038
    22  H    0.000000  -0.000000  -0.000000  -0.000000   0.000000   0.000000
    23  H    0.000000  -0.000000  -0.000000   0.000000   0.000000   0.000000
    24  H    0.000000  -0.000000   0.000000   0.000000  -0.000000  -0.000000
    25  H    0.298508  -0.000014   0.000142   0.000000   0.000001   0.000000
    26  H   -0.000014   0.365489   0.000034   0.000000   0.000022  -0.000000
    27  H    0.000142   0.000034   0.282701  -0.000000  -0.001468   0.000012
    28  H    0.000000   0.000000  -0.000000   0.348845  -0.000016  -0.000016
    29  H    0.000001   0.000022  -0.001468  -0.000016   0.286388   0.000155
    30  H    0.000000  -0.000000   0.000012  -0.000016   0.000155   0.333909
    31  H   -0.000508   0.000000   0.000014  -0.000000   0.000000  -0.000000
    32  H   -0.000001   0.000000  -0.000000   0.000000  -0.000000  -0.000000
    33  H    0.000008  -0.000000  -0.002513  -0.000002   0.000091  -0.001113
              31         32         33
     1  Zr  -0.001683   0.001665  -0.016466
     2  O    0.000201  -0.000019   0.000915
     3  O   -0.000017   0.000041  -0.010084
     4  O   -0.018641   0.010181  -0.008647
     5  O   -0.000007   0.000006  -0.000119
     6  Si   0.064728   0.023348   0.052059
     7  Si   0.000171  -0.000557   0.020684
     8  Si  -0.001575   0.000058   0.000254
     9  Si  -0.000052   0.000065   0.000076
    10  O    0.000000  -0.000000  -0.000000
    11  O    0.000000   0.000000   0.000000
    12  O    0.000000   0.000000   0.000000
    13  O    0.002392  -0.000007   0.000196
    14  O    0.000163  -0.000006   0.001991
    15  O   -0.000018   0.000000  -0.000031
    16  O    0.003962   0.233492   0.000089
    17  O   -0.000960  -0.003670   0.232212
    18  O    0.218265   0.003890   0.002060
    19  O    0.000005   0.000109   0.015079
    20  O   -0.000000  -0.000000  -0.000117
    21  O   -0.000000   0.000001   0.001514
    22  H   -0.000000  -0.000000  -0.000000
    23  H   -0.000000   0.000000  -0.000000
    24  H    0.000000  -0.000000  -0.000000
    25  H   -0.000508  -0.000001   0.000008
    26  H    0.000000   0.000000  -0.000000
    27  H    0.000014  -0.000000  -0.002513
    28  H   -0.000000   0.000000  -0.000002
    29  H    0.000000  -0.000000   0.000091
    30  H   -0.000000  -0.000000  -0.001113
    31  H    0.331141   0.000001  -0.000038
    32  H    0.000001   0.349469   0.000154
    33  H   -0.000038   0.000154   0.268646
 Mulliken charges:
               1
     1  Zr   0.018470
     2  O   -0.537390
     3  O   -0.416335
     4  O   -0.689890
     5  O   -0.360450
     6  Si   2.237758
     7  Si   1.800473
     8  Si   2.011038
     9  Si   1.562051
    10  O   -0.831623
    11  O   -0.782222
    12  O   -0.802245
    13  O   -0.842788
    14  O   -0.882351
    15  O   -0.879283
    16  O   -0.737010
    17  O   -0.969639
    18  O   -1.086640
    19  O   -0.985706
    20  O   -0.806529
    21  O   -0.826775
    22  H    0.382337
    23  H    0.372351
    24  H    0.366215
    25  H    0.415067
    26  H    0.379076
    27  H    0.429787
    28  H    0.375882
    29  H    0.447172
    30  H    0.411855
    31  H    0.402458
    32  H    0.381782
    33  H    0.443101
 Sum of Mulliken charges =  -0.00000
 Mulliken charges with hydrogens summed into heavy atoms:
               1
     1  Zr   0.018470
     2  O   -0.537390
     3  O   -0.416335
     4  O   -0.689890
     5  O   -0.360450
     6  Si   2.237758
     7  Si   1.800473
     8  Si   2.011038
     9  Si   1.562051
    10  O   -0.459271
    11  O   -0.416006
    12  O   -0.419908
    13  O   -0.427721
    14  O   -0.452564
    15  O   -0.500207
    16  O   -0.355228
    17  O   -0.526538
    18  O   -0.684182
    19  O   -0.573851
    20  O   -0.430647
    21  O   -0.379602
 Electronic spatial extent (au):  <R**2>=           9920.8240
 Charge=             -0.0000 electrons
 Dipole moment (field-independent basis, Debye):
    X=              0.9516    Y=             -0.7819    Z=             -2.2117  Tot=              2.5315
 Quadrupole moment (field-independent basis, Debye-Ang):
   XX=           -159.4734   YY=           -156.2539   ZZ=           -157.9567
   XY=             -6.0898   XZ=              2.2187   YZ=              5.6901
 Traceless Quadrupole moment (field-independent basis, Debye-Ang):
   XX=             -1.5787   YY=              1.6408   ZZ=             -0.0620
   XY=             -6.0898   XZ=              2.2187   YZ=              5.6901
 Octapole moment (field-independent basis, Debye-Ang**2):
  XXX=             75.5654  YYY=              5.3361  ZZZ=            -10.3280  XYY=             -2.5057
  XXY=             24.7056  XXZ=             16.7986  XZZ=              1.6053  YZZ=            -14.7051
  YYZ=            -17.6575  XYZ=             30.7839
 Hexadecapole moment (field-independent basis, Debye-Ang**3):
 XXXX=          -5922.5548 YYYY=          -2879.9620 ZZZZ=          -2271.3561 XXXY=             62.1403
 XXXZ=             10.0676 YYYX=            -32.8702 YYYZ=            255.4657 ZZZX=           -139.6774
 ZZZY=            -81.0042 XXYY=          -1498.1804 XXZZ=          -1400.2964 YYZZ=           -932.2481
 XXYZ=            -40.6470 YYXZ=             53.0357 ZZXY=            -52.9034
 N-N= 2.829303705002D+03 E-N=-1.137112767761D+04  KE= 2.373154859040D+03
 1\1\GINC-GRA1231\FOpt\RB3LYP\Gen\H12O16Si4Zr1\SARASHS\02-Aug-2020\0\\#
 n B3LYP/Gen Pseudo=cards EmpiricalDispersion=GD3 Opt=modredundant\\Tit
 le\\0,1\Zr,0.6833957611,-0.1955905231,-0.182036865\O,-0.1223464976,-1.
 0005678451,1.3953239548\O,0.2015438561,1.6985914539,-0.1312066646\O,-0
 .3706410878,-0.962196578,-1.6695155315\O,2.5985425697,-0.5689806322,-0
 .3173181653\Si,-1.9655562356,-1.2421141766,-1.9397634707\Si,-0.9665946
 238,2.8367872733,0.0185020003\Si,-1.5908803375,-1.209107815,2.11726024
 08\Si,4.2106783721,-0.8252664149,-0.4263041735\O,4.7346544431,-1.08973
 03269,-1.9697496131\O,4.6309000646,-2.1937231849,0.4105737019\O,4.9104
 386802,0.5564350952,0.1389420925\O,-2.2711277538,-2.6406568695,1.69101
 06316\O,-2.5717360096,0.0660315266,1.6544876579\O,-1.3588823086,-1.135
 6182948,3.7387197379\O,-2.2439736552,-1.4068189392,-3.556379616\O,-2.8
 693257371,-0.0812652779,-1.1906181444\O,-2.4861443513,-2.6285472476,-1
 .1820361216\O,-1.9884487602,2.51552186,-1.2798138752\O,-0.43881148,4.3
 825320416,-0.1801296702\O,-1.7313671319,2.7430946876,1.4631281673\H,5.
 8507919497,0.6688221534,-0.0388173878\H,4.8221135061,-2.0136508542,-2.
 2302333877\H,4.2630697087,-2.3060279603,1.2942202048\H,-2.4267422782,-
 2.7895406038,0.7410227212\H,-2.1169277523,-1.3271513651,4.3014922182\H
 ,-2.9702346139,-0.0371550874,0.7687266217\H,-0.266691286,4.880123996,0
 .6273619009\H,-2.0507465293,1.854610481,1.7257097017\H,-2.5839419423,3
 .2360617107,-1.5209537248\H,-2.5179235987,-3.4253306364,-1.7235028452\
 H,-1.5370270165,-1.1220952247,-4.1461768728\H,-2.6285079241,0.85714357
 82,-1.3618154242\\Version=ES64L-G16RevB.01\State=1-A\HF=-2416.9467452\
 RMSD=2.206e-09\RMSF=7.708e-05\Dipole=0.2527972,-0.3229658,-0.9076117\Q
 uadrupole=-2.0674769,2.1439945,-0.0765176,-3.7398409,2.272868,4.354376
 6\PG=C01 [X(H12O16Si4Zr1)]\\@


 SATCHEL PAIGE'S GUIDE TO LONGEVITY

    1.  AVOID FRIED MEATS, WHICH ANGRY UP THE BLOOD.

    2.  IF YOUR STOMACH DISPUTES YOU, LIE DOWN AND PACIFY IT WITH COOL
        THOUGHTS.

    3.  KEEP THE JUICES FLOWING BY JANGLING AROUND GENTLY AS YOU MOVE.

    4.  GO VERY LIGHT ON THE VICES, SUCH AS CARRYING ON IN SOCIETY.
        THE SOCIAL RUMBLE AIN'T RESTFUL.

    5.  AVOID RUNNING AT ALL TIMES.

    6.  DON'T LOOK BACK.  SOMETHING MAY BE GAINING ON YOU.
 Job cpu time:       2 days  7 hours  6 minutes 38.1 seconds.
 Elapsed time:       0 days  4 hours  6 minutes 43.2 seconds.
 File lengths (MBytes):  RWF=    167 Int=      0 D2E=      0 Chk=     21 Scr=      1
 Normal termination of Gaussian 16 at Sun Aug  2 11:13:53 2020.
