 Entering Gaussian System, Link 0=g16
 Initial command:
 /opt/software/gaussian/g16.b01/l1.exe "/localscratch/sarashs.37192501.0/Gau-26874.inp" -scrdir="/localscratch/sarashs.37192501.0/"
 Entering Link 1 = /opt/software/gaussian/g16.b01/l1.exe PID=     26875.
  
 Copyright (c) 1988-2017, Gaussian, Inc.  All Rights Reserved.
  
 This is part of the Gaussian(R) 16 program.  It is based on
 the Gaussian(R) 09 system (copyright 2009, Gaussian, Inc.),
 the Gaussian(R) 03 system (copyright 2003, Gaussian, Inc.),
 the Gaussian(R) 98 system (copyright 1998, Gaussian, Inc.),
 the Gaussian(R) 94 system (copyright 1995, Gaussian, Inc.),
 the Gaussian 92(TM) system (copyright 1992, Gaussian, Inc.),
 the Gaussian 90(TM) system (copyright 1990, Gaussian, Inc.),
 the Gaussian 88(TM) system (copyright 1988, Gaussian, Inc.),
 the Gaussian 86(TM) system (copyright 1986, Carnegie Mellon
 University), and the Gaussian 82(TM) system (copyright 1983,
 Carnegie Mellon University). Gaussian is a federally registered
 trademark of Gaussian, Inc.
  
 This software contains proprietary and confidential information,
 including trade secrets, belonging to Gaussian, Inc.
  
 This software is provided under written license and may be
 used, copied, transmitted, or stored only in accord with that
 written license.
  
 The following legend is applicable only to US Government
 contracts under FAR:
  
                    RESTRICTED RIGHTS LEGEND
  
 Use, reproduction and disclosure by the US Government is
 subject to restrictions as set forth in subparagraphs (a)
 and (c) of the Commercial Computer Software - Restricted
 Rights clause in FAR 52.227-19.
  
 Gaussian, Inc.
 340 Quinnipiac St., Bldg. 40, Wallingford CT 06492
  
  
 ---------------------------------------------------------------
 Warning -- This program may not be used in any manner that
 competes with the business of Gaussian, Inc. or will provide
 assistance to any competitor of Gaussian, Inc.  The licensee
 of this program is prohibited from giving any competitor of
 Gaussian, Inc. access to this program.  By using this program,
 the user acknowledges that Gaussian, Inc. is engaged in the
 business of creating and licensing software in the field of
 computational chemistry and represents and warrants to the
 licensee that it is not a competitor of Gaussian, Inc. and that
 it will not use this program in any manner prohibited above.
 ---------------------------------------------------------------
  

 Cite this work as:
 Gaussian 16, Revision B.01,
 M. J. Frisch, G. W. Trucks, H. B. Schlegel, G. E. Scuseria, 
 M. A. Robb, J. R. Cheeseman, G. Scalmani, V. Barone, 
 G. A. Petersson, H. Nakatsuji, X. Li, M. Caricato, A. V. Marenich, 
 J. Bloino, B. G. Janesko, R. Gomperts, B. Mennucci, H. P. Hratchian, 
 J. V. Ortiz, A. F. Izmaylov, J. L. Sonnenberg, D. Williams-Young, 
 F. Ding, F. Lipparini, F. Egidi, J. Goings, B. Peng, A. Petrone, 
 T. Henderson, D. Ranasinghe, V. G. Zakrzewski, J. Gao, N. Rega, 
 G. Zheng, W. Liang, M. Hada, M. Ehara, K. Toyota, R. Fukuda, 
 J. Hasegawa, M. Ishida, T. Nakajima, Y. Honda, O. Kitao, H. Nakai, 
 T. Vreven, K. Throssell, J. A. Montgomery, Jr., J. E. Peralta, 
 F. Ogliaro, M. J. Bearpark, J. J. Heyd, E. N. Brothers, K. N. Kudin, 
 V. N. Staroverov, T. A. Keith, R. Kobayashi, J. Normand, 
 K. Raghavachari, A. P. Rendell, J. C. Burant, S. S. Iyengar, 
 J. Tomasi, M. Cossi, J. M. Millam, M. Klene, C. Adamo, R. Cammi, 
 J. W. Ochterski, R. L. Martin, K. Morokuma, O. Farkas, 
 J. B. Foresman, and D. J. Fox, Gaussian, Inc., Wallingford CT, 2016.
 
 ******************************************
 Gaussian 16:  ES64L-G16RevB.01 20-Dec-2017
                12-Aug-2020 
 ******************************************
 %NProcShared=16
 Will use up to   16 processors via shared memory.
 ------------------------------------------------------------------
 #n B3LYP/Gen Pseudo=cards EmpiricalDispersion=GD3 Opt=modredundant
 ------------------------------------------------------------------
 1/18=120,19=15,26=3,38=1/1,3;
 2/9=110,12=2,17=6,18=5,40=1/2;
 3/5=7,11=2,16=1,17=8,25=1,30=1,71=1,74=-5,124=31/1,2,3;
 4//1;
 5/5=2,38=5/2;
 6/7=2,8=2,9=2,10=2,28=1/1;
 7//1,2,3,16;
 1/18=20,19=15,26=3/3(2);
 2/9=110/2;
 99//99;
 2/9=110/2;
 3/5=7,6=1,11=2,16=1,17=8,25=1,30=1,71=1,74=-5,82=7,124=31/1,2,3;
 4/5=5,16=3,69=1/1;
 5/5=2,38=5/2;
 7//1,2,3,16;
 1/18=20,19=15,26=3/3(-5);
 2/9=110/2;
 6/7=2,8=2,9=2,10=2,19=2,28=1/1;
 99/9=1/99;
 -----
 Title
 -----
 Symbolic Z-matrix:
 Charge =  0 Multiplicity = 1
 Zr                    0.65779  -0.12506  -0.07164 
 O                    -0.22285  -0.90624   1.4773 
 O                     0.10302   1.74748  -0.12299 
 O                    -0.2683   -0.97885  -1.59705 
 O                     2.59206  -0.4363   -0.08284 
 Si                   -1.83119  -1.33244  -1.9536 
 Si                   -1.1155    2.84172  -0.08279 
 Si                   -1.72376  -1.15291   2.11517 
 Si                    4.21862  -0.28108   0.00779 
 O                     4.95557  -0.12824  -1.4616 
 O                     4.88649  -1.63566   0.69048 
 O                     4.4697    1.10609   0.86497 
 O                    -2.31924  -2.624     1.69627 
 O                    -2.72422   0.06508   1.55086 
 O                    -1.59734  -1.01957   3.74439 
 O                    -2.00144  -1.55965  -3.57782 
 O                    -2.82509  -0.18676  -1.30145 
 O                    -2.34448  -2.71439  -1.18277 
 O                    -2.04046   2.43957  -1.43023 
 O                    -0.63565   4.40049  -0.29987 
 O                    -1.96551   2.76086   1.31383 
 H                     5.36145   1.47087   0.85129 
 H                     5.29296  -0.94369  -1.84931 
 H                     4.4492   -2.00151   1.46739 
 H                    -2.40577  -2.80951   0.74392 
 H                    -2.38137  -1.22423   4.26535 
 H                    -3.06034  -0.08306   0.64589 
 H                    -0.52731   4.92728   0.50015 
 H                    -2.26909   1.86932   1.58533 
 H                    -2.64854   3.12676  -1.73014 
 H                    -2.30452  -3.52952  -1.69562 
 H                    -1.27114  -1.26305  -4.13223 
 H                    -2.61026   0.75461  -1.48993 
 
 The following ModRedundant input section has been read:
 A       1       5       9 F                                                   
 D       1       5       9      12 F                                           
 D       3       1       5       9 F                                           
 

 GradGradGradGradGradGradGradGradGradGradGradGradGradGradGradGradGradGrad
 Berny optimization.
 Initialization pass.
                           ----------------------------
                           !    Initial Parameters    !
                           ! (Angstroms and Degrees)  !
 --------------------------                            --------------------------
 ! Name  Definition              Value          Derivative Info.                !
 --------------------------------------------------------------------------------
 ! R1    R(1,2)                  1.9455         estimate D2E/DX2                !
 ! R2    R(1,3)                  1.9537         estimate D2E/DX2                !
 ! R3    R(1,4)                  1.9783         estimate D2E/DX2                !
 ! R4    R(1,5)                  1.9592         estimate D2E/DX2                !
 ! R5    R(2,8)                  1.6494         estimate D2E/DX2                !
 ! R6    R(3,7)                  1.6382         estimate D2E/DX2                !
 ! R7    R(4,6)                  1.6416         estimate D2E/DX2                !
 ! R8    R(5,9)                  1.6365         estimate D2E/DX2                !
 ! R9    R(6,16)                 1.6488         estimate D2E/DX2                !
 ! R10   R(6,17)                 1.651          estimate D2E/DX2                !
 ! R11   R(6,18)                 1.6636         estimate D2E/DX2                !
 ! R12   R(7,19)                 1.6831         estimate D2E/DX2                !
 ! R13   R(7,20)                 1.6453         estimate D2E/DX2                !
 ! R14   R(7,21)                 1.6369         estimate D2E/DX2                !
 ! R15   R(8,13)                 1.6414         estimate D2E/DX2                !
 ! R16   R(8,14)                 1.6742         estimate D2E/DX2                !
 ! R17   R(8,15)                 1.6395         estimate D2E/DX2                !
 ! R18   R(9,10)                 1.6509         estimate D2E/DX2                !
 ! R19   R(9,11)                 1.6574         estimate D2E/DX2                !
 ! R20   R(9,12)                 1.6499         estimate D2E/DX2                !
 ! R21   R(10,23)                0.9639         estimate D2E/DX2                !
 ! R22   R(11,24)                0.9637         estimate D2E/DX2                !
 ! R23   R(12,22)                0.9636         estimate D2E/DX2                !
 ! R24   R(13,25)                0.9741         estimate D2E/DX2                !
 ! R25   R(14,27)                0.9767         estimate D2E/DX2                !
 ! R26   R(15,26)                0.9633         estimate D2E/DX2                !
 ! R27   R(16,32)                0.9637         estimate D2E/DX2                !
 ! R28   R(17,33)                0.9838         estimate D2E/DX2                !
 ! R29   R(18,31)                0.9639         estimate D2E/DX2                !
 ! R30   R(19,30)                0.9654         estimate D2E/DX2                !
 ! R31   R(20,28)                0.964          estimate D2E/DX2                !
 ! R32   R(21,29)                0.9802         estimate D2E/DX2                !
 ! A1    A(2,1,3)              106.0959         estimate D2E/DX2                !
 ! A2    A(2,1,4)              103.2214         estimate D2E/DX2                !
 ! A3    A(2,1,5)              112.8091         estimate D2E/DX2                !
 ! A4    A(3,1,4)              105.0977         estimate D2E/DX2                !
 ! A5    A(3,1,5)              115.6243         estimate D2E/DX2                !
 ! A6    A(4,1,5)              112.9055         estimate D2E/DX2                !
 ! A7    A(1,2,8)              141.2479         estimate D2E/DX2                !
 ! A8    A(1,3,7)              148.2962         estimate D2E/DX2                !
 ! A9    A(1,4,6)              134.9216         estimate D2E/DX2                !
 ! A10   A(1,5,9)              165.0001         Frozen                          !
 ! A11   A(4,6,16)             109.9952         estimate D2E/DX2                !
 ! A12   A(4,6,17)             109.7479         estimate D2E/DX2                !
 ! A13   A(4,6,18)             111.8422         estimate D2E/DX2                !
 ! A14   A(16,6,17)            114.9972         estimate D2E/DX2                !
 ! A15   A(16,6,18)            108.0658         estimate D2E/DX2                !
 ! A16   A(17,6,18)            101.9869         estimate D2E/DX2                !
 ! A17   A(3,7,19)             103.269          estimate D2E/DX2                !
 ! A18   A(3,7,20)             114.3706         estimate D2E/DX2                !
 ! A19   A(3,7,21)             111.9733         estimate D2E/DX2                !
 ! A20   A(19,7,20)            106.3205         estimate D2E/DX2                !
 ! A21   A(19,7,21)            112.6973         estimate D2E/DX2                !
 ! A22   A(20,7,21)            108.1076         estimate D2E/DX2                !
 ! A23   A(2,8,13)             111.4365         estimate D2E/DX2                !
 ! A24   A(2,8,14)             107.7362         estimate D2E/DX2                !
 ! A25   A(2,8,15)             107.5759         estimate D2E/DX2                !
 ! A26   A(13,8,14)            110.4391         estimate D2E/DX2                !
 ! A27   A(13,8,15)            110.7606         estimate D2E/DX2                !
 ! A28   A(14,8,15)            108.7751         estimate D2E/DX2                !
 ! A29   A(5,9,10)             113.7767         estimate D2E/DX2                !
 ! A30   A(5,9,11)             110.2315         estimate D2E/DX2                !
 ! A31   A(5,9,12)             105.0573         estimate D2E/DX2                !
 ! A32   A(10,9,11)            105.2123         estimate D2E/DX2                !
 ! A33   A(10,9,12)            108.4603         estimate D2E/DX2                !
 ! A34   A(11,9,12)            114.3201         estimate D2E/DX2                !
 ! A35   A(9,10,23)            115.8442         estimate D2E/DX2                !
 ! A36   A(9,11,24)            117.3548         estimate D2E/DX2                !
 ! A37   A(9,12,22)            116.8565         estimate D2E/DX2                !
 ! A38   A(8,13,25)            116.8991         estimate D2E/DX2                !
 ! A39   A(8,14,27)            114.056          estimate D2E/DX2                !
 ! A40   A(8,15,26)            117.2166         estimate D2E/DX2                !
 ! A41   A(6,16,32)            116.4907         estimate D2E/DX2                !
 ! A42   A(6,17,33)            117.1859         estimate D2E/DX2                !
 ! A43   A(6,18,31)            116.3076         estimate D2E/DX2                !
 ! A44   A(7,19,30)            115.1373         estimate D2E/DX2                !
 ! A45   A(7,20,28)            116.1676         estimate D2E/DX2                !
 ! A46   A(7,21,29)            116.2372         estimate D2E/DX2                !
 ! D1    D(3,1,2,8)             57.7292         estimate D2E/DX2                !
 ! D2    D(4,1,2,8)            -52.5301         estimate D2E/DX2                !
 ! D3    D(5,1,2,8)           -174.7067         estimate D2E/DX2                !
 ! D4    D(2,1,3,7)            -50.098          estimate D2E/DX2                !
 ! D5    D(4,1,3,7)             58.8315         estimate D2E/DX2                !
 ! D6    D(5,1,3,7)           -175.9641         estimate D2E/DX2                !
 ! D7    D(2,1,4,6)             42.7683         estimate D2E/DX2                !
 ! D8    D(3,1,4,6)            -68.2312         estimate D2E/DX2                !
 ! D9    D(5,1,4,6)            164.8802         estimate D2E/DX2                !
 ! D10   D(3,1,5,9)             15.438          Frozen                          !
 ! D11   D(2,1,9,10)           159.5106         estimate D2E/DX2                !
 ! D12   D(2,1,9,11)            35.6984         estimate D2E/DX2                !
 ! D13   D(2,1,9,12)           -86.1845         estimate D2E/DX2                !
 ! D14   D(3,1,9,10)           -81.7488         estimate D2E/DX2                !
 ! D15   D(3,1,9,11)           154.4389         estimate D2E/DX2                !
 ! D16   D(3,1,9,12)            32.5561         estimate D2E/DX2                !
 ! D17   D(4,1,9,10)            37.7913         estimate D2E/DX2                !
 ! D18   D(4,1,9,11)           -86.0209         estimate D2E/DX2                !
 ! D19   D(4,1,9,12)           152.0962         estimate D2E/DX2                !
 ! D20   D(1,2,8,13)            93.5308         estimate D2E/DX2                !
 ! D21   D(1,2,8,14)           -27.7655         estimate D2E/DX2                !
 ! D22   D(1,2,8,15)          -144.8802         estimate D2E/DX2                !
 ! D23   D(1,3,7,19)           -61.1012         estimate D2E/DX2                !
 ! D24   D(1,3,7,20)          -176.1751         estimate D2E/DX2                !
 ! D25   D(1,3,7,21)            60.409          estimate D2E/DX2                !
 ! D26   D(1,4,6,16)           160.167          estimate D2E/DX2                !
 ! D27   D(1,4,6,17)            32.6925         estimate D2E/DX2                !
 ! D28   D(1,4,6,18)           -79.742          estimate D2E/DX2                !
 ! D29   D(1,5,9,12)            18.3501         Frozen                          !
 ! D30   D(4,6,16,32)          -14.1998         estimate D2E/DX2                !
 ! D31   D(17,6,16,32)         110.2979         estimate D2E/DX2                !
 ! D32   D(18,6,16,32)        -136.5531         estimate D2E/DX2                !
 ! D33   D(4,6,17,33)           51.0095         estimate D2E/DX2                !
 ! D34   D(16,6,17,33)         -73.6179         estimate D2E/DX2                !
 ! D35   D(18,6,17,33)         169.7166         estimate D2E/DX2                !
 ! D36   D(4,6,18,31)          -96.4424         estimate D2E/DX2                !
 ! D37   D(16,6,18,31)          24.7715         estimate D2E/DX2                !
 ! D38   D(17,6,18,31)         146.349          estimate D2E/DX2                !
 ! D39   D(3,7,19,30)         -162.1837         estimate D2E/DX2                !
 ! D40   D(20,7,19,30)         -41.4662         estimate D2E/DX2                !
 ! D41   D(21,7,19,30)          76.796          estimate D2E/DX2                !
 ! D42   D(3,7,20,28)          -98.427          estimate D2E/DX2                !
 ! D43   D(19,7,20,28)         148.2947         estimate D2E/DX2                !
 ! D44   D(21,7,20,28)          27.0455         estimate D2E/DX2                !
 ! D45   D(3,7,21,29)          -49.8995         estimate D2E/DX2                !
 ! D46   D(19,7,21,29)          66.0156         estimate D2E/DX2                !
 ! D47   D(20,7,21,29)        -176.7753         estimate D2E/DX2                !
 ! D48   D(2,8,13,25)          -58.468          estimate D2E/DX2                !
 ! D49   D(14,8,13,25)          61.2404         estimate D2E/DX2                !
 ! D50   D(15,8,13,25)        -178.1888         estimate D2E/DX2                !
 ! D51   D(2,8,14,27)           80.2918         estimate D2E/DX2                !
 ! D52   D(13,8,14,27)         -41.6247         estimate D2E/DX2                !
 ! D53   D(15,8,14,27)        -163.3756         estimate D2E/DX2                !
 ! D54   D(2,8,15,26)         -174.1994         estimate D2E/DX2                !
 ! D55   D(13,8,15,26)         -52.1897         estimate D2E/DX2                !
 ! D56   D(14,8,15,26)          69.3652         estimate D2E/DX2                !
 ! D57   D(5,9,10,23)          -94.8501         estimate D2E/DX2                !
 ! D58   D(11,9,10,23)          25.9077         estimate D2E/DX2                !
 ! D59   D(12,9,10,23)         148.6401         estimate D2E/DX2                !
 ! D60   D(5,9,11,24)          -43.8207         estimate D2E/DX2                !
 ! D61   D(10,9,11,24)        -166.8799         estimate D2E/DX2                !
 ! D62   D(12,9,11,24)          74.239          estimate D2E/DX2                !
 ! D63   D(5,9,12,22)         -166.4771         estimate D2E/DX2                !
 ! D64   D(10,9,12,22)         -44.4741         estimate D2E/DX2                !
 ! D65   D(11,9,12,22)          72.5547         estimate D2E/DX2                !
 --------------------------------------------------------------------------------
 Trust Radius=3.00D-01 FncErr=1.00D-07 GrdErr=1.00D-06 EigMax=2.50D+02 EigMin=1.00D-04
 Number of steps in this run=    153 maximum allowed number of steps=    198.
 GradGradGradGradGradGradGradGradGradGradGradGradGradGradGradGradGradGrad

                          Input orientation:                          
 ---------------------------------------------------------------------
 Center     Atomic      Atomic             Coordinates (Angstroms)
 Number     Number       Type             X           Y           Z
 ---------------------------------------------------------------------
      1         40           0        0.657790   -0.125060   -0.071640
      2          8           0       -0.222850   -0.906240    1.477300
      3          8           0        0.103020    1.747480   -0.122990
      4          8           0       -0.268300   -0.978850   -1.597050
      5          8           0        2.592060   -0.436300   -0.082840
      6         14           0       -1.831190   -1.332440   -1.953600
      7         14           0       -1.115500    2.841720   -0.082790
      8         14           0       -1.723760   -1.152910    2.115170
      9         14           0        4.218620   -0.281080    0.007790
     10          8           0        4.955570   -0.128240   -1.461600
     11          8           0        4.886490   -1.635660    0.690480
     12          8           0        4.469700    1.106090    0.864970
     13          8           0       -2.319240   -2.624000    1.696270
     14          8           0       -2.724220    0.065080    1.550860
     15          8           0       -1.597340   -1.019570    3.744390
     16          8           0       -2.001440   -1.559650   -3.577820
     17          8           0       -2.825090   -0.186760   -1.301450
     18          8           0       -2.344480   -2.714390   -1.182770
     19          8           0       -2.040460    2.439570   -1.430230
     20          8           0       -0.635650    4.400490   -0.299870
     21          8           0       -1.965510    2.760860    1.313830
     22          1           0        5.361450    1.470870    0.851290
     23          1           0        5.292960   -0.943690   -1.849310
     24          1           0        4.449200   -2.001510    1.467390
     25          1           0       -2.405770   -2.809510    0.743920
     26          1           0       -2.381370   -1.224230    4.265350
     27          1           0       -3.060340   -0.083060    0.645890
     28          1           0       -0.527310    4.927280    0.500150
     29          1           0       -2.269090    1.869320    1.585330
     30          1           0       -2.648540    3.126760   -1.730140
     31          1           0       -2.304520   -3.529520   -1.695620
     32          1           0       -1.271140   -1.263050   -4.132230
     33          1           0       -2.610260    0.754610   -1.489930
 ---------------------------------------------------------------------
                    Distance matrix (angstroms):
                    1          2          3          4          5
     1  Zr   0.000000
     2  O    1.945504   0.000000
     3  O    1.953666   3.115983   0.000000
     4  O    1.978251   3.075543   3.121475   0.000000
     5  O    1.959183   3.252476   3.311469   3.281593   0.000000
     6  Si   3.345827   3.813067   4.071635   1.641578   4.885484
     7  Si   3.456366   4.156670   1.638221   4.196128   4.948880
     8  Si   3.392697   1.649380   4.093745   3.991145   4.896027
     9  Si   3.565131   4.719845   4.590242   4.816103   1.636461
    10  O    4.516958   6.004869   5.371912   5.294403   2.753554
    11  O    4.554629   5.220775   5.915146   5.677680   2.702017
    12  O    4.113834   5.142416   4.522758   5.732117   2.608226
    13  O    4.270002   2.719099   5.318542   4.214123   5.663226
    14  O    3.755882   2.684348   3.691278   4.126823   5.584191
    15  O    4.521929   2.653632   5.050190   5.504452   5.704294
    16  O    4.628483   5.398571   5.225104   2.695283   5.880225
    17  O    3.694143   3.874372   3.701875   2.692947   5.558129
    18  O    4.117386   3.853141   5.198238   2.737563   5.546978
    19  O    3.962783   4.790812   2.604299   3.854086   5.616612
    20  O    4.712290   5.611606   2.759598   5.545712   5.818913
    21  O    4.138812   4.063399   2.714813   5.033803   5.739683
    22  H    5.052050   6.101389   5.355074   6.609810   3.489902
    23  H    5.031408   6.441420   6.095741   5.567089   3.266913
    24  H    4.501607   4.798725   5.955965   5.717642   2.881330
    25  H    4.154132   2.987545   5.273682   3.660633   5.594101
    26  H    5.408711   3.540275   5.853271   6.236426   6.653014
    27  H    3.786965   3.069237   3.734823   3.691708   5.710118
    28  H    5.220876   5.922624   3.301022   6.272775   6.232041
    29  H    3.910208   3.450000   2.925766   4.716225   5.632890
    30  H    4.925117   5.695325   3.472237   4.747556   6.547739
    31  H    4.796138   4.613282   6.009671   3.265245   6.012118
    32  H    4.637260   5.717784   5.198616   2.741094   5.657331
    33  H    3.669539   4.154829   3.196280   2.915671   5.519266
                    6          7          8          9         10
     6  Si   0.000000
     7  Si   4.629876   0.000000
     8  Si   4.074145   4.599791   0.000000
     9  Si   6.446131   6.181660   6.364984   0.000000
    10  O    6.910302   6.897802   7.645697   1.650928   0.000000
    11  O    7.225671   7.527866   6.779247   1.657409   2.628409
    12  O    7.320654   5.924957   6.710069   1.649860   2.678165
    13  O    3.902290   5.872660   1.641396   7.147297   8.314074
    14  O    3.877087   3.600906   1.674176   7.120668   8.251755
    15  O    5.711363   5.457933   1.639549   6.952189   8.416498
    16  O    1.648848   5.689656   5.714252   7.292495   7.411296
    17  O    1.650975   3.685040   3.717481   7.164974   7.782528
    18  O    1.663560   5.795749   3.701340   7.100191   7.749622
    19  O    3.813892   1.683113   5.057279   6.974663   7.452454
    20  O    6.085279   1.645340   6.152776   6.750977   7.288399
    21  O    5.239203   1.636949   4.002272   7.014457   7.996953
    22  H    8.213405   6.686002   7.660406   2.255412   2.841012
    23  H    7.135511   7.649724   8.061962   2.245457   0.963903
    24  H    7.182905   7.538290   6.264597   2.267924   3.513479
    25  H    3.128657   5.855309   2.256056   7.128632   8.138971
    26  H    6.244177   6.086107   2.249625   7.910513   9.371758
    27  H    3.135141   3.587160   2.256060   7.309558   8.288448
    28  H    6.848729   2.243958   6.403787   7.063518   7.711596
    29  H    4.792395   2.249212   3.116406   7.014502   8.091337
    30  H    4.538993   2.268308   5.827281   7.860767   8.275846
    31  H    2.262246   6.678899   4.528540   7.483670   8.020747
    32  H    2.250533   5.768130   6.264743   6.945610   6.869642
    33  H    2.275460   2.927521   4.173878   7.067490   7.617218
                   11         12         13         14         15
    11  O    0.000000
    12  O    2.778732   0.000000
    13  O    7.342409   7.790657   0.000000
    14  O    7.845743   7.301139   2.723289   0.000000
    15  O    7.193468   7.044038   2.700024   2.694049   0.000000
    16  O    8.103564   8.289765   5.389792   5.428215   7.353213
    17  O    8.095404   7.718730   3.896453   2.865182   5.259415
    18  O    7.547162   8.076036   2.880569   3.916936   5.263795
    19  O    8.311892   7.030526   5.957555   3.872032   6.240088
    20  O    8.240748   6.186641   7.494165   5.155881   6.830662
    21  O    8.165039   6.659705   5.410000   2.810526   4.509415
    22  H    3.146740   0.963571   8.744996   8.236729   7.937070
    23  H    2.663564   3.499524   8.563887   8.766638   8.875329
    24  H    0.963669   3.165519   6.800857   7.465636   6.535257
    25  H    7.386328   7.913196   0.974101   3.002637   3.586121
    26  H    8.109917   7.995632   2.926327   3.024619   0.963321
    27  H    8.097201   7.626505   2.847614   0.976674   3.552200
    28  H    8.509855   6.301166   7.852614   5.437959   6.858213
    29  H    8.017978   6.820024   4.494969   1.861079   3.668579
    30  H    9.236705   7.841367   6.702236   4.488271   6.947485
    31  H    7.809661   8.598579   3.510712   4.861783   6.032716
    32  H    7.830311   7.971328   6.076357   6.014390   7.887131
    33  H    8.165099   7.469600   4.653125   3.120071   5.618881
                   16         17         18         19         20
    16  O    0.000000
    17  O    2.783000   0.000000
    18  O    2.680926   2.575652   0.000000
    19  O    4.539540   2.744055   5.168846   0.000000
    20  O    6.937839   5.180702   7.370287   2.663909   0.000000
    21  O    6.526587   4.033241   6.029510   2.763822   2.657243
    22  H    9.111159   8.625628   9.001953   7.805894   6.772965
    23  H    7.521664   8.171648   7.868300   8.087096   8.130771
    24  H    8.201228   7.992189   7.327048   8.380637   8.364479
    25  H    4.516976   3.352340   1.930010   5.693261   7.497128
    26  H    7.859527   5.680008   5.648358   6.780802   7.451594
    27  H    4.597968   1.964238   3.283344   3.422586   5.184188
    28  H    7.802766   5.888884   8.033022   3.493521   0.963990
    29  H    6.203837   3.587492   5.355227   3.077509   3.553720
    30  H    5.078888   3.345797   5.874615   0.965369   2.778450
    31  H    2.741336   3.405937   0.963872   5.980819   8.223035
    32  H    0.963680   3.403891   3.458000   4.647801   6.867788
    33  H    3.175806   0.983796   3.492699   1.779698   4.313672
                   21         22         23         24         25
    21  O    0.000000
    22  H    7.454016   0.000000
    23  H    8.741541   3.623263   0.000000
    24  H    7.990760   3.642692   3.582096   0.000000
    25  H    5.616729   8.869210   8.335261   6.940237   0.000000
    26  H    4.976480   8.880914   9.816471   7.422225   3.861888
    27  H    3.119724   8.566413   8.760384   7.794133   2.805637
    28  H    2.724678   6.837219   8.594405   8.585414   7.965297
    29  H    0.980162   7.676113   8.768944   7.754525   4.755849
    30  H    3.141045   8.577044   8.924695   9.322085   6.435776
    31  H    6.981447   9.500408   8.026945   7.612633   2.545589
    32  H    6.806877   8.735047   6.957092   8.038865   5.239825
    33  H    3.507394   8.339215   8.091617   8.134981   4.211277
                   26         27         28         29         30
    26  H    0.000000
    27  H    3.855355   0.000000
    28  H    7.446835   5.616136   0.000000
    29  H    4.094529   2.306602   3.682734   0.000000
    30  H    7.412718   4.014728   3.565906   3.566157   0.000000
    31  H    6.391669   4.234622   8.916129   6.317702   6.665254
    32  H    8.470742   5.236797   7.767394   6.595312   5.190154
    33  H    6.090275   2.337946   5.070530   3.288799   2.384588
                   31         32         33
    31  H    0.000000
    32  H    3.484513   0.000000
    33  H    4.299948   3.584124   0.000000
 Stoichiometry    H12O16Si4Zr
 Framework group  C1[X(H12O16Si4Zr)]
 Deg. of freedom    93
 Full point group                 C1      NOp   1
 Largest Abelian subgroup         C1      NOp   1
 Largest concise Abelian subgroup C1      NOp   1
                         Standard orientation:                         
 ---------------------------------------------------------------------
 Center     Atomic      Atomic             Coordinates (Angstroms)
 Number     Number       Type             X           Y           Z
 ---------------------------------------------------------------------
      1         40           0        0.658113   -0.116890   -0.069807
      2          8           0       -0.219652   -0.902477    1.478536
      3          8           0        0.092291    1.752294   -0.122785
      4          8           0       -0.261135   -0.976964   -1.595825
      5          8           0        2.594209   -0.416641   -0.078623
      6         14           0       -1.821486   -1.340018   -1.953979
      7         14           0       -1.132753    2.839298   -0.084563
      8         14           0       -1.719803   -1.157724    2.114816
      9         14           0        4.219713   -0.251715    0.013789
     10          8           0        4.957432   -0.095269   -1.454835
     11          8           0        4.894832   -1.601946    0.697963
     12          8           0        4.461564    1.137371    0.870521
     13          8           0       -2.306053   -2.632545    1.696013
     14          8           0       -2.726830    0.054006    1.548713
     15          8           0       -1.596051   -1.022783    3.744109
     16          8           0       -1.988516   -1.569085   -3.578273
     17          8           0       -2.822923   -0.199921   -1.303577
     18          8           0       -2.327445   -2.724589   -1.183006
     19          8           0       -2.053758    2.430956   -1.432849
     20          8           0       -0.661920    4.400777   -0.301918
     21          8           0       -1.983873    2.754121    1.311125
     22          1           0        5.351147    1.507434    0.857671
     23          1           0        5.300105   -0.908903   -1.841726
     24          1           0        4.458829   -1.969981    1.474565
     25          1           0       -2.390384   -2.819063    0.743663
     26          1           0       -2.379450   -1.231824    4.264278
     27          1           0       -3.061023   -0.096601    0.643437
     28          1           0       -0.557631    4.928620    0.497946
     29          1           0       -2.282464    1.860935    1.582749
     30          1           0       -2.665563    3.114364   -1.733820
     31          1           0       -2.282055   -3.539736   -1.695378
     32          1           0       -1.259353   -1.268443   -4.132002
     33          1           0       -2.613471    0.742610   -1.492309
 ---------------------------------------------------------------------
 Rotational constants (GHZ):           0.2123071           0.1337804           0.1239815
 General basis read from cards:  (5D, 7F)
 ======================================================================================================
                                       Pseudopotential Parameters
 ======================================================================================================
  Center     Atomic      Valence      Angular      Power
  Number     Number     Electrons     Momentum     of R      Exponent        Coefficient   SO-Coeffient
 ======================================================================================================
    1         40           12
                                      G and up 
                                                     2        1.0000000        0.00000000    0.00000000
                                      S - G
                                                     2        8.6365280      150.24299400    0.00000000
                                                     2        3.7176390       18.78003600    0.00000000
                                      P - G
                                                     2        7.6267280       33.19279100    0.00000000
                                                     2        7.4532070       66.38903900    0.00000000
                                                     2        3.3583890        4.62072600    0.00000000
                                                     2        3.2297380        9.26027000    0.00000000
                                      D - G
                                                     2        5.9380860       13.99338300    0.00000000
                                                     2        5.8255440       20.99588200    0.00000000
                                                     2        2.2050190        2.28516600    0.00000000
                                                     2        2.2062920        3.44126000    0.00000000
                                      F - G
                                                     2        4.8002150       -5.23932000    0.00000000
                                                     2        4.7989920       -6.98742400    0.00000000
    2          8
                                   No pseudopotential on this center.
    3          8
                                   No pseudopotential on this center.
    4          8
                                   No pseudopotential on this center.
    5          8
                                   No pseudopotential on this center.
    6         14
                                   No pseudopotential on this center.
    7         14
                                   No pseudopotential on this center.
    8         14
                                   No pseudopotential on this center.
    9         14
                                   No pseudopotential on this center.
   10          8
                                   No pseudopotential on this center.
   11          8
                                   No pseudopotential on this center.
   12          8
                                   No pseudopotential on this center.
   13          8
                                   No pseudopotential on this center.
   14          8
                                   No pseudopotential on this center.
   15          8
                                   No pseudopotential on this center.
   16          8
                                   No pseudopotential on this center.
   17          8
                                   No pseudopotential on this center.
   18          8
                                   No pseudopotential on this center.
   19          8
                                   No pseudopotential on this center.
   20          8
                                   No pseudopotential on this center.
   21          8
                                   No pseudopotential on this center.
   22          1
                                   No pseudopotential on this center.
   23          1
                                   No pseudopotential on this center.
   24          1
                                   No pseudopotential on this center.
   25          1
                                   No pseudopotential on this center.
   26          1
                                   No pseudopotential on this center.
   27          1
                                   No pseudopotential on this center.
   28          1
                                   No pseudopotential on this center.
   29          1
                                   No pseudopotential on this center.
   30          1
                                   No pseudopotential on this center.
   31          1
                                   No pseudopotential on this center.
   32          1
                                   No pseudopotential on this center.
   33          1
                                   No pseudopotential on this center.
 ======================================================================================================
 There are   570 symmetry adapted cartesian basis functions of A   symmetry.
 There are   524 symmetry adapted basis functions of A   symmetry.
   524 basis functions,  1074 primitive gaussians,   570 cartesian basis functions
   104 alpha electrons      104 beta electrons
       nuclear repulsion energy      2832.5150293713 Hartrees.
 NAtoms=   33 NActive=   33 NUniq=   33 SFac= 1.00D+00 NAtFMM=   60 NAOKFM=F Big=F
 Integral buffers will be    131072 words long.
 Raffenetti 2 integral format.
 Two-electron integral symmetry is turned on.
 Nuclear repulsion after empirical dispersion term =     2832.4742318007 Hartrees.
 One-electron integrals computed using PRISM.
 PrsmSu:  requested number of processors reduced to:   4 ShMem   1 Linda.
   1 Symmetry operations used in ECPInt.
 ECPInt:  NShTT=   13203 NPrTT=   78401 LenC2=   11524 LenP2D=   44626.
 LDataN:  DoStor=T MaxTD1= 8 Len=  415
 Number of processors reduced to  13 by ecpmxn.
 NBasis=   524 RedAO= T EigKep=  3.17D-05  NBF=   524
 NBsUse=   524 1.00D-06 EigRej= -1.00D+00 NBFU=   524
 Defaulting to unpruned grid for atomic number  40.
 ExpMin= 1.01D-02 ExpMax= 1.61D+04 ExpMxC= 2.43D+03 IAcc=3 IRadAn=         5 AccDes= 0.00D+00
 Harris functional with IExCor=  402 and IRadAn=       5 diagonalized for initial guess.
 HarFok:  IExCor=  402 AccDes= 0.00D+00 IRadAn=         5 IDoV= 1 UseB2=F ITyADJ=14
 ICtDFT=  3500011 ScaDFX=  1.000000  1.000000  1.000000  1.000000
 Defaulting to unpruned grid for atomic number  40.
 FoFCou: FMM=F IPFlag=           0 FMFlag=      100000 FMFlg1=           0
         NFxFlg=           0 DoJE=T BraDBF=F KetDBF=T FulRan=T
         wScrn=  0.000000 ICntrl=       500 IOpCl=  0 I1Cent=   200000004 NGrid=           0
         NMat0=    1 NMatS0=      1 NMatT0=    0 NMatD0=    1 NMtDS0=    0 NMtDT0=    0
 Petite list used in FoFCou.
 Requested convergence on RMS density matrix=1.00D-08 within 128 cycles.
 Requested convergence on MAX density matrix=1.00D-06.
 Requested convergence on             energy=1.00D-06.
 No special actions if energy rises.
 Defaulting to unpruned grid for atomic number  40.
 Defaulting to unpruned grid for atomic number  40.
 Defaulting to unpruned grid for atomic number  40.
 Defaulting to unpruned grid for atomic number  40.
 Defaulting to unpruned grid for atomic number  40.
 Defaulting to unpruned grid for atomic number  40.
 Defaulting to unpruned grid for atomic number  40.
 Defaulting to unpruned grid for atomic number  40.
 Defaulting to unpruned grid for atomic number  40.
 Defaulting to unpruned grid for atomic number  40.
 Defaulting to unpruned grid for atomic number  40.
 Defaulting to unpruned grid for atomic number  40.
 Defaulting to unpruned grid for atomic number  40.
 Defaulting to unpruned grid for atomic number  40.
 Defaulting to unpruned grid for atomic number  40.
 Defaulting to unpruned grid for atomic number  40.
 SCF Done:  E(RB3LYP) =  -2416.94685536     A.U. after   14 cycles
            NFock= 14  Conv=0.26D-08     -V/T= 2.0185

 **********************************************************************

            Population analysis using the SCF Density.

 **********************************************************************

 Orbital symmetries:
       Occupied  (A) (A) (A) (A) (A) (A) (A) (A) (A) (A) (A) (A)
                 (A) (A) (A) (A) (A) (A) (A) (A) (A) (A) (A) (A)
                 (A) (A) (A) (A) (A) (A) (A) (A) (A) (A) (A) (A)
                 (A) (A) (A) (A) (A) (A) (A) (A) (A) (A) (A) (A)
                 (A) (A) (A) (A) (A) (A) (A) (A) (A) (A) (A) (A)
                 (A) (A) (A) (A) (A) (A) (A) (A) (A) (A) (A) (A)
                 (A) (A) (A) (A) (A) (A) (A) (A) (A) (A) (A) (A)
                 (A) (A) (A) (A) (A) (A) (A) (A) (A) (A) (A) (A)
                 (A) (A) (A) (A) (A) (A) (A) (A)
       Virtual   (A) (A) (A) (A) (A) (A) (A) (A) (A) (A) (A) (A)
                 (A) (A) (A) (A) (A) (A) (A) (A) (A) (A) (A) (A)
                 (A) (A) (A) (A) (A) (A) (A) (A) (A) (A) (A) (A)
                 (A) (A) (A) (A) (A) (A) (A) (A) (A) (A) (A) (A)
                 (A) (A) (A) (A) (A) (A) (A) (A) (A) (A) (A) (A)
                 (A) (A) (A) (A) (A) (A) (A) (A) (A) (A) (A) (A)
                 (A) (A) (A) (A) (A) (A) (A) (A) (A) (A) (A) (A)
                 (A) (A) (A) (A) (A) (A) (A) (A) (A) (A) (A) (A)
                 (A) (A) (A) (A) (A) (A) (A) (A) (A) (A) (A) (A)
                 (A) (A) (A) (A) (A) (A) (A) (A) (A) (A) (A) (A)
                 (A) (A) (A) (A) (A) (A) (A) (A) (A) (A) (A) (A)
                 (A) (A) (A) (A) (A) (A) (A) (A) (A) (A) (A) (A)
                 (A) (A) (A) (A) (A) (A) (A) (A) (A) (A) (A) (A)
                 (A) (A) (A) (A) (A) (A) (A) (A) (A) (A) (A) (A)
                 (A) (A) (A) (A) (A) (A) (A) (A) (A) (A) (A) (A)
                 (A) (A) (A) (A) (A) (A) (A) (A) (A) (A) (A) (A)
                 (A) (A) (A) (A) (A) (A) (A) (A) (A) (A) (A) (A)
                 (A) (A) (A) (A) (A) (A) (A) (A) (A) (A) (A) (A)
                 (A) (A) (A) (A) (A) (A) (A) (A) (A) (A) (A) (A)
                 (A) (A) (A) (A) (A) (A) (A) (A) (A) (A) (A) (A)
                 (A) (A) (A) (A) (A) (A) (A) (A) (A) (A) (A) (A)
                 (A) (A) (A) (A) (A) (A) (A) (A) (A) (A) (A) (A)
                 (A) (A) (A) (A) (A) (A) (A) (A) (A) (A) (A) (A)
                 (A) (A) (A) (A) (A) (A) (A) (A) (A) (A) (A) (A)
                 (A) (A) (A) (A) (A) (A) (A) (A) (A) (A) (A) (A)
                 (A) (A) (A) (A) (A) (A) (A) (A) (A) (A) (A) (A)
                 (A) (A) (A) (A) (A) (A) (A) (A) (A) (A) (A) (A)
                 (A) (A) (A) (A) (A) (A) (A) (A) (A) (A) (A) (A)
                 (A) (A) (A) (A) (A) (A) (A) (A) (A) (A) (A) (A)
                 (A) (A) (A) (A) (A) (A) (A) (A) (A) (A) (A) (A)
                 (A) (A) (A) (A) (A) (A) (A) (A) (A) (A) (A) (A)
                 (A) (A) (A) (A) (A) (A) (A) (A) (A) (A) (A) (A)
                 (A) (A) (A) (A) (A) (A) (A) (A) (A) (A) (A) (A)
                 (A) (A) (A) (A) (A) (A) (A) (A) (A) (A) (A) (A)
                 (A) (A) (A) (A) (A) (A) (A) (A) (A) (A) (A) (A)
 The electronic state is 1-A.
 Alpha  occ. eigenvalues --  -66.22809 -66.21759 -66.21490 -66.21042 -19.18594
 Alpha  occ. eigenvalues --  -19.18355 -19.17792 -19.17030 -19.16736 -19.16537
 Alpha  occ. eigenvalues --  -19.16440 -19.16212 -19.16188 -19.16018 -19.16001
 Alpha  occ. eigenvalues --  -19.15506 -19.15332 -19.15260 -19.14899 -19.14711
 Alpha  occ. eigenvalues --   -5.36869  -5.35839  -5.35565  -5.35102  -3.72853
 Alpha  occ. eigenvalues --   -3.72827  -3.72780  -3.71831  -3.71784  -3.71749
 Alpha  occ. eigenvalues --   -3.71534  -3.71526  -3.71486  -3.71067  -3.71058
 Alpha  occ. eigenvalues --   -3.71033  -2.13370  -1.29612  -1.29528  -1.29372
 Alpha  occ. eigenvalues --   -1.05685  -1.04779  -1.04149  -1.03501  -1.02569
 Alpha  occ. eigenvalues --   -1.02174  -1.01476  -1.00916  -1.00761  -1.00669
 Alpha  occ. eigenvalues --   -0.99836  -0.99309  -0.97374  -0.96287  -0.95728
 Alpha  occ. eigenvalues --   -0.95406  -0.60995  -0.59163  -0.58974  -0.58494
 Alpha  occ. eigenvalues --   -0.55545  -0.54535  -0.53863  -0.53045  -0.52986
 Alpha  occ. eigenvalues --   -0.52496  -0.52152  -0.51712  -0.48783  -0.47607
 Alpha  occ. eigenvalues --   -0.47207  -0.46726  -0.43380  -0.42656  -0.41866
 Alpha  occ. eigenvalues --   -0.41398  -0.41109  -0.40533  -0.39834  -0.39335
 Alpha  occ. eigenvalues --   -0.38807  -0.38682  -0.38653  -0.38146  -0.38022
 Alpha  occ. eigenvalues --   -0.37628  -0.37489  -0.37191  -0.36536  -0.36414
 Alpha  occ. eigenvalues --   -0.36083  -0.35632  -0.35472  -0.35093  -0.34898
 Alpha  occ. eigenvalues --   -0.34609  -0.34002  -0.33698  -0.33482  -0.33265
 Alpha  occ. eigenvalues --   -0.32816  -0.32175  -0.32057  -0.31306
 Alpha virt. eigenvalues --   -0.04331  -0.03165  -0.03042  -0.02753  -0.02097
 Alpha virt. eigenvalues --   -0.01176  -0.00560  -0.00137   0.00126   0.00289
 Alpha virt. eigenvalues --    0.00756   0.00930   0.01021   0.01946   0.02344
 Alpha virt. eigenvalues --    0.03244   0.03333   0.03852   0.03934   0.04066
 Alpha virt. eigenvalues --    0.04157   0.04711   0.05566   0.05842   0.06174
 Alpha virt. eigenvalues --    0.06471   0.07095   0.07462   0.07713   0.08662
 Alpha virt. eigenvalues --    0.08795   0.09041   0.09183   0.09671   0.09954
 Alpha virt. eigenvalues --    0.10368   0.10649   0.10866   0.11237   0.11687
 Alpha virt. eigenvalues --    0.11831   0.12551   0.13267   0.13336   0.13649
 Alpha virt. eigenvalues --    0.14024   0.14421   0.14876   0.15069   0.15283
 Alpha virt. eigenvalues --    0.15369   0.15743   0.16185   0.16712   0.16926
 Alpha virt. eigenvalues --    0.17379   0.17510   0.17691   0.18137   0.18419
 Alpha virt. eigenvalues --    0.18516   0.18741   0.19210   0.19701   0.19735
 Alpha virt. eigenvalues --    0.20128   0.20315   0.20635   0.20962   0.21198
 Alpha virt. eigenvalues --    0.21749   0.21951   0.22310   0.22431   0.22767
 Alpha virt. eigenvalues --    0.23329   0.23747   0.24038   0.24165   0.24465
 Alpha virt. eigenvalues --    0.24840   0.25088   0.25591   0.25793   0.26141
 Alpha virt. eigenvalues --    0.26590   0.26692   0.26910   0.27236   0.27448
 Alpha virt. eigenvalues --    0.27937   0.28265   0.28530   0.28817   0.29034
 Alpha virt. eigenvalues --    0.29446   0.29719   0.30061   0.30404   0.30613
 Alpha virt. eigenvalues --    0.30800   0.31341   0.31463   0.31575   0.32133
 Alpha virt. eigenvalues --    0.32362   0.32762   0.33087   0.33580   0.34029
 Alpha virt. eigenvalues --    0.34451   0.34615   0.35342   0.35702   0.36279
 Alpha virt. eigenvalues --    0.36957   0.37541   0.37985   0.38414   0.38821
 Alpha virt. eigenvalues --    0.39321   0.39957   0.40019   0.41123   0.41606
 Alpha virt. eigenvalues --    0.42702   0.43121   0.43892   0.44318   0.44916
 Alpha virt. eigenvalues --    0.45335   0.45666   0.45917   0.46662   0.47469
 Alpha virt. eigenvalues --    0.47873   0.48573   0.48840   0.49380   0.49559
 Alpha virt. eigenvalues --    0.50000   0.50845   0.51062   0.51332   0.53091
 Alpha virt. eigenvalues --    0.54119   0.54424   0.55165   0.56764   0.57291
 Alpha virt. eigenvalues --    0.58221   0.58726   0.59137   0.59365   0.60320
 Alpha virt. eigenvalues --    0.61232   0.61694   0.62136   0.64047   0.65876
 Alpha virt. eigenvalues --    0.66929   0.67970   0.68424   0.68822   0.69455
 Alpha virt. eigenvalues --    0.70079   0.70568   0.72966   0.74439   0.75144
 Alpha virt. eigenvalues --    0.75487   0.77367   0.78563   0.78978   0.80422
 Alpha virt. eigenvalues --    0.81112   0.81506   0.82600   0.84129   0.85416
 Alpha virt. eigenvalues --    0.86711   0.87680   0.89810   0.90543   0.91211
 Alpha virt. eigenvalues --    0.94332   0.95706   0.96291   0.96879   0.97478
 Alpha virt. eigenvalues --    0.98129   0.98801   0.99218   0.99781   1.00362
 Alpha virt. eigenvalues --    1.00761   1.01467   1.02101   1.03196   1.04069
 Alpha virt. eigenvalues --    1.04279   1.05566   1.06369   1.06707   1.07946
 Alpha virt. eigenvalues --    1.09759   1.12358   1.15237   1.16188   1.16447
 Alpha virt. eigenvalues --    1.18688   1.19065   1.19869   1.20601   1.21003
 Alpha virt. eigenvalues --    1.21406   1.21756   1.22332   1.22830   1.22946
 Alpha virt. eigenvalues --    1.23465   1.23957   1.24266   1.25201   1.25712
 Alpha virt. eigenvalues --    1.26041   1.27154   1.27506   1.28121   1.28402
 Alpha virt. eigenvalues --    1.28971   1.29807   1.30116   1.30871   1.31405
 Alpha virt. eigenvalues --    1.32428   1.32669   1.33005   1.33443   1.34488
 Alpha virt. eigenvalues --    1.35254   1.36037   1.36508   1.36871   1.37754
 Alpha virt. eigenvalues --    1.39179   1.39740   1.40206   1.41209   1.41497
 Alpha virt. eigenvalues --    1.42753   1.43657   1.44212   1.45264   1.46382
 Alpha virt. eigenvalues --    1.46956   1.48835   1.51034   1.51461   1.52831
 Alpha virt. eigenvalues --    1.56739   1.57255   1.57719   1.59304   1.59738
 Alpha virt. eigenvalues --    1.60081   1.61169   1.61925   1.62501   1.63079
 Alpha virt. eigenvalues --    1.63224   1.63818   1.65189   1.65384   1.66620
 Alpha virt. eigenvalues --    1.67337   1.68010   1.69266   1.69600   1.70090
 Alpha virt. eigenvalues --    1.71385   1.71418   1.71615   1.72624   1.73271
 Alpha virt. eigenvalues --    1.74097   1.75020   1.75616   1.76011   1.76589
 Alpha virt. eigenvalues --    1.77167   1.77355   1.78534   1.78769   1.79647
 Alpha virt. eigenvalues --    1.80559   1.81483   1.82210   1.82533   1.83012
 Alpha virt. eigenvalues --    1.83359   1.84857   1.85065   1.85914   1.86632
 Alpha virt. eigenvalues --    1.87185   1.88077   1.88680   1.89767   1.90478
 Alpha virt. eigenvalues --    1.91219   1.91398   1.92514   1.92795   1.93906
 Alpha virt. eigenvalues --    1.94708   1.95080   1.95950   1.97265   1.98377
 Alpha virt. eigenvalues --    1.98792   2.00504   2.01152   2.02805   2.03659
 Alpha virt. eigenvalues --    2.05888   2.06545   2.07621   2.09788   2.10410
 Alpha virt. eigenvalues --    2.11232   2.13021   2.14299   2.16164   2.16271
 Alpha virt. eigenvalues --    2.17789   2.18814   2.19015   2.20766   2.26669
 Alpha virt. eigenvalues --    2.32500   2.33482   2.35450   2.39476   2.40435
 Alpha virt. eigenvalues --    2.41173   2.41343   2.41712   2.42749   2.43734
 Alpha virt. eigenvalues --    2.44014   2.45740   2.46690   2.47605   2.49001
 Alpha virt. eigenvalues --    2.50219   2.50309   2.51667   2.52775   2.53318
 Alpha virt. eigenvalues --    2.55448   2.58312   2.59166   2.60061   2.60698
 Alpha virt. eigenvalues --    2.61111   2.61786   2.62076   2.62427   2.62787
 Alpha virt. eigenvalues --    2.63158   2.64026   2.64606   2.64981   2.65964
 Alpha virt. eigenvalues --    2.66271   2.66605   2.67315   2.67556   2.69375
 Alpha virt. eigenvalues --    2.69567   2.70302   2.71216   2.71675   2.72353
 Alpha virt. eigenvalues --    2.72817   2.74328   2.75559   2.76746   2.77464
 Alpha virt. eigenvalues --    2.78943   2.80555   2.81466   2.82454   2.83469
 Alpha virt. eigenvalues --    2.83717   2.84704   2.86665   2.87783   2.88139
 Alpha virt. eigenvalues --    3.14706   3.20359   3.35832   3.41123   3.46784
 Alpha virt. eigenvalues --    3.47856   3.48585   3.48616   3.51091   3.51108
 Alpha virt. eigenvalues --    3.52919   3.54111   3.60306   3.61072   3.62062
 Alpha virt. eigenvalues --    3.66197   4.32254   4.59429   7.90893  31.29553
          Condensed to atoms (all electrons):
               1          2          3          4          5          6
     1  Zr  15.059439  -0.122710  -0.002988  -0.130453  -0.192860  -0.596261
     2  O   -0.122710   9.064729   0.019792  -0.042670  -0.057866   0.088343
     3  O   -0.002988   0.019792   8.831458   0.016099  -0.044180  -0.003779
     4  O   -0.130453  -0.042670   0.016099   8.812231  -0.059599  -0.678805
     5  O   -0.192860  -0.057866  -0.044180  -0.059599   9.436459  -0.007691
     6  Si  -0.596261   0.088343  -0.003779  -0.678805  -0.007691  13.994212
     7  Si  -0.611735  -0.028484  -0.877416  -0.007338  -0.034297   0.083546
     8  Si  -0.586135  -1.002290  -0.019586   0.070443  -0.014890  -0.016646
     9  Si  -0.315806  -0.041628  -0.028657  -0.034129  -1.238636   0.037844
    10  O   -0.013641   0.001056  -0.001924   0.001015   0.130737  -0.002359
    11  O   -0.062478   0.003430   0.002971   0.001212   0.313653  -0.000842
    12  O    0.041518   0.000020   0.004643   0.002095   0.154167  -0.002936
    13  O   -0.036777   0.186198   0.001671  -0.015660  -0.000636   0.035891
    14  O   -0.016350   0.263842  -0.017522  -0.008720   0.001998   0.028591
    15  O   -0.083173   0.293205  -0.000703   0.001248   0.000574  -0.000193
    16  O   -0.125671   0.004690  -0.000493   0.345211   0.003226  -0.423294
    17  O   -0.077822  -0.039968   0.008138   0.218748   0.001372  -0.455443
    18  O   -0.025241  -0.014482   0.003747   0.198094  -0.000590  -0.451804
    19  O    0.001440   0.008977   0.264643   0.010109   0.002143  -0.007355
    20  O   -0.146194  -0.000574   0.164796  -0.000866   0.001522   0.009025
    21  O    0.035692   0.010287   0.145892   0.003391   0.000194  -0.011644
    22  H   -0.008707  -0.000018  -0.000015  -0.000009   0.005830   0.000083
    23  H   -0.007790  -0.000013  -0.000005  -0.000055  -0.025279   0.000085
    24  H   -0.005179  -0.000197  -0.000012   0.000003  -0.005436   0.000074
    25  H    0.017073  -0.020016  -0.000111  -0.000286   0.000018   0.002514
    26  H    0.007182   0.000595   0.000014  -0.000011  -0.000004  -0.000136
    27  H    0.003709  -0.019174   0.000832  -0.001720   0.000010   0.008992
    28  H    0.005111  -0.000011  -0.018449  -0.000014  -0.000015  -0.000280
    29  H    0.004209  -0.007072  -0.020299  -0.000142  -0.000074   0.000150
    30  H    0.000749  -0.000012   0.000059  -0.000453  -0.000009  -0.000656
    31  H   -0.000203   0.000176  -0.000019  -0.018440  -0.000009   0.063751
    32  H    0.002098  -0.000024   0.000040   0.010421   0.000001   0.022805
    33  H   -0.015979   0.001016  -0.010108  -0.009556  -0.000103   0.053185
               7          8          9         10         11         12
     1  Zr  -0.611735  -0.586135  -0.315806  -0.013641  -0.062478   0.041518
     2  O   -0.028484  -1.002290  -0.041628   0.001056   0.003430   0.000020
     3  O   -0.877416  -0.019586  -0.028657  -0.001924   0.002971   0.004643
     4  O   -0.007338   0.070443  -0.034129   0.001015   0.001212   0.002095
     5  O   -0.034297  -0.014890  -1.238636   0.130737   0.313653   0.154167
     6  Si   0.083546  -0.016646   0.037844  -0.002359  -0.000842  -0.002936
     7  Si  13.796908   0.181691   0.019790  -0.000281  -0.000913   0.003945
     8  Si   0.181691  13.809525   0.025773  -0.000980   0.001153  -0.000807
     9  Si   0.019790   0.025773  14.270009  -0.072079  -0.182453  -0.209925
    10  O   -0.000281  -0.000980  -0.072079   8.525233   0.016060   0.030866
    11  O   -0.000913   0.001153  -0.182453   0.016060   8.514516  -0.050269
    12  O    0.003945  -0.000807  -0.209925   0.030866  -0.050269   8.599854
    13  O    0.007352  -0.095338   0.000254   0.000000   0.000019   0.000008
    14  O    0.008964  -0.369847  -0.001512  -0.000002   0.000001   0.000016
    15  O   -0.002658  -0.305268  -0.000662  -0.000000  -0.000024  -0.000015
    16  O    0.003843  -0.010234  -0.001001   0.000004  -0.000002  -0.000001
    17  O   -0.001247   0.095940   0.002473  -0.000002   0.000002  -0.000006
    18  O   -0.000718   0.074425   0.004170  -0.000003  -0.000000  -0.000001
    19  O   -0.408756  -0.015918   0.001043   0.000007  -0.000002  -0.000021
    20  O   -0.109952   0.009636   0.003116   0.000002  -0.000003  -0.000028
    21  O    0.025049  -0.039865  -0.001758   0.000001   0.000001   0.000023
    22  H   -0.000179   0.000086   0.046965  -0.006586  -0.005069   0.219758
    23  H    0.000061   0.000063   0.081362   0.228490  -0.006199   0.005888
    24  H    0.000053  -0.000094   0.036928   0.007334   0.242781  -0.007451
    25  H   -0.000465   0.057410  -0.000213   0.000000  -0.000000  -0.000000
    26  H   -0.000378   0.046219  -0.000042  -0.000000   0.000000  -0.000000
    27  H    0.001410   0.068663  -0.000003   0.000000  -0.000000  -0.000000
    28  H    0.056663  -0.000070  -0.000134  -0.000000  -0.000000  -0.000003
    29  H    0.048143   0.021904  -0.000055   0.000000   0.000000  -0.000001
    30  H    0.040245   0.000104   0.000023  -0.000000   0.000000   0.000000
    31  H    0.000155  -0.001948  -0.000052   0.000000  -0.000000   0.000000
    32  H   -0.000657   0.000052   0.000011  -0.000000   0.000000  -0.000000
    33  H    0.020629   0.000106   0.000076  -0.000000   0.000000   0.000000
              13         14         15         16         17         18
     1  Zr  -0.036777  -0.016350  -0.083173  -0.125671  -0.077822  -0.025241
     2  O    0.186198   0.263842   0.293205   0.004690  -0.039968  -0.014482
     3  O    0.001671  -0.017522  -0.000703  -0.000493   0.008138   0.003747
     4  O   -0.015660  -0.008720   0.001248   0.345211   0.218748   0.198094
     5  O   -0.000636   0.001998   0.000574   0.003226   0.001372  -0.000590
     6  Si   0.035891   0.028591  -0.000193  -0.423294  -0.455443  -0.451804
     7  Si   0.007352   0.008964  -0.002658   0.003843  -0.001247  -0.000718
     8  Si  -0.095338  -0.369847  -0.305268  -0.010234   0.095940   0.074425
     9  Si   0.000254  -0.001512  -0.000662  -0.001001   0.002473   0.004170
    10  O    0.000000  -0.000002  -0.000000   0.000004  -0.000002  -0.000003
    11  O    0.000019   0.000001  -0.000024  -0.000002   0.000002  -0.000000
    12  O    0.000008   0.000016  -0.000015  -0.000001  -0.000006  -0.000001
    13  O    8.628315   0.087117  -0.090514   0.003733  -0.030882  -0.045576
    14  O    0.087117   8.674979   0.055518   0.003679  -0.035881  -0.026831
    15  O   -0.090514   0.055518   8.777350  -0.000175   0.003593   0.001676
    16  O    0.003733   0.003679  -0.000175   8.902206  -0.091581  -0.114965
    17  O   -0.030882  -0.035881   0.003593  -0.091581   8.935783   0.227503
    18  O   -0.045576  -0.026831   0.001676  -0.114965   0.227503   9.013062
    19  O    0.000179  -0.000431   0.000140  -0.001546  -0.030085   0.000160
    20  O    0.000008  -0.000227   0.000039   0.000066  -0.000971   0.000014
    21  O   -0.000253   0.015929  -0.000616  -0.000214  -0.005546   0.000478
    22  H   -0.000000  -0.000000  -0.000000   0.000000   0.000000  -0.000000
    23  H    0.000000   0.000000  -0.000000  -0.000000   0.000000  -0.000000
    24  H   -0.000000   0.000000   0.000002   0.000000  -0.000000  -0.000000
    25  H    0.218367  -0.011970   0.008911  -0.000053   0.000637   0.014946
    26  H   -0.005116  -0.010081   0.216988   0.000000  -0.000003   0.000006
    27  H   -0.009734   0.219328   0.004634   0.000182   0.017961  -0.000258
    28  H   -0.000000  -0.000006  -0.000001  -0.000000   0.000004  -0.000000
    29  H    0.000797   0.017575  -0.002571  -0.000004  -0.000396   0.000006
    30  H    0.000001  -0.000000   0.000000   0.000115  -0.000404  -0.000007
    31  H    0.002363   0.000166  -0.000018   0.003788  -0.000756   0.218174
    32  H   -0.000008  -0.000006   0.000000   0.233437  -0.003638   0.003885
    33  H    0.000228   0.002082  -0.000035  -0.000102   0.231024   0.002105
              19         20         21         22         23         24
     1  Zr   0.001440  -0.146194   0.035692  -0.008707  -0.007790  -0.005179
     2  O    0.008977  -0.000574   0.010287  -0.000018  -0.000013  -0.000197
     3  O    0.264643   0.164796   0.145892  -0.000015  -0.000005  -0.000012
     4  O    0.010109  -0.000866   0.003391  -0.000009  -0.000055   0.000003
     5  O    0.002143   0.001522   0.000194   0.005830  -0.025279  -0.005436
     6  Si  -0.007355   0.009025  -0.011644   0.000083   0.000085   0.000074
     7  Si  -0.408756  -0.109952   0.025049  -0.000179   0.000061   0.000053
     8  Si  -0.015918   0.009636  -0.039865   0.000086   0.000063  -0.000094
     9  Si   0.001043   0.003116  -0.001758   0.046965   0.081362   0.036928
    10  O    0.000007   0.000002   0.000001  -0.006586   0.228490   0.007334
    11  O   -0.000002  -0.000003   0.000001  -0.005069  -0.006199   0.242781
    12  O   -0.000021  -0.000028   0.000023   0.219758   0.005888  -0.007451
    13  O    0.000179   0.000008  -0.000253  -0.000000   0.000000  -0.000000
    14  O   -0.000431  -0.000227   0.015929  -0.000000   0.000000   0.000000
    15  O    0.000140   0.000039  -0.000616  -0.000000  -0.000000   0.000002
    16  O   -0.001546   0.000066  -0.000214   0.000000  -0.000000   0.000000
    17  O   -0.030085  -0.000971  -0.005546   0.000000   0.000000  -0.000000
    18  O    0.000160   0.000014   0.000478  -0.000000  -0.000000  -0.000000
    19  O    8.872455   0.032272   0.023259  -0.000000   0.000000  -0.000000
    20  O    0.032272   8.657516  -0.050437   0.000000   0.000000  -0.000000
    21  O    0.023259  -0.050437   8.485170  -0.000000   0.000000   0.000000
    22  H   -0.000000   0.000000  -0.000000   0.362018   0.000057   0.000122
    23  H    0.000000   0.000000   0.000000   0.000057   0.351024   0.000014
    24  H   -0.000000  -0.000000   0.000000   0.000122   0.000014   0.365124
    25  H   -0.000024   0.000000  -0.000019   0.000000   0.000000   0.000000
    26  H    0.000001  -0.000000   0.000039  -0.000000  -0.000000  -0.000000
    27  H    0.000037   0.000192  -0.004011  -0.000000  -0.000000   0.000000
    28  H    0.004616   0.229584  -0.002077  -0.000000   0.000000  -0.000000
    29  H   -0.008571   0.007665   0.206460   0.000000   0.000000  -0.000000
    30  H    0.224201  -0.001482  -0.007140   0.000000   0.000000  -0.000000
    31  H    0.000004  -0.000000  -0.000000  -0.000000  -0.000000   0.000000
    32  H    0.000098  -0.000000   0.000001  -0.000000  -0.000000  -0.000000
    33  H    0.014853  -0.000084   0.001477  -0.000000  -0.000000  -0.000000
              25         26         27         28         29         30
     1  Zr   0.017073   0.007182   0.003709   0.005111   0.004209   0.000749
     2  O   -0.020016   0.000595  -0.019174  -0.000011  -0.007072  -0.000012
     3  O   -0.000111   0.000014   0.000832  -0.018449  -0.020299   0.000059
     4  O   -0.000286  -0.000011  -0.001720  -0.000014  -0.000142  -0.000453
     5  O    0.000018  -0.000004   0.000010  -0.000015  -0.000074  -0.000009
     6  Si   0.002514  -0.000136   0.008992  -0.000280   0.000150  -0.000656
     7  Si  -0.000465  -0.000378   0.001410   0.056663   0.048143   0.040245
     8  Si   0.057410   0.046219   0.068663  -0.000070   0.021904   0.000104
     9  Si  -0.000213  -0.000042  -0.000003  -0.000134  -0.000055   0.000023
    10  O    0.000000  -0.000000   0.000000  -0.000000   0.000000  -0.000000
    11  O   -0.000000   0.000000  -0.000000  -0.000000   0.000000   0.000000
    12  O   -0.000000  -0.000000  -0.000000  -0.000003  -0.000001   0.000000
    13  O    0.218367  -0.005116  -0.009734  -0.000000   0.000797   0.000001
    14  O   -0.011970  -0.010081   0.219328  -0.000006   0.017575  -0.000000
    15  O    0.008911   0.216988   0.004634  -0.000001  -0.002571   0.000000
    16  O   -0.000053   0.000000   0.000182  -0.000000  -0.000004   0.000115
    17  O    0.000637  -0.000003   0.017961   0.000004  -0.000396  -0.000404
    18  O    0.014946   0.000006  -0.000258  -0.000000   0.000006  -0.000007
    19  O   -0.000024   0.000001   0.000037   0.004616  -0.008571   0.224201
    20  O    0.000000  -0.000000   0.000192   0.229584   0.007665  -0.001482
    21  O   -0.000019   0.000039  -0.004011  -0.002077   0.206460  -0.007140
    22  H    0.000000  -0.000000  -0.000000  -0.000000   0.000000   0.000000
    23  H    0.000000  -0.000000  -0.000000   0.000000   0.000000   0.000000
    24  H    0.000000  -0.000000   0.000000  -0.000000  -0.000000  -0.000000
    25  H    0.298877  -0.000012   0.000115   0.000000   0.000001   0.000000
    26  H   -0.000012   0.365981   0.000036   0.000000   0.000021  -0.000000
    27  H    0.000115   0.000036   0.283339  -0.000000  -0.001497   0.000010
    28  H    0.000000   0.000000  -0.000000   0.349155  -0.000017  -0.000016
    29  H    0.000001   0.000021  -0.001497  -0.000017   0.285952   0.000156
    30  H    0.000000  -0.000000   0.000010  -0.000016   0.000156   0.334236
    31  H   -0.000496   0.000000   0.000013  -0.000000   0.000000  -0.000000
    32  H   -0.000001   0.000000  -0.000000   0.000000  -0.000000  -0.000000
    33  H    0.000006  -0.000000  -0.002413  -0.000002   0.000099  -0.001157
              31         32         33
     1  Zr  -0.000203   0.002098  -0.015979
     2  O    0.000176  -0.000024   0.001016
     3  O   -0.000019   0.000040  -0.010108
     4  O   -0.018440   0.010421  -0.009556
     5  O   -0.000009   0.000001  -0.000103
     6  Si   0.063751   0.022805   0.053185
     7  Si   0.000155  -0.000657   0.020629
     8  Si  -0.001948   0.000052   0.000106
     9  Si  -0.000052   0.000011   0.000076
    10  O    0.000000  -0.000000  -0.000000
    11  O   -0.000000   0.000000   0.000000
    12  O    0.000000  -0.000000   0.000000
    13  O    0.002363  -0.000008   0.000228
    14  O    0.000166  -0.000006   0.002082
    15  O   -0.000018   0.000000  -0.000035
    16  O    0.003788   0.233437  -0.000102
    17  O   -0.000756  -0.003638   0.231024
    18  O    0.218174   0.003885   0.002105
    19  O    0.000004   0.000098   0.014853
    20  O   -0.000000  -0.000000  -0.000084
    21  O   -0.000000   0.000001   0.001477
    22  H   -0.000000  -0.000000  -0.000000
    23  H   -0.000000  -0.000000  -0.000000
    24  H    0.000000  -0.000000  -0.000000
    25  H   -0.000496  -0.000001   0.000006
    26  H    0.000000   0.000000  -0.000000
    27  H    0.000013  -0.000000  -0.002413
    28  H   -0.000000   0.000000  -0.000002
    29  H    0.000000  -0.000000   0.000099
    30  H   -0.000000  -0.000000  -0.001157
    31  H    0.331388   0.000001  -0.000038
    32  H    0.000001   0.349956   0.000157
    33  H   -0.000038   0.000157   0.269251
 Mulliken charges:
               1
     1  Zr   0.005933
     2  O   -0.549151
     3  O   -0.418528
     4  O   -0.681394
     5  O   -0.369728
     6  Si   2.231035
     7  Si   1.787028
     8  Si   2.016722
     9  Si   1.598905
    10  O   -0.842951
    11  O   -0.787545
    12  O   -0.791336
    13  O   -0.842006
    14  O   -0.880398
    15  O   -0.877251
    16  O   -0.734844
    17  O   -0.968547
    18  O   -1.081974
    19  O   -0.987927
    20  O   -0.804635
    21  O   -0.829762
    22  H    0.385663
    23  H    0.372297
    24  H    0.365936
    25  H    0.414791
    26  H    0.378701
    27  H    0.429348
    28  H    0.375962
    29  H    0.447560
    30  H    0.411439
    31  H    0.402002
    32  H    0.381373
    33  H    0.443282
 Sum of Mulliken charges =  -0.00000
 Mulliken charges with hydrogens summed into heavy atoms:
               1
     1  Zr   0.005933
     2  O   -0.549151
     3  O   -0.418528
     4  O   -0.681394
     5  O   -0.369728
     6  Si   2.231035
     7  Si   1.787028
     8  Si   2.016722
     9  Si   1.598905
    10  O   -0.470654
    11  O   -0.421609
    12  O   -0.405672
    13  O   -0.427215
    14  O   -0.451050
    15  O   -0.498550
    16  O   -0.353472
    17  O   -0.525265
    18  O   -0.679972
    19  O   -0.576488
    20  O   -0.428672
    21  O   -0.382203
 Electronic spatial extent (au):  <R**2>=           9874.5992
 Charge=             -0.0000 electrons
 Dipole moment (field-independent basis, Debye):
    X=              1.0686    Y=             -0.7869    Z=             -2.4118  Tot=              2.7528
 Quadrupole moment (field-independent basis, Debye-Ang):
   XX=           -160.2066   YY=           -154.7238   ZZ=           -157.8063
   XY=             -5.0164   XZ=              2.1922   YZ=              5.7119
 Traceless Quadrupole moment (field-independent basis, Debye-Ang):
   XX=             -2.6277   YY=              2.8551   ZZ=             -0.2274
   XY=             -5.0164   XZ=              2.1922   YZ=              5.7119
 Octapole moment (field-independent basis, Debye-Ang**2):
  XXX=             74.1773  YYY=              6.6634  ZZZ=            -18.5874  XYY=             -2.2290
  XXY=             20.4692  XXZ=             19.0214  XZZ=              5.2948  YZZ=            -17.1889
  YYZ=            -15.5340  XYZ=             28.3080
 Hexadecapole moment (field-independent basis, Debye-Ang**3):
 XXXX=          -6029.8175 YYYY=          -2837.4306 ZZZZ=          -2262.1930 XXXY=             57.0724
 XXXZ=            -21.5175 YYYX=              3.1864 YYYZ=            219.4240 ZZZX=           -183.5322
 ZZZY=            -56.1649 XXYY=          -1485.5929 XXZZ=          -1363.5005 YYZZ=           -925.1314
 XXYZ=             -8.9477 YYXZ=            127.5116 ZZXY=            -60.4063
 N-N= 2.832474231801D+03 E-N=-1.137754396048D+04  KE= 2.373154557989D+03
 PrsmSu:  requested number of processors reduced to:   2 ShMem   1 Linda.
 PrsmSu:  requested number of processors reduced to:  10 ShMem   1 Linda.
   1 Symmetry operations used in ECPInt.
 ECPInt:  NShTT=   13203 NPrTT=   78401 LenC2=   11524 LenP2D=   44626.
 LDataN:  DoStor=T MaxTD1= 9 Len=  602
 Number of processors reduced to  14 by ecpmxn.
 Calling FoFJK, ICntrl=      2127 FMM=F ISym2X=0 I1Cent= 0 IOpClX= 0 NMat=1 NMatS=1 NMatT=0.
 CoulSu:  requested number of processors reduced to:  10 ShMem   1 Linda.
 Defaulting to unpruned grid for atomic number  40.
 Defaulting to unpruned grid for atomic number  40.
 Defaulting to unpruned grid for atomic number  40.
 Defaulting to unpruned grid for atomic number  40.
 Defaulting to unpruned grid for atomic number  40.
 Defaulting to unpruned grid for atomic number  40.
 Defaulting to unpruned grid for atomic number  40.
 Defaulting to unpruned grid for atomic number  40.
 Defaulting to unpruned grid for atomic number  40.
 Defaulting to unpruned grid for atomic number  40.
 Defaulting to unpruned grid for atomic number  40.
 Defaulting to unpruned grid for atomic number  40.
 Defaulting to unpruned grid for atomic number  40.
 Defaulting to unpruned grid for atomic number  40.
 Defaulting to unpruned grid for atomic number  40.
 Defaulting to unpruned grid for atomic number  40.
 ***** Axes restored to original set *****
 -------------------------------------------------------------------
 Center     Atomic                   Forces (Hartrees/Bohr)
 Number     Number              X              Y              Z
 -------------------------------------------------------------------
      1       40           0.000100612   -0.000044616   -0.000001923
      2        8           0.000000032    0.000003874   -0.000015835
      3        8           0.000007111    0.000034898   -0.000001331
      4        8           0.000016116   -0.000005122    0.000018568
      5        8          -0.000063796   -0.000048407   -0.000027563
      6       14          -0.000029919    0.000011755   -0.000004013
      7       14           0.000004456   -0.000001279   -0.000006111
      8       14          -0.000013850   -0.000004289    0.000017187
      9       14          -0.000067508    0.000145520    0.000048788
     10        8           0.000006843   -0.000010887   -0.000011770
     11        8           0.000005241   -0.000047279   -0.000009063
     12        8           0.000005332   -0.000033328   -0.000011395
     13        8           0.000001475    0.000003890    0.000000083
     14        8           0.000009572   -0.000006822   -0.000000100
     15        8           0.000000070   -0.000003182   -0.000014390
     16        8           0.000006127   -0.000002133    0.000001533
     17        8           0.000013957   -0.000005251   -0.000005505
     18        8          -0.000002977    0.000004108    0.000004422
     19        8           0.000001282    0.000000979    0.000001772
     20        8           0.000002978   -0.000001225    0.000004866
     21        8          -0.000003733    0.000002680    0.000000115
     22        1           0.000002024   -0.000012288   -0.000004528
     23        1          -0.000002984   -0.000008883   -0.000000960
     24        1           0.000006687    0.000012023    0.000012971
     25        1          -0.000000501    0.000001132   -0.000003081
     26        1          -0.000000489    0.000003990    0.000003980
     27        1          -0.000001883    0.000004559   -0.000003694
     28        1           0.000001272    0.000002284   -0.000000911
     29        1          -0.000003818    0.000002246    0.000005641
     30        1           0.000001325    0.000001351   -0.000000118
     31        1           0.000003003   -0.000003861   -0.000002621
     32        1          -0.000005113    0.000001777   -0.000000007
     33        1           0.000001056    0.000001787    0.000004991
 -------------------------------------------------------------------
 Cartesian Forces:  Max     0.000145520 RMS     0.000023939

 GradGradGradGradGradGradGradGradGradGradGradGradGradGradGradGradGradGrad
 Berny optimization.
 FormGI is forming the generalized inverse of G from B-inverse, IUseBI=4.
 Internal  Forces:  Max     0.000106985 RMS     0.000016406
 Search for a local minimum.
 Step number   1 out of a maximum of  153
 All quantities printed in internal units (Hartrees-Bohrs-Radians)
 Mixed Optimization -- En-DIIS/RFO-DIIS
 Second derivative matrix not updated -- first step.
 ITU=  0
     Eigenvalues ---    0.00230   0.00230   0.00230   0.02277   0.03240
     Eigenvalues ---    0.03358   0.03498   0.03580   0.03665   0.03665
     Eigenvalues ---    0.03680   0.03686   0.03693   0.03739   0.03789
     Eigenvalues ---    0.03792   0.03816   0.03834   0.03850   0.05794
     Eigenvalues ---    0.06699   0.07138   0.11077   0.11224   0.11833
     Eigenvalues ---    0.11884   0.12177   0.12219   0.12239   0.12713
     Eigenvalues ---    0.12895   0.13099   0.13313   0.16000   0.16000
     Eigenvalues ---    0.16000   0.16000   0.16000   0.16000   0.16000
     Eigenvalues ---    0.16000   0.16000   0.16000   0.16000   0.16000
     Eigenvalues ---    0.18076   0.18676   0.19173   0.19823   0.20203
     Eigenvalues ---    0.20204   0.20208   0.20515   0.20653   0.20795
     Eigenvalues ---    0.20897   0.20989   0.21175   0.21186   0.25000
     Eigenvalues ---    0.25000   0.25000   0.38002   0.39187   0.40659
     Eigenvalues ---    0.41546   0.42502   0.42509   0.42670   0.42743
     Eigenvalues ---    0.42824   0.43363   0.43951   0.43980   0.44273
     Eigenvalues ---    0.44485   0.44689   0.44755   0.50655   0.51353
     Eigenvalues ---    0.52036   0.52548   0.54334   0.54624   0.54642
     Eigenvalues ---    0.54649   0.54689   0.54692   0.54712   0.54765
     Eigenvalues --- 1000.000001000.000001000.000001000.000001000.00000
     Eigenvalues --- 1000.000001000.000001000.000001000.000001000.00000
     Eigenvalues --- 1000.000001000.000001000.000001000.000001000.00000
     Eigenvalues --- 1000.000001000.000001000.000001000.000001000.00000
     Eigenvalues --- 1000.000001000.000001000.000001000.000001000.00000
     Eigenvalues --- 1000.000001000.000001000.000001000.000001000.00000
     Eigenvalues --- 1000.000001000.000001000.000001000.000001000.00000
     Eigenvalues --- 1000.000001000.000001000.000001000.000001000.00000
     Eigenvalues --- 1000.000001000.000001000.000001000.000001000.00000
     Eigenvalues --- 1000.000001000.000001000.000001000.000001000.00000
     Eigenvalues --- 1000.000001000.000001000.00000
 RFO step:  Lambda=-1.67235292D-07 EMin= 2.30000000D-03
 Linear search not attempted -- first point.
 Iteration  1 RMS(Cart)=  0.00082115 RMS(Int)=  0.00000010
 Iteration  2 RMS(Cart)=  0.00000019 RMS(Int)=  0.00000000
 Iteration  1 RMS(Cart)=  0.00000000 RMS(Int)=  0.00000000
 Variable       Old X    -DE/DX   Delta X   Delta X   Delta X     New X
                                 (Linear)    (Quad)   (Total)
    R1        3.67647  -0.00001   0.00000  -0.00005  -0.00005   3.67642
    R2        3.69189   0.00004   0.00000   0.00018   0.00018   3.69207
    R3        3.73835  -0.00002   0.00000  -0.00008  -0.00008   3.73827
    R4        3.70232  -0.00011   0.00000  -0.00053  -0.00053   3.70179
    R5        3.11688   0.00000   0.00000   0.00001   0.00001   3.11688
    R6        3.09579   0.00001   0.00000   0.00001   0.00001   3.09580
    R7        3.10213   0.00001   0.00000   0.00002   0.00002   3.10216
    R8        3.09246  -0.00004   0.00000  -0.00008  -0.00008   3.09238
    R9        3.11587  -0.00000   0.00000  -0.00000  -0.00000   3.11587
   R10        3.11989  -0.00001   0.00000  -0.00003  -0.00003   3.11986
   R11        3.14367   0.00000   0.00000   0.00000   0.00000   3.14368
   R12        3.18062  -0.00000   0.00000  -0.00000  -0.00000   3.18062
   R13        3.10924   0.00000   0.00000   0.00000   0.00000   3.10924
   R14        3.09339   0.00001   0.00000   0.00002   0.00002   3.09341
   R15        3.10179  -0.00000   0.00000  -0.00001  -0.00001   3.10178
   R16        3.16373  -0.00001   0.00000  -0.00002  -0.00002   3.16372
   R17        3.09830  -0.00001   0.00000  -0.00002  -0.00002   3.09827
   R18        3.11980   0.00001   0.00000   0.00003   0.00003   3.11983
   R19        3.13205   0.00003   0.00000   0.00008   0.00008   3.13213
   R20        3.11778  -0.00004   0.00000  -0.00010  -0.00010   3.11768
   R21        1.82151   0.00001   0.00000   0.00001   0.00001   1.82152
   R22        1.82107   0.00000   0.00000   0.00000   0.00000   1.82107
   R23        1.82089  -0.00000   0.00000  -0.00000  -0.00000   1.82088
   R24        1.84078   0.00000   0.00000   0.00001   0.00001   1.84079
   R25        1.84565   0.00000   0.00000   0.00001   0.00001   1.84565
   R26        1.82041   0.00000   0.00000   0.00000   0.00000   1.82042
   R27        1.82109  -0.00000   0.00000  -0.00001  -0.00001   1.82109
   R28        1.85910   0.00000   0.00000   0.00000   0.00000   1.85910
   R29        1.82145   0.00001   0.00000   0.00001   0.00001   1.82146
   R30        1.82428   0.00000   0.00000   0.00000   0.00000   1.82428
   R31        1.82168   0.00000   0.00000   0.00000   0.00000   1.82168
   R32        1.85224   0.00000   0.00000   0.00000   0.00000   1.85224
    A1        1.85172   0.00002   0.00000   0.00010   0.00010   1.85183
    A2        1.80155  -0.00004   0.00000  -0.00013  -0.00013   1.80142
    A3        1.96889   0.00002   0.00000   0.00011   0.00011   1.96900
    A4        1.83430   0.00002   0.00000   0.00003   0.00003   1.83433
    A5        2.01802  -0.00003   0.00000  -0.00017  -0.00017   2.01785
    A6        1.97057   0.00001   0.00000   0.00006   0.00006   1.97063
    A7        2.46524  -0.00001   0.00000  -0.00004  -0.00004   2.46521
    A8        2.58826   0.00002   0.00000   0.00007   0.00007   2.58833
    A9        2.35483  -0.00003   0.00000  -0.00010  -0.00010   2.35472
   A10        2.87979  -0.00009   0.00000   0.00000   0.00000   2.87979
[...]
 Alpha virt. eigenvalues --    3.52918   3.54106   3.60317   3.61077   3.62058
 Alpha virt. eigenvalues --    3.66213   4.32268   4.59407   7.91123  31.29574
          Condensed to atoms (all electrons):
               1          2          3          4          5          6
     1  Zr  15.060793  -0.123225  -0.002705  -0.130865  -0.193720  -0.595692
     2  O   -0.123225   9.064893   0.019825  -0.042635  -0.057886   0.088442
     3  O   -0.002705   0.019825   8.831456   0.016091  -0.044187  -0.003813
     4  O   -0.130865  -0.042635   0.016091   8.812225  -0.059614  -0.678466
     5  O   -0.193720  -0.057886  -0.044187  -0.059614   9.436961  -0.007661
     6  Si  -0.595692   0.088442  -0.003813  -0.678466  -0.007661  13.993327
     7  Si  -0.611808  -0.028482  -0.877555  -0.007282  -0.034319   0.083511
     8  Si  -0.585645  -1.002199  -0.019636   0.070526  -0.014890  -0.017064
     9  Si  -0.315350  -0.041561  -0.028705  -0.034098  -1.238326   0.037815
    10  O   -0.013630   0.001056  -0.001922   0.001013   0.130633  -0.002358
    11  O   -0.062429   0.003427   0.002975   0.001210   0.313610  -0.000843
    12  O    0.041415   0.000012   0.004630   0.002092   0.153882  -0.002934
    13  O   -0.036853   0.186196   0.001668  -0.015657  -0.000638   0.035933
    14  O   -0.016627   0.263930  -0.017515  -0.008760   0.002000   0.028732
    15  O   -0.083205   0.293271  -0.000698   0.001250   0.000575  -0.000193
    16  O   -0.125691   0.004694  -0.000496   0.345095   0.003227  -0.423151
    17  O   -0.078056  -0.040003   0.008106   0.218780   0.001365  -0.455568
    18  O   -0.025464  -0.014470   0.003746   0.198162  -0.000588  -0.451743
    19  O    0.001242   0.008984   0.264670   0.010130   0.002145  -0.007313
    20  O   -0.146257  -0.000573   0.164746  -0.000865   0.001524   0.009030
    21  O    0.035740   0.010300   0.145898   0.003391   0.000195  -0.011647
    22  H   -0.008713  -0.000018  -0.000015  -0.000009   0.005860   0.000083
    23  H   -0.007796  -0.000013  -0.000005  -0.000055  -0.025301   0.000085
    24  H   -0.005199  -0.000197  -0.000012   0.000003  -0.005458   0.000073
    25  H    0.017107  -0.020014  -0.000111  -0.000287   0.000018   0.002506
    26  H    0.007179   0.000594   0.000014  -0.000011  -0.000004  -0.000137
    27  H    0.003727  -0.019173   0.000833  -0.001727   0.000010   0.009019
    28  H    0.005112  -0.000011  -0.018441  -0.000014  -0.000015  -0.000281
    29  H    0.004199  -0.007078  -0.020294  -0.000141  -0.000075   0.000151
    30  H    0.000765  -0.000012   0.000057  -0.000453  -0.000009  -0.000663
    31  H   -0.000197   0.000177  -0.000019  -0.018448  -0.000009   0.063757
    32  H    0.002101  -0.000024   0.000040   0.010411   0.000001   0.022821
    33  H   -0.015947   0.001015  -0.010108  -0.009540  -0.000103   0.053156
               7          8          9         10         11         12
     1  Zr  -0.611808  -0.585645  -0.315350  -0.013630  -0.062429   0.041415
     2  O   -0.028482  -1.002199  -0.041561   0.001056   0.003427   0.000012
     3  O   -0.877555  -0.019636  -0.028705  -0.001922   0.002975   0.004630
     4  O   -0.007282   0.070526  -0.034098   0.001013   0.001210   0.002092
     5  O   -0.034319  -0.014890  -1.238326   0.130633   0.313610   0.153882
     6  Si   0.083511  -0.017064   0.037815  -0.002358  -0.000843  -0.002934
     7  Si  13.797163   0.181716   0.019821  -0.000285  -0.000912   0.003941
     8  Si   0.181716  13.809111   0.025769  -0.000981   0.001152  -0.000806
     9  Si   0.019821   0.025769  14.268564  -0.071831  -0.182319  -0.209205
    10  O   -0.000285  -0.000981  -0.071831   8.525036   0.016253   0.030628
    11  O   -0.000912   0.001152  -0.182319   0.016253   8.514453  -0.050408
    12  O    0.003941  -0.000806  -0.209205   0.030628  -0.050408   8.599464
    13  O    0.007354  -0.095364   0.000257   0.000000   0.000019   0.000008
    14  O    0.008936  -0.369853  -0.001514  -0.000002   0.000001   0.000016
    15  O   -0.002663  -0.305431  -0.000661  -0.000000  -0.000024  -0.000015
    16  O    0.003851  -0.010239  -0.001001   0.000004  -0.000002  -0.000001
    17  O   -0.001179   0.096060   0.002473  -0.000002   0.000002  -0.000006
    18  O   -0.000717   0.074519   0.004173  -0.000003  -0.000000  -0.000001
    19  O   -0.408680  -0.015908   0.001047   0.000007  -0.000002  -0.000021
    20  O   -0.109968   0.009641   0.003121   0.000002  -0.000003  -0.000028
    21  O    0.024945  -0.039882  -0.001760   0.000001   0.000001   0.000023
    22  H   -0.000178   0.000086   0.046944  -0.006585  -0.005076   0.219793
    23  H    0.000061   0.000063   0.081418   0.228494  -0.006217   0.005896
    24  H    0.000053  -0.000093   0.036993   0.007338   0.242774  -0.007462
    25  H   -0.000466   0.057406  -0.000213   0.000000  -0.000000  -0.000000
    26  H   -0.000378   0.046228  -0.000042  -0.000000   0.000000  -0.000000
    27  H    0.001414   0.068660  -0.000003   0.000000  -0.000000  -0.000000
    28  H    0.056657  -0.000070  -0.000134  -0.000000  -0.000000  -0.000003
    29  H    0.048148   0.021921  -0.000055   0.000000   0.000000  -0.000001
    30  H    0.040221   0.000104   0.000023  -0.000000   0.000000   0.000000
    31  H    0.000155  -0.001952  -0.000052   0.000000  -0.000000   0.000000
    32  H   -0.000658   0.000052   0.000011  -0.000000   0.000000  -0.000000
    33  H    0.020612   0.000103   0.000076  -0.000000   0.000000   0.000000
              13         14         15         16         17         18
     1  Zr  -0.036853  -0.016627  -0.083205  -0.125691  -0.078056  -0.025464
     2  O    0.186196   0.263930   0.293271   0.004694  -0.040003  -0.014470
     3  O    0.001668  -0.017515  -0.000698  -0.000496   0.008106   0.003746
     4  O   -0.015657  -0.008760   0.001250   0.345095   0.218780   0.198162
     5  O   -0.000638   0.002000   0.000575   0.003227   0.001365  -0.000588
     6  Si   0.035933   0.028732  -0.000193  -0.423151  -0.455568  -0.451743
     7  Si   0.007354   0.008936  -0.002663   0.003851  -0.001179  -0.000717
     8  Si  -0.095364  -0.369853  -0.305431  -0.010239   0.096060   0.074519
     9  Si   0.000257  -0.001514  -0.000661  -0.001001   0.002473   0.004173
    10  O    0.000000  -0.000002  -0.000000   0.000004  -0.000002  -0.000003
    11  O    0.000019   0.000001  -0.000024  -0.000002   0.000002  -0.000000
    12  O    0.000008   0.000016  -0.000015  -0.000001  -0.000006  -0.000001
    13  O    8.628434   0.087124  -0.090636   0.003732  -0.030895  -0.045566
    14  O    0.087124   8.675293   0.055557   0.003687  -0.035991  -0.026870
    15  O   -0.090636   0.055557   8.777632  -0.000175   0.003598   0.001677
    16  O    0.003732   0.003687  -0.000175   8.902331  -0.091625  -0.115063
    17  O   -0.030895  -0.035991   0.003598  -0.091625   8.936189   0.227570
    18  O   -0.045566  -0.026870   0.001677  -0.115063   0.227570   9.013072
    19  O    0.000178  -0.000419   0.000141  -0.001547  -0.030118   0.000160
    20  O    0.000008  -0.000228   0.000039   0.000066  -0.000972   0.000014
    21  O   -0.000254   0.015955  -0.000615  -0.000215  -0.005559   0.000479
    22  H   -0.000000  -0.000000  -0.000000   0.000000   0.000000  -0.000000
    23  H    0.000000   0.000000  -0.000000  -0.000000   0.000000  -0.000000
    24  H   -0.000000   0.000000   0.000002   0.000000  -0.000000  -0.000000
    25  H    0.218354  -0.011972   0.008911  -0.000052   0.000635   0.014941
    26  H   -0.005110  -0.010084   0.216979   0.000000  -0.000003   0.000006
    27  H   -0.009728   0.219286   0.004633   0.000182   0.017956  -0.000255
    28  H   -0.000000  -0.000006  -0.000001  -0.000000   0.000004  -0.000000
    29  H    0.000798   0.017553  -0.002572  -0.000004  -0.000394   0.000006
    30  H    0.000001  -0.000000   0.000000   0.000115  -0.000402  -0.000007
    31  H    0.002364   0.000167  -0.000018   0.003783  -0.000754   0.218173
    32  H   -0.000008  -0.000006   0.000000   0.233429  -0.003641   0.003888
    33  H    0.000228   0.002081  -0.000035  -0.000095   0.231027   0.002102
              19         20         21         22         23         24
     1  Zr   0.001242  -0.146257   0.035740  -0.008713  -0.007796  -0.005199
     2  O    0.008984  -0.000573   0.010300  -0.000018  -0.000013  -0.000197
     3  O    0.264670   0.164746   0.145898  -0.000015  -0.000005  -0.000012
     4  O    0.010130  -0.000865   0.003391  -0.000009  -0.000055   0.000003
     5  O    0.002145   0.001524   0.000195   0.005860  -0.025301  -0.005458
     6  Si  -0.007313   0.009030  -0.011647   0.000083   0.000085   0.000073
     7  Si  -0.408680  -0.109968   0.024945  -0.000178   0.000061   0.000053
     8  Si  -0.015908   0.009641  -0.039882   0.000086   0.000063  -0.000093
     9  Si   0.001047   0.003121  -0.001760   0.046944   0.081418   0.036993
    10  O    0.000007   0.000002   0.000001  -0.006585   0.228494   0.007338
    11  O   -0.000002  -0.000003   0.000001  -0.005076  -0.006217   0.242774
    12  O   -0.000021  -0.000028   0.000023   0.219793   0.005896  -0.007462
    13  O    0.000178   0.000008  -0.000254  -0.000000   0.000000  -0.000000
    14  O   -0.000419  -0.000228   0.015955  -0.000000   0.000000   0.000000
    15  O    0.000141   0.000039  -0.000615  -0.000000  -0.000000   0.000002
    16  O   -0.001547   0.000066  -0.000215   0.000000  -0.000000   0.000000
    17  O   -0.030118  -0.000972  -0.005559   0.000000   0.000000  -0.000000
    18  O    0.000160   0.000014   0.000479  -0.000000  -0.000000  -0.000000
    19  O    8.872469   0.032245   0.023295  -0.000000   0.000000  -0.000000
    20  O    0.032245   8.657654  -0.050444   0.000000   0.000000  -0.000000
    21  O    0.023295  -0.050444   8.485313  -0.000000   0.000000   0.000000
    22  H   -0.000000   0.000000  -0.000000   0.361978   0.000058   0.000123
    23  H    0.000000   0.000000   0.000000   0.000058   0.350993   0.000014
    24  H   -0.000000  -0.000000   0.000000   0.000123   0.000014   0.365158
    25  H   -0.000024   0.000000  -0.000019   0.000000   0.000000   0.000000
    26  H    0.000001  -0.000000   0.000039  -0.000000  -0.000000  -0.000000
    27  H    0.000036   0.000192  -0.004016  -0.000000  -0.000000   0.000000
    28  H    0.004613   0.229581  -0.002074  -0.000000   0.000000  -0.000000
    29  H   -0.008571   0.007665   0.206451   0.000000   0.000000  -0.000000
    30  H    0.224226  -0.001481  -0.007139   0.000000   0.000000  -0.000000
    31  H    0.000004  -0.000000  -0.000000  -0.000000  -0.000000   0.000000
    32  H    0.000098  -0.000000   0.000001  -0.000000  -0.000000  -0.000000
    33  H    0.014875  -0.000084   0.001480  -0.000000  -0.000000  -0.000000
              25         26         27         28         29         30
     1  Zr   0.017107   0.007179   0.003727   0.005112   0.004199   0.000765
     2  O   -0.020014   0.000594  -0.019173  -0.000011  -0.007078  -0.000012
     3  O   -0.000111   0.000014   0.000833  -0.018441  -0.020294   0.000057
     4  O   -0.000287  -0.000011  -0.001727  -0.000014  -0.000141  -0.000453
     5  O    0.000018  -0.000004   0.000010  -0.000015  -0.000075  -0.000009
     6  Si   0.002506  -0.000137   0.009019  -0.000281   0.000151  -0.000663
     7  Si  -0.000466  -0.000378   0.001414   0.056657   0.048148   0.040221
     8  Si   0.057406   0.046228   0.068660  -0.000070   0.021921   0.000104
     9  Si  -0.000213  -0.000042  -0.000003  -0.000134  -0.000055   0.000023
    10  O    0.000000  -0.000000   0.000000  -0.000000   0.000000  -0.000000
    11  O   -0.000000   0.000000  -0.000000  -0.000000   0.000000   0.000000
    12  O   -0.000000  -0.000000  -0.000000  -0.000003  -0.000001   0.000000
    13  O    0.218354  -0.005110  -0.009728  -0.000000   0.000798   0.000001
    14  O   -0.011972  -0.010084   0.219286  -0.000006   0.017553  -0.000000
    15  O    0.008911   0.216979   0.004633  -0.000001  -0.002572   0.000000
    16  O   -0.000052   0.000000   0.000182  -0.000000  -0.000004   0.000115
    17  O    0.000635  -0.000003   0.017956   0.000004  -0.000394  -0.000402
    18  O    0.014941   0.000006  -0.000255  -0.000000   0.000006  -0.000007
    19  O   -0.000024   0.000001   0.000036   0.004613  -0.008571   0.224226
    20  O    0.000000  -0.000000   0.000192   0.229581   0.007665  -0.001481
    21  O   -0.000019   0.000039  -0.004016  -0.002074   0.206451  -0.007139
    22  H    0.000000  -0.000000  -0.000000  -0.000000   0.000000   0.000000
    23  H    0.000000  -0.000000  -0.000000   0.000000   0.000000   0.000000
    24  H    0.000000  -0.000000   0.000000  -0.000000  -0.000000  -0.000000
    25  H    0.298907  -0.000012   0.000115   0.000000   0.000001   0.000000
    26  H   -0.000012   0.365974   0.000036   0.000000   0.000021  -0.000000
    27  H    0.000115   0.000036   0.283296  -0.000000  -0.001493   0.000010
    28  H    0.000000   0.000000  -0.000000   0.349153  -0.000017  -0.000016
    29  H    0.000001   0.000021  -0.001493  -0.000017   0.285923   0.000155
    30  H    0.000000  -0.000000   0.000010  -0.000016   0.000155   0.334229
    31  H   -0.000498   0.000000   0.000013  -0.000000   0.000000  -0.000000
    32  H   -0.000001   0.000000  -0.000000   0.000000  -0.000000  -0.000000
    33  H    0.000006  -0.000000  -0.002413  -0.000002   0.000099  -0.001162
              31         32         33
     1  Zr  -0.000197   0.002101  -0.015947
     2  O    0.000177  -0.000024   0.001015
     3  O   -0.000019   0.000040  -0.010108
     4  O   -0.018448   0.010411  -0.009540
     5  O   -0.000009   0.000001  -0.000103
     6  Si   0.063757   0.022821   0.053156
     7  Si   0.000155  -0.000658   0.020612
     8  Si  -0.001952   0.000052   0.000103
     9  Si  -0.000052   0.000011   0.000076
    10  O    0.000000  -0.000000  -0.000000
    11  O   -0.000000   0.000000   0.000000
    12  O    0.000000  -0.000000   0.000000
    13  O    0.002364  -0.000008   0.000228
    14  O    0.000167  -0.000006   0.002081
    15  O   -0.000018   0.000000  -0.000035
    16  O    0.003783   0.233429  -0.000095
    17  O   -0.000754  -0.003641   0.231027
    18  O    0.218173   0.003888   0.002102
    19  O    0.000004   0.000098   0.014875
    20  O   -0.000000  -0.000000  -0.000084
    21  O   -0.000000   0.000001   0.001480
    22  H   -0.000000  -0.000000  -0.000000
    23  H   -0.000000  -0.000000  -0.000000
    24  H    0.000000  -0.000000  -0.000000
    25  H   -0.000498  -0.000001   0.000006
    26  H    0.000000   0.000000  -0.000000
    27  H    0.000013  -0.000000  -0.002413
    28  H   -0.000000   0.000000  -0.000002
    29  H    0.000000  -0.000000   0.000099
    30  H   -0.000000  -0.000000  -0.001162
    31  H    0.331411   0.000001  -0.000038
    32  H    0.000001   0.349958   0.000156
    33  H   -0.000038   0.000156   0.269157
 Mulliken charges:
               1
     1  Zr   0.005693
     2  O   -0.549242
     3  O   -0.418517
     4  O   -0.681452
     5  O   -0.369205
     6  Si   2.231087
     7  Si   1.786973
     8  Si   2.016897
     9  Si   1.598325
    10  O   -0.842867
    11  O   -0.787642
    12  O   -0.790910
    13  O   -0.841947
    14  O   -0.880470
    15  O   -0.877322
    16  O   -0.734840
    17  O   -0.968598
    18  O   -1.081940
    19  O   -0.987961
    20  O   -0.804624
    21  O   -0.829882
    22  H    0.385670
    23  H    0.372307
    24  H    0.365891
    25  H    0.414763
    26  H    0.378710
    27  H    0.429391
    28  H    0.375965
    29  H    0.447604
    30  H    0.411438
    31  H    0.401983
    32  H    0.381369
    33  H    0.443353
 Sum of Mulliken charges =  -0.00000
 Mulliken charges with hydrogens summed into heavy atoms:
               1
     1  Zr   0.005693
     2  O   -0.549242
     3  O   -0.418517
     4  O   -0.681452
     5  O   -0.369205
     6  Si   2.231087
     7  Si   1.786973
     8  Si   2.016897
     9  Si   1.598325
    10  O   -0.470560
    11  O   -0.421752
    12  O   -0.405239
    13  O   -0.427184
    14  O   -0.451078
    15  O   -0.498613
    16  O   -0.353470
    17  O   -0.525244
    18  O   -0.679957
    19  O   -0.576523
    20  O   -0.428659
    21  O   -0.382279
 Electronic spatial extent (au):  <R**2>=           9873.9104
 Charge=             -0.0000 electrons
 Dipole moment (field-independent basis, Debye):
    X=              1.0697    Y=             -0.7874    Z=             -2.4097  Tot=              2.7516
 Quadrupole moment (field-independent basis, Debye-Ang):
   XX=           -160.2051   YY=           -154.7306   ZZ=           -157.8004
   XY=             -5.0063   XZ=              2.2053   YZ=              5.7131
 Traceless Quadrupole moment (field-independent basis, Debye-Ang):
   XX=             -2.6264   YY=              2.8481   ZZ=             -0.2217
   XY=             -5.0063   XZ=              2.2053   YZ=              5.7131
 Octapole moment (field-independent basis, Debye-Ang**2):
  XXX=             74.2207  YYY=              6.6472  ZZZ=            -18.5546  XYY=             -2.2571
  XXY=             20.4734  XXZ=             19.1060  XZZ=              5.2758  YZZ=            -17.1762
  YYZ=            -15.5729  XYZ=             28.2802
 Hexadecapole moment (field-independent basis, Debye-Ang**3):
 XXXX=          -6029.4563 YYYY=          -2837.1609 ZZZZ=          -2261.9851 XXXY=             57.3827
 XXXZ=            -21.2277 YYYX=              3.2491 YYYZ=            219.3469 ZZZX=           -183.4645
 ZZZY=            -56.0249 XXYY=          -1485.5965 XXZZ=          -1363.3880 YYZZ=           -925.0330
 XXYZ=             -8.8949 YYXZ=            127.5699 ZZXY=            -60.5326
 N-N= 2.832555101542D+03 E-N=-1.137770625795D+04  KE= 2.373155331810D+03
 1\1\GINC-GRA369\FOpt\RB3LYP\Gen\H12O16Si4Zr1\SARASHS\12-Aug-2020\0\\#n
  B3LYP/Gen Pseudo=cards EmpiricalDispersion=GD3 Opt=modredundant\\Titl
 e\\0,1\Zr,0.6578333741,-0.1256032263,-0.07147856\O,-0.2229568238,-0.90
 66675101,1.4774194068\O,0.1033844862,1.7471583949,-0.122799851\O,-0.26
 82693698,-0.9793998965,-1.5968623894\O,2.5919116531,-0.4361617022,-0.0
 827933586\Si,-1.8313051401,-1.3324022143,-1.9535291891\Si,-1.115092787
 3,2.8413932697,-0.0826726839\Si,-1.7240126933,-1.1530649276,2.11510159
 99\Si,4.2183668506,-0.280414843,0.007739509\O,4.9548927932,-0.12815187
 93,-1.4619565426\O,4.8865153318,-1.6350067916,0.690415317\O,4.46991275
 15,1.1065993546,0.8647734104\O,-2.3195824957,-2.6241569711,1.696392017
 2\O,-2.7241085247,0.0649780964,1.5502865271\O,-1.5977944545,-1.0193669
 843,3.7442829732\O,-2.0015613339,-1.5594986934,-3.5777564386\O,-2.8247
 809043,-0.1864623351,-1.3012765183\O,-2.3450258823,-2.7142824098,-1.18
 28508007\O,-2.0397265747,2.4394258775,-1.4303849598\O,-0.6352308667,4.
 4002234781,-0.2993241458\O,-1.9655041224,2.760315784,1.3137230793\H,5.
 3618204263,1.4709836147,0.8506989235\H,5.2919254663,-0.9438817536,-1.8
 494062617\H,4.4499202008,-2.0001871553,1.4680380371\H,-2.4059258984,-2
 .8098430181,0.7440499576\H,-2.3818901023,-1.2236549434,4.265289417\H,-
 3.0600686691,-0.0832782977,0.6452794752\H,-0.5271556527,4.9269189865,0
 .500791781\H,-2.2691007159,1.8687697384,1.5851246149\H,-2.6478012824,3
 .1265989791,-1.7303420491\H,-2.3051170496,-3.5293895736,-1.6957573865\
 H,-1.2712418164,-1.2629914831,-4.1321806188\H,-2.6097401734,0.75491103
 55,-1.4895342925\\Version=ES64L-G16RevB.01\State=1-A\HF=-2416.9468555\
 RMSD=4.088e-09\RMSF=1.269e-05\Dipole=0.4179696,-0.311592,-0.9487555\Qu
 adrupole=-1.9908949,2.1543372,-0.1634423,-3.6947169,1.6635392,4.244013
 4\PG=C01 [X(H12O16Si4Zr1)]\\@


 "WHERE SHALL I START, PLEASE YOUR MAJESTY?" HE ASKED.
 "BEGIN AT THE BEGINNING," THE KING SAID GRAVELY,
 "AND GO ON TILL YOU COME TO THE END: THEN STOP." 

                                      -- LEWIS CARROLL
 Job cpu time:       0 days  9 hours 19 minutes 13.5 seconds.
 Elapsed time:       0 days  0 hours 41 minutes 57.8 seconds.
 File lengths (MBytes):  RWF=    167 Int=      0 D2E=      0 Chk=     21 Scr=      1
 Normal termination of Gaussian 16 at Wed Aug 12 20:25:02 2020.
