 Entering Gaussian System, Link 0=g16
 Initial command:
 /opt/software/gaussian/g16.b01/l1.exe "/localscratch/sarashs.36760148.0/Gau-55570.inp" -scrdir="/localscratch/sarashs.36760148.0/"
 Entering Link 1 = /opt/software/gaussian/g16.b01/l1.exe PID=     55571.
  
 Copyright (c) 1988-2017, Gaussian, Inc.  All Rights Reserved.
  
 This is part of the Gaussian(R) 16 program.  It is based on
 the Gaussian(R) 09 system (copyright 2009, Gaussian, Inc.),
 the Gaussian(R) 03 system (copyright 2003, Gaussian, Inc.),
 the Gaussian(R) 98 system (copyright 1998, Gaussian, Inc.),
 the Gaussian(R) 94 system (copyright 1995, Gaussian, Inc.),
 the Gaussian 92(TM) system (copyright 1992, Gaussian, Inc.),
 the Gaussian 90(TM) system (copyright 1990, Gaussian, Inc.),
 the Gaussian 88(TM) system (copyright 1988, Gaussian, Inc.),
 the Gaussian 86(TM) system (copyright 1986, Carnegie Mellon
 University), and the Gaussian 82(TM) system (copyright 1983,
 Carnegie Mellon University). Gaussian is a federally registered
 trademark of Gaussian, Inc.
  
 This software contains proprietary and confidential information,
 including trade secrets, belonging to Gaussian, Inc.
  
 This software is provided under written license and may be
 used, copied, transmitted, or stored only in accord with that
 written license.
  
 The following legend is applicable only to US Government
 contracts under FAR:
  
                    RESTRICTED RIGHTS LEGEND
  
 Use, reproduction and disclosure by the US Government is
 subject to restrictions as set forth in subparagraphs (a)
 and (c) of the Commercial Computer Software - Restricted
 Rights clause in FAR 52.227-19.
  
 Gaussian, Inc.
 340 Quinnipiac St., Bldg. 40, Wallingford CT 06492
  
  
 ---------------------------------------------------------------
 Warning -- This program may not be used in any manner that
 competes with the business of Gaussian, Inc. or will provide
 assistance to any competitor of Gaussian, Inc.  The licensee
 of this program is prohibited from giving any competitor of
 Gaussian, Inc. access to this program.  By using this program,
 the user acknowledges that Gaussian, Inc. is engaged in the
 business of creating and licensing software in the field of
 computational chemistry and represents and warrants to the
 licensee that it is not a competitor of Gaussian, Inc. and that
 it will not use this program in any manner prohibited above.
 ---------------------------------------------------------------
  

 Cite this work as:
 Gaussian 16, Revision B.01,
 M. J. Frisch, G. W. Trucks, H. B. Schlegel, G. E. Scuseria, 
 M. A. Robb, J. R. Cheeseman, G. Scalmani, V. Barone, 
 G. A. Petersson, H. Nakatsuji, X. Li, M. Caricato, A. V. Marenich, 
 J. Bloino, B. G. Janesko, R. Gomperts, B. Mennucci, H. P. Hratchian, 
 J. V. Ortiz, A. F. Izmaylov, J. L. Sonnenberg, D. Williams-Young, 
 F. Ding, F. Lipparini, F. Egidi, J. Goings, B. Peng, A. Petrone, 
 T. Henderson, D. Ranasinghe, V. G. Zakrzewski, J. Gao, N. Rega, 
 G. Zheng, W. Liang, M. Hada, M. Ehara, K. Toyota, R. Fukuda, 
 J. Hasegawa, M. Ishida, T. Nakajima, Y. Honda, O. Kitao, H. Nakai, 
 T. Vreven, K. Throssell, J. A. Montgomery, Jr., J. E. Peralta, 
 F. Ogliaro, M. J. Bearpark, J. J. Heyd, E. N. Brothers, K. N. Kudin, 
 V. N. Staroverov, T. A. Keith, R. Kobayashi, J. Normand, 
 K. Raghavachari, A. P. Rendell, J. C. Burant, S. S. Iyengar, 
 J. Tomasi, M. Cossi, J. M. Millam, M. Klene, C. Adamo, R. Cammi, 
 J. W. Ochterski, R. L. Martin, K. Morokuma, O. Farkas, 
 J. B. Foresman, and D. J. Fox, Gaussian, Inc., Wallingford CT, 2016.
 
 ******************************************
 Gaussian 16:  ES64L-G16RevB.01 20-Dec-2017
                 2-Aug-2020 
 ******************************************
 %NProcShared=16
 Will use up to   16 processors via shared memory.
 ------------------------------------------------------------------
 #n B3LYP/Gen Pseudo=cards EmpiricalDispersion=GD3 Opt=modredundant
 ------------------------------------------------------------------
 1/18=120,19=15,26=3,38=1/1,3;
 2/9=110,12=2,17=6,18=5,40=1/2;
 3/5=7,11=2,16=1,17=8,25=1,30=1,71=1,74=-5,124=31/1,2,3;
 4//1;
 5/5=2,38=5/2;
 6/7=2,8=2,9=2,10=2,28=1/1;
 7//1,2,3,16;
 1/18=20,19=15,26=3/3(2);
 2/9=110/2;
 99//99;
 2/9=110/2;
 3/5=7,6=1,11=2,16=1,17=8,25=1,30=1,71=1,74=-5,82=7,124=31/1,2,3;
 4/5=5,16=3,69=1/1;
 5/5=2,38=5/2;
 7//1,2,3,16;
 1/18=20,19=15,26=3/3(-5);
 2/9=110/2;
 6/7=2,8=2,9=2,10=2,19=2,28=1/1;
 99/9=1/99;
 -----
 Title
 -----
 Symbolic Z-matrix:
 Charge =  0 Multiplicity = 1
 Zr                    0.64646  -0.19013  -0.1519 
 O                    -0.19212  -0.93131   1.43939 
 O                     0.17263   1.70395  -0.1904 
 O                    -0.37772  -1.01692  -1.62844 
 O                     2.5678   -0.57883  -0.26812 
 Si                   -1.96924  -1.33216  -1.87829 
 Si                   -0.98958   2.85681  -0.11809 
 Si                   -1.67476  -1.05152   2.17706 
 Si                    4.20218  -0.60984  -0.19136 
 O                     4.95139   0.06873  -1.49583 
 O                     4.74424  -2.17517  -0.14016 
 O                     4.57797   0.28566   1.14417 
 O                    -2.33574  -2.51245   1.83004 
 O                    -2.6209    0.20928   1.64149 
 O                    -1.552    -0.82432   3.7965 
 O                    -2.25427  -1.59164  -3.48183 
 O                    -2.88371  -0.13912  -1.19557 
 O                    -2.46027  -2.68598  -1.04579 
 O                    -2.00825   2.45605  -1.3967 
 O                    -0.44623   4.38142  -0.41555 
 O                    -1.75835   2.86715   1.32642 
 H                     5.495     0.56672   1.23738 
 H                     5.20639  -0.53783  -2.20017 
 H                     4.26286  -2.79112   0.42296 
 H                    -2.40738  -2.74575   0.88712 
 H                    -0.93391  -1.38513   4.27638 
 H                    -3.02928   0.04705   0.77024 
 H                    -0.29029   4.93346   0.35924 
 H                    -2.09489   2.00321   1.64266 
 H                    -2.6086    3.15807  -1.6773 
 H                    -2.56602  -3.49143  -1.56436 
 H                    -1.55278  -1.33714  -4.09141 
 H                    -2.64046   0.78995  -1.40829 
 
 The following ModRedundant input section has been read:
 A       1       5       9 F                                                   
 

 GradGradGradGradGradGradGradGradGradGradGradGradGradGradGradGradGradGrad
 Berny optimization.
 Initialization pass.
                           ----------------------------
                           !    Initial Parameters    !
                           ! (Angstroms and Degrees)  !
 --------------------------                            --------------------------
 ! Name  Definition              Value          Derivative Info.                !
 --------------------------------------------------------------------------------
 ! R1    R(1,2)                  1.9454         estimate D2E/DX2                !
 ! R2    R(1,3)                  1.9528         estimate D2E/DX2                !
 ! R3    R(1,4)                  1.9781         estimate D2E/DX2                !
 ! R4    R(1,5)                  1.9637         estimate D2E/DX2                !
 ! R5    R(2,8)                  1.6604         estimate D2E/DX2                !
 ! R6    R(3,7)                  1.6386         estimate D2E/DX2                !
 ! R7    R(4,6)                  1.6416         estimate D2E/DX2                !
 ! R8    R(5,9)                  1.6365         estimate D2E/DX2                !
 ! R9    R(6,16)                 1.6492         estimate D2E/DX2                !
 ! R10   R(6,17)                 1.651          estimate D2E/DX2                !
 ! R11   R(6,18)                 1.6634         estimate D2E/DX2                !
 ! R12   R(7,19)                 1.6832         estimate D2E/DX2                !
 ! R13   R(7,20)                 1.6456         estimate D2E/DX2                !
 ! R14   R(7,21)                 1.6364         estimate D2E/DX2                !
 ! R15   R(8,13)                 1.6406         estimate D2E/DX2                !
 ! R16   R(8,14)                 1.6648         estimate D2E/DX2                !
 ! R17   R(8,15)                 1.6399         estimate D2E/DX2                !
 ! R18   R(9,10)                 1.6503         estimate D2E/DX2                !
 ! R19   R(9,11)                 1.6573         estimate D2E/DX2                !
 ! R20   R(9,12)                 1.6513         estimate D2E/DX2                !
 ! R21   R(10,23)                0.9639         estimate D2E/DX2                !
 ! R22   R(11,24)                0.9634         estimate D2E/DX2                !
 ! R23   R(12,22)                0.9637         estimate D2E/DX2                !
 ! R24   R(13,25)                0.974          estimate D2E/DX2                !
 ! R25   R(14,27)                0.9758         estimate D2E/DX2                !
 ! R26   R(15,26)                0.9627         estimate D2E/DX2                !
 ! R27   R(16,32)                0.9636         estimate D2E/DX2                !
 ! R28   R(17,33)                0.9837         estimate D2E/DX2                !
 ! R29   R(18,31)                0.9638         estimate D2E/DX2                !
 ! R30   R(19,30)                0.9654         estimate D2E/DX2                !
 ! R31   R(20,28)                0.964          estimate D2E/DX2                !
 ! R32   R(21,29)                0.9796         estimate D2E/DX2                !
 ! A1    A(2,1,3)              106.3234         estimate D2E/DX2                !
 ! A2    A(2,1,4)              103.1879         estimate D2E/DX2                !
 ! A3    A(2,1,5)              113.2501         estimate D2E/DX2                !
 ! A4    A(3,1,4)              105.3705         estimate D2E/DX2                !
 ! A5    A(3,1,5)              115.3549         estimate D2E/DX2                !
 ! A6    A(4,1,5)              112.3142         estimate D2E/DX2                !
 ! A7    A(1,2,8)              140.8859         estimate D2E/DX2                !
 ! A8    A(1,3,7)              148.6074         estimate D2E/DX2                !
 ! A9    A(1,4,6)              134.0964         estimate D2E/DX2                !
 ! A10   A(1,5,9)              167.9999         Frozen                          !
 ! A11   A(4,6,16)             110.2282         estimate D2E/DX2                !
 ! A12   A(4,6,17)             109.5909         estimate D2E/DX2                !
 ! A13   A(4,6,18)             111.4884         estimate D2E/DX2                !
 ! A14   A(16,6,17)            114.8371         estimate D2E/DX2                !
 ! A15   A(16,6,18)            107.9112         estimate D2E/DX2                !
 ! A16   A(17,6,18)            102.5719         estimate D2E/DX2                !
 ! A17   A(3,7,19)             103.1918         estimate D2E/DX2                !
 ! A18   A(3,7,20)             114.1832         estimate D2E/DX2                !
 ! A19   A(3,7,21)             112.1241         estimate D2E/DX2                !
 ! A20   A(19,7,20)            106.4451         estimate D2E/DX2                !
 ! A21   A(19,7,21)            112.8144         estimate D2E/DX2                !
 ! A22   A(20,7,21)            107.9884         estimate D2E/DX2                !
 ! A23   A(2,8,13)             109.2843         estimate D2E/DX2                !
 ! A24   A(2,8,14)             108.0427         estimate D2E/DX2                !
 ! A25   A(2,8,15)             111.2146         estimate D2E/DX2                !
 ! A26   A(13,8,14)            112.1704         estimate D2E/DX2                !
 ! A27   A(13,8,15)            111.2482         estimate D2E/DX2                !
 ! A28   A(14,8,15)            104.7916         estimate D2E/DX2                !
 ! A29   A(5,9,10)             114.1132         estimate D2E/DX2                !
 ! A30   A(5,9,11)             110.2427         estimate D2E/DX2                !
 ! A31   A(5,9,12)             104.7701         estimate D2E/DX2                !
 ! A32   A(10,9,11)            105.3251         estimate D2E/DX2                !
 ! A33   A(10,9,12)            108.2401         estimate D2E/DX2                !
 ! A34   A(11,9,12)            114.3798         estimate D2E/DX2                !
 ! A35   A(9,10,23)            116.0382         estimate D2E/DX2                !
 ! A36   A(9,11,24)            117.2886         estimate D2E/DX2                !
 ! A37   A(9,12,22)            116.9338         estimate D2E/DX2                !
 ! A38   A(8,13,25)            116.5961         estimate D2E/DX2                !
 ! A39   A(8,14,27)            113.5263         estimate D2E/DX2                !
 ! A40   A(8,15,26)            117.3612         estimate D2E/DX2                !
 ! A41   A(6,16,32)            116.5984         estimate D2E/DX2                !
 ! A42   A(6,17,33)            117.1373         estimate D2E/DX2                !
 ! A43   A(6,18,31)            116.3135         estimate D2E/DX2                !
 ! A44   A(7,19,30)            115.0881         estimate D2E/DX2                !
 ! A45   A(7,20,28)            116.018          estimate D2E/DX2                !
 ! A46   A(7,21,29)            116.1544         estimate D2E/DX2                !
 ! D1    D(3,1,2,8)             54.013          estimate D2E/DX2                !
 ! D2    D(4,1,2,8)            -56.615          estimate D2E/DX2                !
 ! D3    D(5,1,2,8)           -178.2908         estimate D2E/DX2                !
 ! D4    D(2,1,3,7)            -51.1331         estimate D2E/DX2                !
 ! D5    D(4,1,3,7)             57.9568         estimate D2E/DX2                !
 ! D6    D(5,1,3,7)           -177.5709         estimate D2E/DX2                !
 ! D7    D(2,1,4,6)             41.2968         estimate D2E/DX2                !
 ! D8    D(3,1,4,6)            -70.0365         estimate D2E/DX2                !
 ! D9    D(5,1,4,6)            163.602          estimate D2E/DX2                !
 ! D10   D(2,1,9,10)          -177.3693         estimate D2E/DX2                !
 ! D11   D(2,1,9,11)            59.9348         estimate D2E/DX2                !
 ! D12   D(2,1,9,12)           -62.6845         estimate D2E/DX2                !
 ! D13   D(3,1,9,10)           -58.1284         estimate D2E/DX2                !
 ! D14   D(3,1,9,11)           179.1757         estimate D2E/DX2                !
 ! D15   D(3,1,9,12)            56.5564         estimate D2E/DX2                !
 ! D16   D(4,1,9,10)            62.7616         estimate D2E/DX2                !
 ! D17   D(4,1,9,11)           -59.9343         estimate D2E/DX2                !
 ! D18   D(4,1,9,12)           177.4464         estimate D2E/DX2                !
 ! D19   D(1,2,8,13)            98.0767         estimate D2E/DX2                !
 ! D20   D(1,2,8,14)           -24.2296         estimate D2E/DX2                !
 ! D21   D(1,2,8,15)          -138.7156         estimate D2E/DX2                !
 ! D22   D(1,3,7,19)           -58.6416         estimate D2E/DX2                !
 ! D23   D(1,3,7,20)          -173.7291         estimate D2E/DX2                !
 ! D24   D(1,3,7,21)            63.0404         estimate D2E/DX2                !
 ! D25   D(1,4,6,16)           161.8736         estimate D2E/DX2                !
 ! D26   D(1,4,6,17)            34.551          estimate D2E/DX2                !
 ! D27   D(1,4,6,18)           -78.3045         estimate D2E/DX2                !
 ! D28   D(4,6,16,32)          -13.7229         estimate D2E/DX2                !
 ! D29   D(17,6,16,32)         110.6319         estimate D2E/DX2                !
 ! D30   D(18,6,16,32)        -135.686          estimate D2E/DX2                !
 ! D31   D(4,6,17,33)           49.7998         estimate D2E/DX2                !
 ! D32   D(16,6,17,33)         -74.8906         estimate D2E/DX2                !
 ! D33   D(18,6,17,33)         168.3378         estimate D2E/DX2                !
 ! D34   D(4,6,18,31)         -102.9126         estimate D2E/DX2                !
 ! D35   D(16,6,18,31)          18.2691         estimate D2E/DX2                !
 ! D36   D(17,6,18,31)         139.8941         estimate D2E/DX2                !
 ! D37   D(3,7,19,30)         -162.9704         estimate D2E/DX2                !
 ! D38   D(20,7,19,30)         -42.4468         estimate D2E/DX2                !
 ! D39   D(21,7,19,30)          75.8144         estimate D2E/DX2                !
 ! D40   D(3,7,20,28)         -100.1112         estimate D2E/DX2                !
 ! D41   D(19,7,20,28)         146.7232         estimate D2E/DX2                !
 ! D42   D(21,7,20,28)          25.3303         estimate D2E/DX2                !
 ! D43   D(3,7,21,29)          -50.5298         estimate D2E/DX2                !
 ! D44   D(19,7,21,29)          65.4642         estimate D2E/DX2                !
 ! D45   D(20,7,21,29)        -177.1813         estimate D2E/DX2                !
 ! D46   D(2,8,13,25)          -54.0971         estimate D2E/DX2                !
 ! D47   D(14,8,13,25)          65.6987         estimate D2E/DX2                !
 ! D48   D(15,8,13,25)        -177.2849         estimate D2E/DX2                !
 ! D49   D(2,8,14,27)           81.1206         estimate D2E/DX2                !
 ! D50   D(13,8,14,27)         -39.3971         estimate D2E/DX2                !
 ! D51   D(15,8,14,27)        -160.2179         estimate D2E/DX2                !
 ! D52   D(2,8,15,26)          -54.9076         estimate D2E/DX2                !
 ! D53   D(13,8,15,26)          67.168          estimate D2E/DX2                !
 ! D54   D(14,8,15,26)        -171.403          estimate D2E/DX2                !
 ! D55   D(5,9,10,23)          -94.3731         estimate D2E/DX2                !
 ! D56   D(11,9,10,23)          26.672          estimate D2E/DX2                !
 ! D57   D(12,9,10,23)         149.4209         estimate D2E/DX2                !
 ! D58   D(5,9,11,24)          -42.1581         estimate D2E/DX2                !
 ! D59   D(10,9,11,24)        -165.7001         estimate D2E/DX2                !
 ! D60   D(12,9,11,24)          75.5815         estimate D2E/DX2                !
 ! D61   D(5,9,12,22)         -165.3205         estimate D2E/DX2                !
 ! D62   D(10,9,12,22)         -43.1972         estimate D2E/DX2                !
 ! D63   D(11,9,12,22)          73.8598         estimate D2E/DX2                !
 --------------------------------------------------------------------------------
 Trust Radius=3.00D-01 FncErr=1.00D-07 GrdErr=1.00D-06 EigMax=2.50D+02 EigMin=1.00D-04
 Number of steps in this run=    151 maximum allowed number of steps=    198.
 GradGradGradGradGradGradGradGradGradGradGradGradGradGradGradGradGradGrad

                          Input orientation:                          
 ---------------------------------------------------------------------
 Center     Atomic      Atomic             Coordinates (Angstroms)
 Number     Number       Type             X           Y           Z
 ---------------------------------------------------------------------
      1         40           0        0.646460   -0.190130   -0.151900
      2          8           0       -0.192120   -0.931310    1.439390
      3          8           0        0.172630    1.703950   -0.190400
      4          8           0       -0.377720   -1.016920   -1.628440
      5          8           0        2.567800   -0.578830   -0.268120
      6         14           0       -1.969240   -1.332160   -1.878290
      7         14           0       -0.989580    2.856810   -0.118090
      8         14           0       -1.674760   -1.051520    2.177060
      9         14           0        4.202180   -0.609840   -0.191360
     10          8           0        4.951390    0.068730   -1.495830
     11          8           0        4.744240   -2.175170   -0.140160
     12          8           0        4.577970    0.285660    1.144170
     13          8           0       -2.335740   -2.512450    1.830040
     14          8           0       -2.620900    0.209280    1.641490
     15          8           0       -1.552000   -0.824320    3.796500
     16          8           0       -2.254270   -1.591640   -3.481830
     17          8           0       -2.883710   -0.139120   -1.195570
     18          8           0       -2.460270   -2.685980   -1.045790
     19          8           0       -2.008250    2.456050   -1.396700
     20          8           0       -0.446230    4.381420   -0.415550
     21          8           0       -1.758350    2.867150    1.326420
     22          1           0        5.495000    0.566720    1.237380
     23          1           0        5.206390   -0.537830   -2.200170
     24          1           0        4.262860   -2.791120    0.422960
     25          1           0       -2.407380   -2.745750    0.887120
     26          1           0       -0.933910   -1.385130    4.276380
     27          1           0       -3.029280    0.047050    0.770240
     28          1           0       -0.290290    4.933460    0.359240
     29          1           0       -2.094890    2.003210    1.642660
     30          1           0       -2.608600    3.158070   -1.677300
     31          1           0       -2.566020   -3.491430   -1.564360
     32          1           0       -1.552780   -1.337140   -4.091410
     33          1           0       -2.640460    0.789950   -1.408290
 ---------------------------------------------------------------------
                    Distance matrix (angstroms):
                    1          2          3          4          5
     1  Zr   0.000000
     2  O    1.945448   0.000000
     3  O    1.952828   3.119912   0.000000
     4  O    1.978054   3.074631   3.126336   0.000000
     5  O    1.963706   3.264505   3.309677   3.273909   0.000000
     6  Si   3.335647   3.784949   4.080998   1.641565   4.872872
     7  Si   3.458557   4.172714   1.638611   4.202537   4.947836
     8  Si   3.399134   1.660370   4.075577   4.020614   4.919518
     9  Si   3.580623   4.698144   4.646601   4.817302   1.636475
    10  O    4.517253   6.005938   5.216765   5.440187   2.758280
    11  O    4.553276   5.330086   5.995808   5.458113   2.702141
    12  O    4.166887   4.931727   4.816601   5.826057   2.604360
    13  O    4.267877   2.692159   5.305858   4.246356   5.673259
    14  O    3.748522   2.690866   3.659736   4.150646   5.584831
    15  O    4.563473   2.723360   5.026119   5.553918   5.792595
    16  O    4.633238   5.376514   5.252073   2.699407   5.882693
    17  O    3.681569   3.849056   3.707895   2.690334   5.547294
    18  O    4.084125   3.794666   5.189927   2.731713   5.506936
    19  O    3.949592   4.776604   2.603277   3.843677   5.605749
    20  O    4.707712   5.632981   2.757268   5.533342   5.806048
    21  O    4.161190   4.110248   2.717068   5.071818   5.756119
    22  H    5.100124   5.884576   5.626675   6.723814   3.485300
    23  H    5.010915   6.522663   5.865449   5.633710   3.270574
    24  H    4.491543   4.933444   6.108342   5.375036   2.871419
    25  H    4.115422   2.916260   5.255219   3.665572   5.548201
    26  H    4.851315   2.967274   5.542470   5.942375   5.793494
    27  H    3.797060   3.074805   3.731002   3.730478   5.726886
    28  H    5.233540   5.964217   3.308494   6.274196   6.240801
    29  H    3.942865   3.503321   2.931094   4.771787   5.662039
    30  H    4.912505   5.681211   3.472834   4.733894   6.537991
    31  H    4.818055   4.605663   6.031579   3.303931   6.043144
    32  H    4.655322   5.710153   5.238621   2.747640   5.672016
    33  H    3.652796   4.131148   3.198770   2.904004   5.504500
                    6          7          8          9         10
     6  Si   0.000000
     7  Si   4.648172   0.000000
     8  Si   4.075701   4.583910   0.000000
     9  Si   6.438471   6.243188   6.351608   0.000000
    10  O    7.071343   6.705720   7.658390   1.650277   0.000000
    11  O    6.985884   7.628761   6.916333   1.657320   2.629798
    12  O    7.390437   6.261128   6.477001   1.651296   2.675089
    13  O    3.908851   5.868246   1.640620   7.102843   8.415828
    14  O    3.897377   3.573058   1.664822   7.112293   8.197689
    15  O    5.712725   5.402874   1.639901   7.004257   8.432104
    16  O    1.649216   5.718645   5.714070   7.312788   7.656537
    17  O    1.650971   3.704631   3.697116   7.172158   7.843606
    18  O    1.663429   5.809137   3.698006   7.030551   7.919827
    19  O    3.818898   1.683194   5.018568   7.030076   7.358377
    20  O    6.091319   1.645645   6.143920   6.824269   6.992897
    21  O    5.286667   1.636375   4.010804   7.065482   7.798517
    22  H    8.308311   7.009393   7.409936   2.257648   2.830891
    23  H    7.226634   7.365370   8.171551   2.246985   0.963865
    24  H    6.801719   7.731751   6.431050   2.266948   3.512061
    25  H    3.136510   5.865943   2.251909   7.029332   8.231114
    26  H    6.241368   6.108070   2.251066   6.851365   8.370715
    27  H    3.168693   3.583889   2.240697   7.324629   8.296182
    28  H    6.861735   2.242616   6.406342   7.156369   7.387969
    29  H    4.851553   2.247350   3.129452   7.060081   7.952509
    30  H    4.539972   2.267845   5.783493   7.924133   8.168868
    31  H    2.262111   6.699031   4.554748   7.483129   8.318106
    32  H    2.251969   5.804626   6.276159   6.989916   7.142670
    33  H    2.274816   2.943116   4.144674   7.089574   7.626533
                   11         12         13         14         15
    11  O    0.000000
    12  O    2.780797   0.000000
    13  O    7.356736   7.489941   0.000000
    14  O    7.943876   7.216432   2.743115   0.000000
    15  O    7.547498   6.770779   2.707581   2.618195   0.000000
    16  O    7.777301   8.461893   5.391706   5.442990   7.352282
    17  O    7.965238   7.831442   3.884235   2.870429   5.211882
    18  O    7.279152   7.947540   2.883751   3.953455   5.266736
    19  O    8.283913   7.385452   5.933388   3.828043   6.159409
    20  O    8.366940   6.667125   7.492554   5.134915   6.787033
    21  O    8.358201   6.844433   5.433885   2.812034   4.446440
    22  H    3.158990   0.963653   8.435225   8.133812   7.625241
    23  H    2.671723   3.501094   8.776414   8.751171   9.039799
    24  H    0.963444   3.175848   6.752707   7.607455   7.004404
    25  H    7.247519   7.619097   0.973991   3.057265   3.589994
    26  H    7.236807   6.556150   3.036537   3.511513   0.962719
    27  H    8.136013   7.620171   2.855734   0.975792   3.478490
    28  H    8.725166   6.776291   7.860578   5.421604   6.823394
    29  H    8.210421   6.908367   4.525959   1.869458   3.595648
    30  H    9.212519   8.237610   6.673131   4.439581   6.851155
    31  H    7.563120   8.522860   3.540252   4.896503   6.072934
    32  H    7.481118   8.223799   6.087524   6.033112   7.904563
    33  H    8.058156   7.673011   4.635243   3.104629   5.557018
                   16         17         18         19         20
    16  O    0.000000
    17  O    2.780826   0.000000
    18  O    2.678490   2.586162   0.000000
    19  O    4.559834   2.746232   5.173774   0.000000
    20  O    6.953311   5.194711   7.375751   2.666385   0.000000
    21  O    6.576170   4.082221   6.079254   2.765291   2.655020
    22  H    9.326342   8.753299   8.892651   8.173537   7.251367
    23  H    7.642945   8.161979   8.045174   7.852383   7.702987
    24  H    7.691497   7.792702   6.882496   8.376800   8.621134
    25  H    4.521409   3.370313   1.934557   5.695073   7.505972
    26  H    7.872472   5.941086   5.687484   6.934891   7.450177
    27  H    4.622342   1.979964   3.330344   3.397265   5.183147
    28  H    7.822274   5.905449   8.046042   3.488878   0.964036
    29  H    6.261689   3.642439   5.417543   3.074131   3.551083
    30  H    5.093292   3.343533   5.879943   0.965396   2.786475
    31  H    2.717183   3.387464   0.963767   5.975930   8.233774
    32  H    0.963559   3.404778   3.452348   4.675169   6.887549
    33  H    3.181302   0.983662   3.499423   1.782053   4.324215
                   21         22         23         24         25
    21  O    0.000000
    22  H    7.609927   0.000000
    23  H    8.516944   3.622165   0.000000
    24  H    8.311873   3.668315   3.584463   0.000000
    25  H    5.667351   8.575707   8.507395   6.686524   0.000000
    26  H    5.240596   7.374017   8.964759   6.620579   3.938208
    27  H    3.142859   8.552872   8.774490   7.832695   2.863591
    28  H    2.712983   7.301310   8.166951   8.966848   7.983169
    29  H    0.979622   7.735256   8.633245   8.055697   4.818829
    30  H    3.135266   8.993263   8.660666   9.328500   6.439863
    31  H    7.031392   9.449782   8.338967   7.146571   2.567286
    32  H    6.860845   9.038357   7.064139   7.504350   5.244071
    33  H    3.545633   8.557752   7.997695   7.989579   4.221896
                   26         27         28         29         30
    26  H    0.000000
    27  H    4.328364   0.000000
    28  H    7.462092   5.616760   0.000000
    29  H    4.445807   2.336828   3.672889   0.000000
    30  H    7.674084   3.980687   3.560065   3.552426   0.000000
    31  H    6.419854   4.264482   8.936328   6.379499   6.650595
    32  H    8.390781   5.266087   7.792470   6.658181   5.210527
    33  H    6.321294   2.334325   5.080958   3.328354   2.383563
                   31         32         33
    31  H    0.000000
    32  H    3.471830   0.000000
    33  H    4.284870   3.592589   0.000000
 Stoichiometry    H12O16Si4Zr
 Framework group  C1[X(H12O16Si4Zr)]
 Deg. of freedom    93
 Full point group                 C1      NOp   1
 Largest Abelian subgroup         C1      NOp   1
 Largest concise Abelian subgroup C1      NOp   1
                         Standard orientation:                         
 ---------------------------------------------------------------------
 Center     Atomic      Atomic             Coordinates (Angstroms)
 Number     Number       Type             X           Y           Z
 ---------------------------------------------------------------------
      1         40           0        0.652232   -0.077346   -0.090159
      2          8           0       -0.183547   -0.861851    1.481717
      3          8           0        0.023121    1.769066   -0.182440
      4          8           0       -0.239766   -1.010688   -1.588795
      5          8           0        2.602491   -0.303998   -0.125700
      6         14           0       -1.788104   -1.463199   -1.893133
      7         14           0       -1.233627    2.820538   -0.176258
      8         14           0       -1.678908   -1.095446    2.164474
      9         14           0        4.229391   -0.195532    0.013875
     10          8           0        4.970086    0.523513   -1.273666
     11          8           0        4.898366   -1.708446    0.115239
     12          8           0        4.475611    0.749253    1.345616
     13          8           0       -2.200787   -2.612258    1.820150
     14          8           0       -2.705514    0.072350    1.569524
     15          8           0       -1.639816   -0.833448    3.782839
     16          8           0       -1.986689   -1.770827   -3.501189
     17          8           0       -2.825704   -0.341231   -1.268409
     18          8           0       -2.196424   -2.840531   -1.054548
     19          8           0       -2.163701    2.315203   -1.484975
     20          8           0       -0.808709    4.380797   -0.481517
     21          8           0       -2.057115    2.788383    1.237446
     22          1           0        5.361430    1.108249    1.468391
     23          1           0        5.302728   -0.070231   -1.956198
     24          1           0        4.448432   -2.354026    0.671127
     25          1           0       -2.215239   -2.865458    0.879757
     26          1           0       -0.996347   -1.332446    4.296431
     27          1           0       -3.064052   -0.137393    0.686559
     28          1           0       -0.730398    4.956062    0.288095
     29          1           0       -2.332265    1.904124    1.556880
     30          1           0       -2.809235    2.959496   -1.801456
     31          1           0       -2.213648   -3.660029   -1.561476
     32          1           0       -1.285442   -1.467476   -4.088282
     33          1           0       -2.653001    0.601645   -1.489202
 ---------------------------------------------------------------------
 Rotational constants (GHZ):           0.2115943           0.1337069           0.1237602
 General basis read from cards:  (5D, 7F)
 ======================================================================================================
                                       Pseudopotential Parameters
 ======================================================================================================
  Center     Atomic      Valence      Angular      Power
  Number     Number     Electrons     Momentum     of R      Exponent        Coefficient   SO-Coeffient
 ======================================================================================================
    1         40           12
                                      G and up 
                                                     2        1.0000000        0.00000000    0.00000000
                                      S - G
                                                     2        8.6365280      150.24299400    0.00000000
                                                     2        3.7176390       18.78003600    0.00000000
                                      P - G
                                                     2        7.6267280       33.19279100    0.00000000
                                                     2        7.4532070       66.38903900    0.00000000
                                                     2        3.3583890        4.62072600    0.00000000
                                                     2        3.2297380        9.26027000    0.00000000
                                      D - G
                                                     2        5.9380860       13.99338300    0.00000000
                                                     2        5.8255440       20.99588200    0.00000000
                                                     2        2.2050190        2.28516600    0.00000000
                                                     2        2.2062920        3.44126000    0.00000000
                                      F - G
                                                     2        4.8002150       -5.23932000    0.00000000
                                                     2        4.7989920       -6.98742400    0.00000000
    2          8
                                   No pseudopotential on this center.
    3          8
                                   No pseudopotential on this center.
    4          8
                                   No pseudopotential on this center.
    5          8
                                   No pseudopotential on this center.
    6         14
                                   No pseudopotential on this center.
    7         14
                                   No pseudopotential on this center.
    8         14
                                   No pseudopotential on this center.
    9         14
                                   No pseudopotential on this center.
   10          8
                                   No pseudopotential on this center.
   11          8
                                   No pseudopotential on this center.
   12          8
                                   No pseudopotential on this center.
   13          8
                                   No pseudopotential on this center.
   14          8
                                   No pseudopotential on this center.
   15          8
                                   No pseudopotential on this center.
   16          8
                                   No pseudopotential on this center.
   17          8
                                   No pseudopotential on this center.
   18          8
                                   No pseudopotential on this center.
   19          8
                                   No pseudopotential on this center.
   20          8
                                   No pseudopotential on this center.
   21          8
                                   No pseudopotential on this center.
   22          1
                                   No pseudopotential on this center.
   23          1
                                   No pseudopotential on this center.
   24          1
                                   No pseudopotential on this center.
   25          1
                                   No pseudopotential on this center.
   26          1
                                   No pseudopotential on this center.
   27          1
                                   No pseudopotential on this center.
   28          1
                                   No pseudopotential on this center.
   29          1
                                   No pseudopotential on this center.
   30          1
                                   No pseudopotential on this center.
   31          1
                                   No pseudopotential on this center.
   32          1
                                   No pseudopotential on this center.
   33          1
                                   No pseudopotential on this center.
 ======================================================================================================
 There are   570 symmetry adapted cartesian basis functions of A   symmetry.
 There are   524 symmetry adapted basis functions of A   symmetry.
   524 basis functions,  1074 primitive gaussians,   570 cartesian basis functions
   104 alpha electrons      104 beta electrons
       nuclear repulsion energy      2831.1112286038 Hartrees.
 NAtoms=   33 NActive=   33 NUniq=   33 SFac= 1.00D+00 NAtFMM=   60 NAOKFM=F Big=F
 Integral buffers will be    131072 words long.
 Raffenetti 2 integral format.
 Two-electron integral symmetry is turned on.
 Nuclear repulsion after empirical dispersion term =     2831.0704347937 Hartrees.
 One-electron integrals computed using PRISM.
 PrsmSu:  requested number of processors reduced to:   4 ShMem   1 Linda.
   1 Symmetry operations used in ECPInt.
 ECPInt:  NShTT=   13203 NPrTT=   78401 LenC2=   11517 LenP2D=   44659.
 LDataN:  DoStor=T MaxTD1= 8 Len=  415
 Number of processors reduced to  13 by ecpmxn.
 NBasis=   524 RedAO= T EigKep=  3.22D-05  NBF=   524
 NBsUse=   524 1.00D-06 EigRej= -1.00D+00 NBFU=   524
 Defaulting to unpruned grid for atomic number  40.
 ExpMin= 1.01D-02 ExpMax= 1.61D+04 ExpMxC= 2.43D+03 IAcc=3 IRadAn=         5 AccDes= 0.00D+00
 Harris functional with IExCor=  402 and IRadAn=       5 diagonalized for initial guess.
 HarFok:  IExCor=  402 AccDes= 0.00D+00 IRadAn=         5 IDoV= 1 UseB2=F ITyADJ=14
 ICtDFT=  3500011 ScaDFX=  1.000000  1.000000  1.000000  1.000000
 Defaulting to unpruned grid for atomic number  40.
 FoFCou: FMM=F IPFlag=           0 FMFlag=      100000 FMFlg1=           0
         NFxFlg=           0 DoJE=T BraDBF=F KetDBF=T FulRan=T
         wScrn=  0.000000 ICntrl=       500 IOpCl=  0 I1Cent=   200000004 NGrid=           0
         NMat0=    1 NMatS0=      1 NMatT0=    0 NMatD0=    1 NMtDS0=    0 NMtDT0=    0
 Petite list used in FoFCou.
 Requested convergence on RMS density matrix=1.00D-08 within 128 cycles.
 Requested convergence on MAX density matrix=1.00D-06.
 Requested convergence on             energy=1.00D-06.
 No special actions if energy rises.
 Defaulting to unpruned grid for atomic number  40.
 Defaulting to unpruned grid for atomic number  40.
 Defaulting to unpruned grid for atomic number  40.
 Defaulting to unpruned grid for atomic number  40.
 Defaulting to unpruned grid for atomic number  40.
 Defaulting to unpruned grid for atomic number  40.
 Defaulting to unpruned grid for atomic number  40.
 Defaulting to unpruned grid for atomic number  40.
 Defaulting to unpruned grid for atomic number  40.
 Defaulting to unpruned grid for atomic number  40.
 Defaulting to unpruned grid for atomic number  40.
 Defaulting to unpruned grid for atomic number  40.
 Defaulting to unpruned grid for atomic number  40.
 Defaulting to unpruned grid for atomic number  40.
 Defaulting to unpruned grid for atomic number  40.
 Defaulting to unpruned grid for atomic number  40.
 SCF Done:  E(RB3LYP) =  -2416.94571021     A.U. after   14 cycles
            NFock= 14  Conv=0.36D-08     -V/T= 2.0185

 **********************************************************************

            Population analysis using the SCF Density.

 **********************************************************************

 Orbital symmetries:
       Occupied  (A) (A) (A) (A) (A) (A) (A) (A) (A) (A) (A) (A)
                 (A) (A) (A) (A) (A) (A) (A) (A) (A) (A) (A) (A)
                 (A) (A) (A) (A) (A) (A) (A) (A) (A) (A) (A) (A)
                 (A) (A) (A) (A) (A) (A) (A) (A) (A) (A) (A) (A)
                 (A) (A) (A) (A) (A) (A) (A) (A) (A) (A) (A) (A)
                 (A) (A) (A) (A) (A) (A) (A) (A) (A) (A) (A) (A)
                 (A) (A) (A) (A) (A) (A) (A) (A) (A) (A) (A) (A)
                 (A) (A) (A) (A) (A) (A) (A) (A) (A) (A) (A) (A)
                 (A) (A) (A) (A) (A) (A) (A) (A)
       Virtual   (A) (A) (A) (A) (A) (A) (A) (A) (A) (A) (A) (A)
                 (A) (A) (A) (A) (A) (A) (A) (A) (A) (A) (A) (A)
                 (A) (A) (A) (A) (A) (A) (A) (A) (A) (A) (A) (A)
                 (A) (A) (A) (A) (A) (A) (A) (A) (A) (A) (A) (A)
                 (A) (A) (A) (A) (A) (A) (A) (A) (A) (A) (A) (A)
                 (A) (A) (A) (A) (A) (A) (A) (A) (A) (A) (A) (A)
                 (A) (A) (A) (A) (A) (A) (A) (A) (A) (A) (A) (A)
                 (A) (A) (A) (A) (A) (A) (A) (A) (A) (A) (A) (A)
                 (A) (A) (A) (A) (A) (A) (A) (A) (A) (A) (A) (A)
                 (A) (A) (A) (A) (A) (A) (A) (A) (A) (A) (A) (A)
                 (A) (A) (A) (A) (A) (A) (A) (A) (A) (A) (A) (A)
                 (A) (A) (A) (A) (A) (A) (A) (A) (A) (A) (A) (A)
                 (A) (A) (A) (A) (A) (A) (A) (A) (A) (A) (A) (A)
                 (A) (A) (A) (A) (A) (A) (A) (A) (A) (A) (A) (A)
                 (A) (A) (A) (A) (A) (A) (A) (A) (A) (A) (A) (A)
                 (A) (A) (A) (A) (A) (A) (A) (A) (A) (A) (A) (A)
                 (A) (A) (A) (A) (A) (A) (A) (A) (A) (A) (A) (A)
                 (A) (A) (A) (A) (A) (A) (A) (A) (A) (A) (A) (A)
                 (A) (A) (A) (A) (A) (A) (A) (A) (A) (A) (A) (A)
                 (A) (A) (A) (A) (A) (A) (A) (A) (A) (A) (A) (A)
                 (A) (A) (A) (A) (A) (A) (A) (A) (A) (A) (A) (A)
                 (A) (A) (A) (A) (A) (A) (A) (A) (A) (A) (A) (A)
                 (A) (A) (A) (A) (A) (A) (A) (A) (A) (A) (A) (A)
                 (A) (A) (A) (A) (A) (A) (A) (A) (A) (A) (A) (A)
                 (A) (A) (A) (A) (A) (A) (A) (A) (A) (A) (A) (A)
                 (A) (A) (A) (A) (A) (A) (A) (A) (A) (A) (A) (A)
                 (A) (A) (A) (A) (A) (A) (A) (A) (A) (A) (A) (A)
                 (A) (A) (A) (A) (A) (A) (A) (A) (A) (A) (A) (A)
                 (A) (A) (A) (A) (A) (A) (A) (A) (A) (A) (A) (A)
                 (A) (A) (A) (A) (A) (A) (A) (A) (A) (A) (A) (A)
                 (A) (A) (A) (A) (A) (A) (A) (A) (A) (A) (A) (A)
                 (A) (A) (A) (A) (A) (A) (A) (A) (A) (A) (A) (A)
                 (A) (A) (A) (A) (A) (A) (A) (A) (A) (A) (A) (A)
                 (A) (A) (A) (A) (A) (A) (A) (A) (A) (A) (A) (A)
                 (A) (A) (A) (A) (A) (A) (A) (A) (A) (A) (A) (A)
 The electronic state is 1-A.
 Alpha  occ. eigenvalues --  -66.22843 -66.21771 -66.21638 -66.21071 -19.18580
 Alpha  occ. eigenvalues --  -19.18368 -19.17850 -19.17005 -19.16785 -19.16727
 Alpha  occ. eigenvalues --  -19.16584 -19.16291 -19.16221 -19.16080 -19.16026
 Alpha  occ. eigenvalues --  -19.15570 -19.15420 -19.15361 -19.14892 -19.14665
 Alpha  occ. eigenvalues --   -5.36903  -5.35852  -5.35708  -5.35129  -3.72888
 Alpha  occ. eigenvalues --   -3.72863  -3.72808  -3.71842  -3.71797  -3.71762
 Alpha  occ. eigenvalues --   -3.71675  -3.71670  -3.71630  -3.71110  -3.71090
 Alpha  occ. eigenvalues --   -3.71038  -2.13441  -1.29660  -1.29605  -1.29442
 Alpha  occ. eigenvalues --   -1.05693  -1.04787  -1.04301  -1.03556  -1.02588
 Alpha  occ. eigenvalues --   -1.02174  -1.01482  -1.01097  -1.00885  -1.00731
 Alpha  occ. eigenvalues --   -0.99844  -0.99379  -0.97412  -0.96342  -0.95779
 Alpha  occ. eigenvalues --   -0.95350  -0.60959  -0.59189  -0.59111  -0.58983
 Alpha  occ. eigenvalues --   -0.55610  -0.54545  -0.54021  -0.53136  -0.53125
 Alpha  occ. eigenvalues --   -0.52620  -0.51898  -0.50222  -0.48715  -0.47931
 Alpha  occ. eigenvalues --   -0.47517  -0.47154  -0.43436  -0.42898  -0.41875
 Alpha  occ. eigenvalues --   -0.41501  -0.41217  -0.40643  -0.39871  -0.39484
 Alpha  occ. eigenvalues --   -0.38973  -0.38891  -0.38644  -0.38247  -0.38067
 Alpha  occ. eigenvalues --   -0.37635  -0.37500  -0.37137  -0.36516  -0.36366
 Alpha  occ. eigenvalues --   -0.36207  -0.35811  -0.35485  -0.35229  -0.34956
 Alpha  occ. eigenvalues --   -0.34506  -0.34118  -0.33798  -0.33605  -0.33102
 Alpha  occ. eigenvalues --   -0.32663  -0.32234  -0.32034  -0.31356
 Alpha virt. eigenvalues --   -0.04466  -0.03249  -0.03066  -0.02905  -0.02118
 Alpha virt. eigenvalues --   -0.01419  -0.00642  -0.00349  -0.00019   0.00239
 Alpha virt. eigenvalues --    0.00650   0.00806   0.00926   0.01785   0.02169
 Alpha virt. eigenvalues --    0.03094   0.03271   0.03802   0.03888   0.04093
 Alpha virt. eigenvalues --    0.04179   0.04763   0.05807   0.05876   0.06163
 Alpha virt. eigenvalues --    0.06243   0.07173   0.07456   0.07624   0.08338
 Alpha virt. eigenvalues --    0.08527   0.08772   0.09032   0.09461   0.09613
 Alpha virt. eigenvalues --    0.10241   0.10658   0.10846   0.11082   0.11605
 Alpha virt. eigenvalues --    0.11770   0.12480   0.13177   0.13282   0.13901
 Alpha virt. eigenvalues --    0.13964   0.14155   0.14780   0.15107   0.15246
 Alpha virt. eigenvalues --    0.15452   0.15841   0.16191   0.16547   0.16757
 Alpha virt. eigenvalues --    0.17104   0.17307   0.17683   0.17825   0.18508
 Alpha virt. eigenvalues --    0.18615   0.18802   0.18911   0.19307   0.19602
 Alpha virt. eigenvalues --    0.19717   0.20220   0.20813   0.21112   0.21240
 Alpha virt. eigenvalues --    0.21402   0.21801   0.22117   0.22464   0.23071
 Alpha virt. eigenvalues --    0.23611   0.23806   0.24080   0.24100   0.24577
 Alpha virt. eigenvalues --    0.24980   0.25377   0.25487   0.25789   0.26063
 Alpha virt. eigenvalues --    0.26224   0.26610   0.26773   0.27194   0.27590
 Alpha virt. eigenvalues --    0.27765   0.28221   0.28361   0.28742   0.28926
 Alpha virt. eigenvalues --    0.29358   0.29855   0.30069   0.30308   0.30327
 Alpha virt. eigenvalues --    0.30721   0.30839   0.31329   0.31386   0.31999
 Alpha virt. eigenvalues --    0.32386   0.32577   0.33126   0.33654   0.34100
 Alpha virt. eigenvalues --    0.34360   0.34711   0.35418   0.35861   0.36247
 Alpha virt. eigenvalues --    0.36509   0.37567   0.38214   0.38552   0.38738
 Alpha virt. eigenvalues --    0.39424   0.39984   0.40512   0.40867   0.41050
 Alpha virt. eigenvalues --    0.41671   0.42252   0.43450   0.43774   0.44208
 Alpha virt. eigenvalues --    0.45209   0.45618   0.46123   0.46539   0.46999
 Alpha virt. eigenvalues --    0.47412   0.48088   0.48487   0.48871   0.49110
 Alpha virt. eigenvalues --    0.49682   0.50080   0.51100   0.52403   0.52573
 Alpha virt. eigenvalues --    0.53479   0.54367   0.55228   0.56631   0.57137
 Alpha virt. eigenvalues --    0.58214   0.58707   0.59079   0.59780   0.59952
 Alpha virt. eigenvalues --    0.61095   0.61667   0.62126   0.63488   0.66193
 Alpha virt. eigenvalues --    0.66496   0.67347   0.68017   0.69153   0.69675
 Alpha virt. eigenvalues --    0.70225   0.70956   0.72316   0.74276   0.74973
 Alpha virt. eigenvalues --    0.75298   0.77147   0.78528   0.78829   0.80669
 Alpha virt. eigenvalues --    0.80785   0.81619   0.83057   0.83638   0.85223
 Alpha virt. eigenvalues --    0.86848   0.87566   0.89658   0.90616   0.90881
 Alpha virt. eigenvalues --    0.93638   0.95653   0.96336   0.96690   0.97414
 Alpha virt. eigenvalues --    0.98362   0.98921   0.99171   0.99241   0.99589
 Alpha virt. eigenvalues --    1.00432   1.01138   1.01966   1.03171   1.03601
 Alpha virt. eigenvalues --    1.04408   1.04597   1.05355   1.06736   1.07982
 Alpha virt. eigenvalues --    1.09487   1.12633   1.15252   1.16181   1.16731
 Alpha virt. eigenvalues --    1.18621   1.18858   1.20101   1.20285   1.20759
 Alpha virt. eigenvalues --    1.21522   1.21885   1.22190   1.22479   1.23554
 Alpha virt. eigenvalues --    1.23684   1.23881   1.24123   1.25316   1.25409
 Alpha virt. eigenvalues --    1.25676   1.26309   1.27443   1.27794   1.28051
 Alpha virt. eigenvalues --    1.28778   1.29502   1.29979   1.30519   1.31420
 Alpha virt. eigenvalues --    1.31832   1.32752   1.33243   1.33779   1.34717
 Alpha virt. eigenvalues --    1.35415   1.36283   1.36559   1.37111   1.38296
 Alpha virt. eigenvalues --    1.38907   1.39861   1.40149   1.40704   1.41584
 Alpha virt. eigenvalues --    1.41670   1.42653   1.43144   1.44405   1.45266
 Alpha virt. eigenvalues --    1.47621   1.49415   1.50503   1.52530   1.52943
 Alpha virt. eigenvalues --    1.56585   1.57392   1.58165   1.58856   1.59868
 Alpha virt. eigenvalues --    1.60213   1.60924   1.61370   1.62011   1.62851
 Alpha virt. eigenvalues --    1.63520   1.63906   1.64985   1.65883   1.66390
 Alpha virt. eigenvalues --    1.66993   1.67783   1.69042   1.69554   1.69977
 Alpha virt. eigenvalues --    1.70525   1.71056   1.71846   1.72588   1.73378
 Alpha virt. eigenvalues --    1.74635   1.75091   1.75402   1.75714   1.76502
 Alpha virt. eigenvalues --    1.76556   1.77165   1.78425   1.79339   1.80039
 Alpha virt. eigenvalues --    1.80584   1.81426   1.81935   1.82368   1.82995
 Alpha virt. eigenvalues --    1.83387   1.83810   1.85190   1.85516   1.86192
 Alpha virt. eigenvalues --    1.87885   1.88262   1.88844   1.89604   1.90080
 Alpha virt. eigenvalues --    1.91029   1.91704   1.91960   1.92963   1.93190
 Alpha virt. eigenvalues --    1.94030   1.95357   1.96553   1.97392   1.97760
 Alpha virt. eigenvalues --    1.98550   1.99901   2.00657   2.02093   2.05255
 Alpha virt. eigenvalues --    2.05915   2.07001   2.09253   2.10038   2.10382
 Alpha virt. eigenvalues --    2.11893   2.13416   2.14419   2.15383   2.16203
 Alpha virt. eigenvalues --    2.16941   2.18304   2.19837   2.20898   2.27830
 Alpha virt. eigenvalues --    2.31552   2.32928   2.36076   2.39464   2.40241
 Alpha virt. eigenvalues --    2.40799   2.41374   2.41566   2.42931   2.43697
 Alpha virt. eigenvalues --    2.43983   2.45193   2.46669   2.47795   2.48708
 Alpha virt. eigenvalues --    2.49456   2.50510   2.50774   2.52735   2.53459
 Alpha virt. eigenvalues --    2.54602   2.57876   2.58379   2.59958   2.60802
 Alpha virt. eigenvalues --    2.61008   2.61707   2.61892   2.62247   2.62677
 Alpha virt. eigenvalues --    2.63104   2.63516   2.64592   2.65180   2.65659
 Alpha virt. eigenvalues --    2.65932   2.66386   2.66983   2.67447   2.67837
 Alpha virt. eigenvalues --    2.69197   2.70160   2.71170   2.71731   2.72394
 Alpha virt. eigenvalues --    2.73445   2.74672   2.75597   2.76496   2.77981
 Alpha virt. eigenvalues --    2.79576   2.80387   2.80864   2.82925   2.83231
 Alpha virt. eigenvalues --    2.83956   2.84808   2.86330   2.87550   2.88116
 Alpha virt. eigenvalues --    3.15108   3.21335   3.36704   3.41175   3.46690
 Alpha virt. eigenvalues --    3.47688   3.48133   3.48763   3.48829   3.52127
 Alpha virt. eigenvalues --    3.52911   3.53567   3.59957   3.61148   3.62120
 Alpha virt. eigenvalues --    3.65871   4.32496   4.59047   7.98534  31.28993
          Condensed to atoms (all electrons):
               1          2          3          4          5          6
     1  Zr  14.773863  -0.013278  -0.017056  -0.094290  -0.189339  -0.671186
     2  O   -0.013278   8.865931   0.017886  -0.044086  -0.057714   0.063010
     3  O   -0.017056   0.017886   8.843998   0.018987  -0.051946   0.000572
     4  O   -0.094290  -0.044086   0.018987   8.821471  -0.057724  -0.709570
     5  O   -0.189339  -0.057714  -0.051946  -0.057724   9.443859  -0.013836
     6  Si  -0.671186   0.063010   0.000572  -0.709570  -0.013836  14.170903
     7  Si  -0.547734  -0.025132  -0.864991  -0.012826  -0.037615   0.077365
     8  Si  -0.651152  -0.795090  -0.011122   0.060599  -0.018699   0.031232
     9  Si  -0.214607  -0.042022  -0.036184  -0.034845  -1.170543   0.032511
    10  O   -0.024376   0.001160  -0.000137   0.000402   0.125828  -0.001317
    11  O   -0.074630   0.002567   0.003254   0.002311   0.321408  -0.000208
    12  O    0.041878   0.001382   0.003104   0.001883   0.120960  -0.002786
    13  O   -0.022164   0.255071   0.001795  -0.016587  -0.000295   0.038568
    14  O   -0.013377   0.257886  -0.015922  -0.001592   0.001918   0.000320
    15  O   -0.051209   0.264303   0.000094   0.002672   0.000898  -0.008227
    16  O   -0.140888   0.005619  -0.000387   0.350890   0.003561  -0.439663
    17  O   -0.042372  -0.040732   0.011626   0.211722   0.001462  -0.470002
    18  O   -0.007885  -0.018733   0.004002   0.194389  -0.000884  -0.477632
    19  O    0.002137   0.008362   0.261943   0.010465   0.002395  -0.005976
    20  O   -0.138926  -0.000726   0.163687  -0.000728   0.001694   0.009329
    21  O    0.025649   0.010692   0.148983   0.003458   0.000086  -0.010594
    22  H   -0.007213  -0.000009   0.000002  -0.000006   0.006814   0.000070
    23  H   -0.008157  -0.000008  -0.000009  -0.000031  -0.024278   0.000142
    24  H   -0.005503  -0.000101  -0.000015  -0.000002  -0.003330   0.000170
    25  H    0.023532  -0.021965  -0.000144  -0.000615  -0.000027  -0.000712
    26  H   -0.007490  -0.012881   0.000021  -0.000012  -0.000021   0.000313
    27  H   -0.000514  -0.020427   0.000711  -0.001714   0.000024   0.012081
    28  H    0.004747  -0.000011  -0.018723  -0.000013  -0.000013  -0.000249
    29  H    0.000936  -0.005355  -0.020007  -0.000203  -0.000072   0.000790
    30  H    0.000367  -0.000013   0.000309  -0.000472  -0.000010  -0.000680
    31  H    0.002200   0.000297  -0.000020  -0.017885  -0.000016   0.060577
    32  H    0.002145  -0.000026   0.000036   0.010824   0.000006   0.020377
    33  H   -0.013988   0.000955  -0.010266  -0.009150  -0.000101   0.051011
               7          8          9         10         11         12
     1  Zr  -0.547734  -0.651152  -0.214607  -0.024376  -0.074630   0.041878
     2  O   -0.025132  -0.795090  -0.042022   0.001160   0.002567   0.001382
     3  O   -0.864991  -0.011122  -0.036184  -0.000137   0.003254   0.003104
     4  O   -0.012826   0.060599  -0.034845   0.000402   0.002311   0.001883
     5  O   -0.037615  -0.018699  -1.170543   0.125828   0.321408   0.120960
     6  Si   0.077365   0.031232   0.032511  -0.001317  -0.000208  -0.002786
     7  Si  13.747961   0.162584   0.014493   0.000759  -0.001228   0.002179
     8  Si   0.162584  13.816886   0.029795  -0.001261   0.001105  -0.001568
     9  Si   0.014493   0.029795  14.043345  -0.054059  -0.179073  -0.142628
    10  O    0.000759  -0.001261  -0.054059   8.511099   0.019663   0.026760
    11  O   -0.001228   0.001105  -0.179073   0.019663   8.508032  -0.050399
    12  O    0.002179  -0.001568  -0.142628   0.026760  -0.050399   8.580727
    13  O    0.004017  -0.134851   0.000472  -0.000000   0.000010  -0.000012
    14  O    0.007975  -0.523069  -0.001317  -0.000003   0.000000   0.000003
    15  O   -0.003894  -0.390999  -0.001311  -0.000002  -0.000009   0.000007
    16  O    0.003706  -0.008329  -0.000648   0.000003  -0.000014  -0.000002
    17  O   -0.009590   0.087182   0.001887   0.000003   0.000005  -0.000006
    18  O   -0.001184   0.077225   0.003506   0.000002   0.000018   0.000003
    19  O   -0.413073  -0.016255   0.000904   0.000004  -0.000001  -0.000030
    20  O   -0.111583   0.009516   0.002700   0.000017  -0.000003  -0.000030
    21  O    0.031375  -0.043796  -0.000950  -0.000002  -0.000000   0.000004
    22  H   -0.000033   0.000071   0.043322  -0.006325  -0.004619   0.220997
    23  H    0.000041   0.000056   0.079592   0.229854  -0.005732   0.005770
    24  H    0.000030   0.000171   0.031659   0.007004   0.244891  -0.006990
    25  H   -0.000392   0.053168  -0.000250  -0.000000  -0.000000  -0.000000
    26  H    0.000582   0.062910  -0.000152   0.000000   0.000000  -0.000001
    27  H    0.002031   0.079761   0.000053   0.000000  -0.000000   0.000000
    28  H    0.057753   0.000049  -0.000140   0.000000  -0.000000  -0.000001
    29  H    0.047710   0.024077  -0.000074   0.000000   0.000000  -0.000000
    30  H    0.041027   0.000039   0.000012   0.000000   0.000000   0.000000
    31  H    0.000095  -0.002496  -0.000056   0.000000  -0.000000   0.000000
    32  H   -0.000560   0.000077   0.000047  -0.000000   0.000000  -0.000000
    33  H    0.021552  -0.000152   0.000057  -0.000000   0.000000   0.000000
              13         14         15         16         17         18
     1  Zr  -0.022164  -0.013377  -0.051209  -0.140888  -0.042372  -0.007885
     2  O    0.255071   0.257886   0.264303   0.005619  -0.040732  -0.018733
     3  O    0.001795  -0.015922   0.000094  -0.000387   0.011626   0.004002
     4  O   -0.016587  -0.001592   0.002672   0.350890   0.211722   0.194389
     5  O   -0.000295   0.001918   0.000898   0.003561   0.001462  -0.000884
     6  Si   0.038568   0.000320  -0.008227  -0.439663  -0.470002  -0.477632
     7  Si   0.004017   0.007975  -0.003894   0.003706  -0.009590  -0.001184
     8  Si  -0.134851  -0.523069  -0.390999  -0.008329   0.087182   0.077225
     9  Si   0.000472  -0.001317  -0.001311  -0.000648   0.001887   0.003506
    10  O   -0.000000  -0.000003  -0.000002   0.000003   0.000003   0.000002
    11  O    0.000010   0.000000  -0.000009  -0.000014   0.000005   0.000018
    12  O   -0.000012   0.000003   0.000007  -0.000002  -0.000006   0.000003
    13  O    8.638531   0.025226  -0.113499   0.003884  -0.028536  -0.042403
    14  O    0.025226   8.813723   0.155015   0.002874  -0.028765  -0.022643
    15  O   -0.113499   0.155015   8.776210  -0.000165   0.003777   0.001185
    16  O    0.003884   0.002874  -0.000165   8.917827  -0.094440  -0.104354
    17  O   -0.028536  -0.028765   0.003777  -0.094440   8.941055   0.221562
    18  O   -0.042403  -0.022643   0.001185  -0.104354   0.221562   9.032326
    19  O    0.000211   0.002282   0.000327  -0.001137  -0.031812   0.000114
    20  O    0.000010  -0.000785   0.000012   0.000062  -0.000661   0.000009
    21  O   -0.000544   0.025033   0.000814  -0.000196  -0.005600   0.000404
    22  H   -0.000000  -0.000000   0.000000   0.000000   0.000000  -0.000000
    23  H    0.000000   0.000000   0.000000  -0.000000   0.000000   0.000000
    24  H   -0.000000   0.000000   0.000001   0.000000  -0.000000  -0.000000
    25  H    0.216638  -0.009474   0.007474  -0.000248   0.000624   0.015462
    26  H   -0.006609   0.001216   0.226017   0.000000  -0.000020   0.000011
    27  H   -0.004588   0.207148   0.000072   0.000269   0.018154  -0.000758
    28  H    0.000000  -0.000004  -0.000001  -0.000000   0.000002  -0.000000
    29  H    0.000781   0.013652  -0.001355  -0.000003  -0.000726  -0.000003
    30  H    0.000001  -0.000028   0.000001   0.000101  -0.000515  -0.000007
    31  H    0.002380   0.000066  -0.000020   0.005145  -0.001222   0.216943
    32  H   -0.000006  -0.000006   0.000000   0.235466  -0.003442   0.003932
    33  H    0.000230   0.001901  -0.000052   0.000224   0.230118   0.002275
              19         20         21         22         23         24
     1  Zr   0.002137  -0.138926   0.025649  -0.007213  -0.008157  -0.005503
     2  O    0.008362  -0.000726   0.010692  -0.000009  -0.000008  -0.000101
     3  O    0.261943   0.163687   0.148983   0.000002  -0.000009  -0.000015
     4  O    0.010465  -0.000728   0.003458  -0.000006  -0.000031  -0.000002
     5  O    0.002395   0.001694   0.000086   0.006814  -0.024278  -0.003330
     6  Si  -0.005976   0.009329  -0.010594   0.000070   0.000142   0.000170
     7  Si  -0.413073  -0.111583   0.031375  -0.000033   0.000041   0.000030
     8  Si  -0.016255   0.009516  -0.043796   0.000071   0.000056   0.000171
     9  Si   0.000904   0.002700  -0.000950   0.043322   0.079592   0.031659
    10  O    0.000004   0.000017  -0.000002  -0.006325   0.229854   0.007004
    11  O   -0.000001  -0.000003  -0.000000  -0.004619  -0.005732   0.244891
    12  O   -0.000030  -0.000030   0.000004   0.220997   0.005770  -0.006990
    13  O    0.000211   0.000010  -0.000544  -0.000000   0.000000  -0.000000
    14  O    0.002282  -0.000785   0.025033  -0.000000   0.000000   0.000000
    15  O    0.000327   0.000012   0.000814   0.000000   0.000000   0.000001
    16  O   -0.001137   0.000062  -0.000196   0.000000  -0.000000   0.000000
    17  O   -0.031812  -0.000661  -0.005600   0.000000   0.000000  -0.000000
    18  O    0.000114   0.000009   0.000404  -0.000000   0.000000  -0.000000
    19  O    8.877345   0.034241   0.022741  -0.000000   0.000000  -0.000000
    20  O    0.034241   8.659512  -0.054830   0.000000   0.000000  -0.000000
    21  O    0.022741  -0.054830   8.481598  -0.000000   0.000000   0.000000
    22  H   -0.000000   0.000000  -0.000000   0.363520   0.000061   0.000110
    23  H    0.000000   0.000000   0.000000   0.000061   0.351116   0.000021
    24  H   -0.000000  -0.000000   0.000000   0.000110   0.000021   0.367721
    25  H   -0.000034   0.000000  -0.000014   0.000000   0.000000   0.000000
    26  H    0.000000  -0.000000   0.000042  -0.000000   0.000000  -0.000000
    27  H   -0.000191   0.000219  -0.004660  -0.000000  -0.000000   0.000000
    28  H    0.004251   0.228829  -0.001713  -0.000000   0.000000   0.000000
    29  H   -0.008635   0.008003   0.208192   0.000000  -0.000000  -0.000000
    30  H    0.223973  -0.001553  -0.007152   0.000000  -0.000000  -0.000000
    31  H    0.000002  -0.000000  -0.000000  -0.000000   0.000000   0.000000
    32  H    0.000100  -0.000000   0.000001  -0.000000  -0.000000  -0.000000
    33  H    0.013740  -0.000107   0.001432  -0.000000  -0.000000  -0.000000
              25         26         27         28         29         30
     1  Zr   0.023532  -0.007490  -0.000514   0.004747   0.000936   0.000367
     2  O   -0.021965  -0.012881  -0.020427  -0.000011  -0.005355  -0.000013
     3  O   -0.000144   0.000021   0.000711  -0.018723  -0.020007   0.000309
     4  O   -0.000615  -0.000012  -0.001714  -0.000013  -0.000203  -0.000472
     5  O   -0.000027  -0.000021   0.000024  -0.000013  -0.000072  -0.000010
     6  Si  -0.000712   0.000313   0.012081  -0.000249   0.000790  -0.000680
     7  Si  -0.000392   0.000582   0.002031   0.057753   0.047710   0.041027
     8  Si   0.053168   0.062910   0.079761   0.000049   0.024077   0.000039
     9  Si  -0.000250  -0.000152   0.000053  -0.000140  -0.000074   0.000012
    10  O   -0.000000   0.000000   0.000000   0.000000   0.000000   0.000000
    11  O   -0.000000   0.000000  -0.000000  -0.000000   0.000000   0.000000
    12  O   -0.000000  -0.000001   0.000000  -0.000001  -0.000000   0.000000
    13  O    0.216638  -0.006609  -0.004588   0.000000   0.000781   0.000001
    14  O   -0.009474   0.001216   0.207148  -0.000004   0.013652  -0.000028
    15  O    0.007474   0.226017   0.000072  -0.000001  -0.001355   0.000001
    16  O   -0.000248   0.000000   0.000269  -0.000000  -0.000003   0.000101
    17  O    0.000624  -0.000020   0.018154   0.000002  -0.000726  -0.000515
    18  O    0.015462   0.000011  -0.000758  -0.000000  -0.000003  -0.000007
    19  O   -0.000034   0.000000  -0.000191   0.004251  -0.008635   0.223973
    20  O    0.000000  -0.000000   0.000219   0.228829   0.008003  -0.001553
    21  O   -0.000014   0.000042  -0.004660  -0.001713   0.208192  -0.007152
    22  H    0.000000  -0.000000  -0.000000  -0.000000   0.000000   0.000000
    23  H    0.000000   0.000000  -0.000000   0.000000  -0.000000  -0.000000
    24  H    0.000000  -0.000000   0.000000   0.000000  -0.000000  -0.000000
    25  H    0.301464  -0.000032   0.000046   0.000000   0.000001   0.000000
    26  H   -0.000032   0.369233  -0.000036   0.000000   0.000018  -0.000000
    27  H    0.000046  -0.000036   0.284592  -0.000000  -0.000992   0.000009
    28  H    0.000000   0.000000  -0.000000   0.348826  -0.000015  -0.000010
    29  H    0.000001   0.000018  -0.000992  -0.000015   0.286224   0.000165
    30  H    0.000000  -0.000000   0.000009  -0.000010   0.000165   0.334180
    31  H   -0.000221   0.000000   0.000015   0.000000   0.000000  -0.000000
    32  H   -0.000001  -0.000000  -0.000000   0.000000  -0.000000  -0.000000
    33  H    0.000007   0.000000  -0.002490  -0.000002   0.000121  -0.001035
              31         32         33
     1  Zr   0.002200   0.002145  -0.013988
     2  O    0.000297  -0.000026   0.000955
     3  O   -0.000020   0.000036  -0.010266
     4  O   -0.017885   0.010824  -0.009150
     5  O   -0.000016   0.000006  -0.000101
     6  Si   0.060577   0.020377   0.051011
     7  Si   0.000095  -0.000560   0.021552
     8  Si  -0.002496   0.000077  -0.000152
     9  Si  -0.000056   0.000047   0.000057
    10  O    0.000000  -0.000000  -0.000000
    11  O   -0.000000   0.000000   0.000000
    12  O    0.000000  -0.000000   0.000000
    13  O    0.002380  -0.000006   0.000230
    14  O    0.000066  -0.000006   0.001901
    15  O   -0.000020   0.000000  -0.000052
    16  O    0.005145   0.235466   0.000224
    17  O   -0.001222  -0.003442   0.230118
    18  O    0.216943   0.003932   0.002275
    19  O    0.000002   0.000100   0.013740
    20  O   -0.000000  -0.000000  -0.000107
    21  O   -0.000000   0.000001   0.001432
    22  H   -0.000000  -0.000000  -0.000000
    23  H    0.000000  -0.000000  -0.000000
    24  H    0.000000  -0.000000  -0.000000
    25  H   -0.000221  -0.000001   0.000007
    26  H    0.000000  -0.000000   0.000000
    27  H    0.000015  -0.000000  -0.002490
    28  H    0.000000   0.000000  -0.000002
    29  H    0.000000  -0.000000   0.000121
    30  H   -0.000000  -0.000000  -0.001035
    31  H    0.327298  -0.000010  -0.000036
    32  H   -0.000010   0.349179   0.000146
    33  H   -0.000036   0.000146   0.270821
 Mulliken charges:
               1
     1  Zr   0.079882
     2  O   -0.656810
     3  O   -0.434081
     4  O   -0.687725
     5  O   -0.404448
     6  Si   2.243300
     7  Si   1.806601
     8  Si   2.102337
     9  Si   1.594504
    10  O   -0.835076
    11  O   -0.787349
    12  O   -0.801206
    13  O   -0.817730
    14  O   -0.899253
    15  O   -0.868136
    16  O   -0.739158
    17  O   -0.970739
    18  O   -1.096882
    19  O   -0.988391
    20  O   -0.807912
    21  O   -0.830452
    22  H    0.383238
    23  H    0.371563
    24  H    0.364165
    25  H    0.415713
    26  H    0.366890
    27  H    0.431188
    28  H    0.376437
    29  H    0.446771
    30  H    0.411290
    31  H    0.406962
    32  H    0.381717
    33  H    0.442790
 Sum of Mulliken charges =  -0.00000
 Mulliken charges with hydrogens summed into heavy atoms:
               1
     1  Zr   0.079882
     2  O   -0.656810
     3  O   -0.434081
     4  O   -0.687725
     5  O   -0.404448
     6  Si   2.243300
     7  Si   1.806601
     8  Si   2.102337
     9  Si   1.594504
    10  O   -0.463513
    11  O   -0.423184
    12  O   -0.417968
    13  O   -0.402017
    14  O   -0.468064
    15  O   -0.501246
    16  O   -0.357441
    17  O   -0.527949
    18  O   -0.689920
    19  O   -0.577101
    20  O   -0.431475
    21  O   -0.383681
 Electronic spatial extent (au):  <R**2>=           9890.2239
 Charge=             -0.0000 electrons
 Dipole moment (field-independent basis, Debye):
    X=              2.9568    Y=             -1.4787    Z=             -3.0355  Tot=              4.4881
 Quadrupole moment (field-independent basis, Debye-Ang):
   XX=           -167.5638   YY=           -153.2706   ZZ=           -158.0951
   XY=             -8.2146   XZ=             12.4081   YZ=              3.0104
 Traceless Quadrupole moment (field-independent basis, Debye-Ang):
   XX=             -7.9206   YY=              6.3725   ZZ=              1.5481
   XY=             -8.2146   XZ=             12.4081   YZ=              3.0104
 Octapole moment (field-independent basis, Debye-Ang**2):
  XXX=             86.0000  YYY=             -5.7036  ZZZ=            -34.4038  XYY=             -5.9232
  XXY=             30.1718  XXZ=            -23.2242  XZZ=             62.0842  YZZ=            -21.1986
  YYZ=             -1.9250  XYZ=             13.0224
 Hexadecapole moment (field-independent basis, Debye-Ang**3):
 XXXX=          -6070.0316 YYYY=          -2781.8004 ZZZZ=          -2248.1496 XXXY=             15.6353
 XXXZ=            137.8695 YYYX=            -29.3099 YYYZ=            195.8501 ZZZX=             18.6503
 ZZZY=            -87.7837 XXYY=          -1550.9695 XXZZ=          -1485.2163 YYZZ=           -943.0047
 XXYZ=              6.3673 YYXZ=            163.8292 ZZXY=            -81.5330
 N-N= 2.831070434794D+03 E-N=-1.137462587973D+04  KE= 2.373147677712D+03
 PrsmSu:  requested number of processors reduced to:   2 ShMem   1 Linda.
 PrsmSu:  requested number of processors reduced to:  10 ShMem   1 Linda.
   1 Symmetry operations used in ECPInt.
 ECPInt:  NShTT=   13203 NPrTT=   78401 LenC2=   11517 LenP2D=   44659.
 LDataN:  DoStor=T MaxTD1= 9 Len=  602
 Number of processors reduced to  14 by ecpmxn.
 Calling FoFJK, ICntrl=      2127 FMM=F ISym2X=0 I1Cent= 0 IOpClX= 0 NMat=1 NMatS=1 NMatT=0.
 CoulSu:  requested number of processors reduced to:  10 ShMem   1 Linda.
 Defaulting to unpruned grid for atomic number  40.
 Defaulting to unpruned grid for atomic number  40.
 Defaulting to unpruned grid for atomic number  40.
 Defaulting to unpruned grid for atomic number  40.
 Defaulting to unpruned grid for atomic number  40.
 Defaulting to unpruned grid for atomic number  40.
 Defaulting to unpruned grid for atomic number  40.
 Defaulting to unpruned grid for atomic number  40.
 Defaulting to unpruned grid for atomic number  40.
 Defaulting to unpruned grid for atomic number  40.
 Defaulting to unpruned grid for atomic number  40.
 Defaulting to unpruned grid for atomic number  40.
 Defaulting to unpruned grid for atomic number  40.
 Defaulting to unpruned grid for atomic number  40.
 Defaulting to unpruned grid for atomic number  40.
 Defaulting to unpruned grid for atomic number  40.
 ***** Axes restored to original set *****
 -------------------------------------------------------------------
 Center     Atomic                   Forces (Hartrees/Bohr)
 Number     Number              X              Y              Z
 -------------------------------------------------------------------
      1       40           0.001969207   -0.000328768   -0.000112582
      2        8           0.000105112    0.000017119   -0.000154670
      3        8          -0.000050934    0.000245398   -0.000018936
      4        8           0.000025793    0.000029864    0.000117194
      5        8          -0.001376105   -0.000789473   -0.000502849
      6       14          -0.000191848    0.000016231   -0.000040075
      7       14          -0.000063574    0.000129690   -0.000038442
      8       14          -0.000209474   -0.000007591    0.000138220
      9       14          -0.000726586    0.002076162    0.001448210
     10        8          -0.000039959   -0.000216167   -0.000252127
     11        8          -0.000034465   -0.000459766   -0.000198615
     12        8           0.000151485   -0.000510067   -0.000399532
     13        8           0.000075012    0.000015281   -0.000026287
     14        8           0.000085801   -0.000078426   -0.000014488
     15        8           0.000030756   -0.000002457   -0.000060738
     16        8           0.000037806   -0.000003350    0.000044232
     17        8           0.000060861   -0.000050998    0.000019300
     18        8           0.000065303    0.000006408    0.000000588
     19        8           0.000026768   -0.000036410    0.000031482
     20        8           0.000012816   -0.000054671    0.000014979
     21        8           0.000031494   -0.000016216    0.000013089
     22        1          -0.000034278   -0.000122323   -0.000133331
     23        1           0.000045172    0.000003944    0.000014706
     24        1           0.000137207    0.000032272    0.000118234
     25        1          -0.000032237   -0.000000021    0.000001800
     26        1          -0.000005513   -0.000006871    0.000030118
     27        1          -0.000047525    0.000019612    0.000006348
     28        1          -0.000005509    0.000031621    0.000001241
     29        1          -0.000043576    0.000018255   -0.000015195
     30        1          -0.000000832    0.000008843   -0.000010800
     31        1          -0.000022833   -0.000002140   -0.000007175
     32        1          -0.000006471    0.000007388   -0.000024377
     33        1           0.000031125    0.000027627    0.000010475
 -------------------------------------------------------------------
 Cartesian Forces:  Max     0.002076162 RMS     0.000387652

 GradGradGradGradGradGradGradGradGradGradGradGradGradGradGradGradGradGrad
 Berny optimization.
 FormGI is forming the generalized inverse of G from B-inverse, IUseBI=4.
 Internal  Forces:  Max     0.001838743 RMS     0.000253778
 Search for a local minimum.
 Step number   1 out of a maximum of  151
 All quantities printed in internal units (Hartrees-Bohrs-Radians)
 Mixed Optimization -- En-DIIS/RFO-DIIS
 Second derivative matrix not updated -- first step.
 ITU=  0
     Eigenvalues ---    0.00230   0.00230   0.00230   0.00230   0.00230
     Eigenvalues ---    0.03239   0.03482   0.03500   0.03541   0.03581
     Eigenvalues ---    0.03661   0.03665   0.03674   0.03688   0.03735
     Eigenvalues ---    0.03789   0.03802   0.03811   0.03828   0.03858
     Eigenvalues ---    0.05986   0.06400   0.07854   0.11097   0.11247
     Eigenvalues ---    0.11629   0.11979   0.12187   0.12205   0.12217
     Eigenvalues ---    0.12639   0.12970   0.13105   0.13164   0.13263
     Eigenvalues ---    0.16000   0.16000   0.16000   0.16000   0.16000
     Eigenvalues ---    0.16000   0.16000   0.16000   0.16000   0.16000
     Eigenvalues ---    0.16000   0.16000   0.18817   0.19184   0.19334
     Eigenvalues ---    0.19954   0.20200   0.20253   0.20403   0.20422
     Eigenvalues ---    0.20563   0.20992   0.21009   0.21136   0.21189
     Eigenvalues ---    0.21670   0.25000   0.25000   0.25000   0.37992
     Eigenvalues ---    0.40480   0.40678   0.41116   0.41559   0.42453
     Eigenvalues ---    0.42502   0.42607   0.42768   0.43316   0.43953
     Eigenvalues ---    0.44102   0.44216   0.44422   0.44759   0.44782
     Eigenvalues ---    0.50680   0.51458   0.52211   0.52570   0.54329
     Eigenvalues ---    0.54614   0.54650   0.54671   0.54695   0.54715
     Eigenvalues ---    0.54739   0.548931000.000001000.000001000.00000
     Eigenvalues --- 1000.000001000.000001000.000001000.000001000.00000
     Eigenvalues --- 1000.000001000.000001000.000001000.000001000.00000
     Eigenvalues --- 1000.000001000.000001000.000001000.000001000.00000
     Eigenvalues --- 1000.000001000.000001000.000001000.000001000.00000
     Eigenvalues --- 1000.000001000.000001000.000001000.000001000.00000
     Eigenvalues --- 1000.000001000.000001000.000001000.000001000.00000
     Eigenvalues --- 1000.000001000.000001000.000001000.000001000.00000
     Eigenvalues --- 1000.000001000.000001000.000001000.000001000.00000
     Eigenvalues --- 1000.000001000.000001000.000001000.000001000.00000
     Eigenvalues --- 1000.00000
 RFO step:  Lambda=-1.66073985D-04 EMin= 2.30000000D-03
 Linear search not attempted -- first point.
 Iteration  1 RMS(Cart)=  0.07963799 RMS(Int)=  0.01419824
 Iteration  2 RMS(Cart)=  0.10041800 RMS(Int)=  0.00932881
 Iteration  3 RMS(Cart)=  0.03094124 RMS(Int)=  0.00710771
 Iteration  4 RMS(Cart)=  0.00116156 RMS(Int)=  0.00710544
 Iteration  5 RMS(Cart)=  0.00054616 RMS(Int)=  0.00710541
 Iteration  6 RMS(Cart)=  0.00035830 RMS(Int)=  0.00710540
 Iteration  7 RMS(Cart)=  0.00023416 RMS(Int)=  0.00710540
 Iteration  8 RMS(Cart)=  0.00015319 RMS(Int)=  0.00710540
 Iteration  9 RMS(Cart)=  0.00010020 RMS(Int)=  0.00710539
 Iteration 10 RMS(Cart)=  0.00006554 RMS(Int)=  0.00710539
 Iteration 11 RMS(Cart)=  0.00004287 RMS(Int)=  0.00710539
 Iteration 12 RMS(Cart)=  0.00002804 RMS(Int)=  0.00710539
 Iteration 13 RMS(Cart)=  0.00001834 RMS(Int)=  0.00710539
 Iteration 14 RMS(Cart)=  0.00001200 RMS(Int)=  0.00710539
 Iteration 15 RMS(Cart)=  0.00000785 RMS(Int)=  0.00710539
 Iteration 16 RMS(Cart)=  0.00000513 RMS(Int)=  0.00710539
 Iteration 17 RMS(Cart)=  0.00000336 RMS(Int)=  0.00710539
 Iteration 18 RMS(Cart)=  0.00000220 RMS(Int)=  0.00710539
 Iteration 19 RMS(Cart)=  0.00000144 RMS(Int)=  0.00710539
 Iteration 20 RMS(Cart)=  0.00000094 RMS(Int)=  0.00710539
 Iteration  1 RMS(Cart)=  0.01638107 RMS(Int)=  0.00084251
 Iteration  2 RMS(Cart)=  0.00202518 RMS(Int)=  0.00088630
 Iteration  3 RMS(Cart)=  0.00024833 RMS(Int)=  0.00089745
 Iteration  4 RMS(Cart)=  0.00003045 RMS(Int)=  0.00089889
 Iteration  5 RMS(Cart)=  0.00000373 RMS(Int)=  0.00089907
 Iteration  6 RMS(Cart)=  0.00000046 RMS(Int)=  0.00089909
 Variable       Old X    -DE/DX   Delta X   Delta X   Delta X     New X
                                 (Linear)    (Quad)   (Total)
    R1        3.67636  -0.00005   0.00000  -0.00024  -0.00019   3.67617
    R2        3.69031   0.00034   0.00000   0.00165   0.00169   3.69200
    R3        3.73798  -0.00010   0.00000  -0.00053  -0.00053   3.73745
    R4        3.71087  -0.00184   0.00000  -0.00922  -0.00958   3.70128
    R5        3.13764   0.00013   0.00000   0.00031   0.00035   3.13800
    R6        3.09653   0.00009   0.00000   0.00020   0.00024   3.09676
    R7        3.10211   0.00003   0.00000   0.00006   0.00008   3.10219
    R8        3.09249  -0.00050   0.00000  -0.00110  -0.00003   3.09246
    R9        3.11657  -0.00003   0.00000  -0.00006  -0.00005   3.11652
   R10        3.11988  -0.00005   0.00000  -0.00013  -0.00009   3.11979
   R11        3.14342  -0.00002   0.00000  -0.00005  -0.00001   3.14341
   R12        3.18077  -0.00003   0.00000  -0.00007  -0.00005   3.18072
   R13        3.10982  -0.00002   0.00000  -0.00005  -0.00001   3.10981
   R14        3.09230   0.00000   0.00000   0.00001   0.00003   3.09233
   R15        3.10032  -0.00002   0.00000  -0.00006  -0.00003   3.10029
   R16        3.14606  -0.00006   0.00000  -0.00016  -0.00012   3.14594
   R17        3.09896  -0.00003   0.00000  -0.00007  -0.00006   3.09891
   R18        3.11857   0.00010   0.00000   0.00024   0.00062   3.11919
   R19        3.13188   0.00043   0.00000   0.00105   0.00145   3.13333
   R20        3.12050  -0.00075   0.00000  -0.00176  -0.00174   3.11876
   R21        1.82144  -0.00000   0.00000  -0.00000   0.00001   1.82145
   R22        1.82065  -0.00002   0.00000  -0.00004   0.00024   1.82089
   R23        1.82104  -0.00008   0.00000  -0.00015   0.00012   1.82116
   R24        1.84058   0.00000   0.00000   0.00000   0.00001   1.84058
   R25        1.84398   0.00001   0.00000   0.00002   0.00003   1.84401
   R26        1.81928   0.00002   0.00000   0.00003   0.00006   1.81933
   R27        1.82086   0.00001   0.00000   0.00002   0.00005   1.82091
   R28        1.85885   0.00003   0.00000   0.00006   0.00008   1.85893
[...]
 Alpha virt. eigenvalues --    3.47676   3.48237   3.48743   3.48832   3.52162
 Alpha virt. eigenvalues --    3.52922   3.53784   3.60126   3.61183   3.62106
 Alpha virt. eigenvalues --    3.65937   4.31429   4.59477   8.00853  31.29348
          Condensed to atoms (all electrons):
               1          2          3          4          5          6
     1  Zr  14.821096  -0.039873  -0.018253  -0.097262  -0.205234  -0.659207
     2  O   -0.039873   8.850202   0.018094  -0.044426  -0.062080   0.075173
     3  O   -0.018253   0.018094   8.850348   0.017557  -0.050036  -0.000214
     4  O   -0.097262  -0.044426   0.017557   8.815589  -0.055756  -0.697487
     5  O   -0.205234  -0.062080  -0.050036  -0.055756   9.462412  -0.011429
     6  Si  -0.659207   0.075173  -0.000214  -0.697487  -0.011429  14.133547
     7  Si  -0.571248  -0.022122  -0.878083  -0.010691  -0.036930   0.079892
     8  Si  -0.612486  -0.757788  -0.010493   0.058931  -0.018484   0.013671
     9  Si  -0.215620  -0.041892  -0.035202  -0.035641  -1.191771   0.032297
    10  O   -0.016247   0.001208  -0.000998   0.000746   0.120547  -0.001995
    11  O   -0.071885   0.003146   0.003113   0.001484   0.307371  -0.000276
    12  O    0.037506   0.000482   0.003992   0.002028   0.130233  -0.003043
    13  O   -0.031894   0.254400   0.002002  -0.016517  -0.000226   0.042041
    14  O   -0.019164   0.255255  -0.016460  -0.001802   0.001954   0.002693
    15  O   -0.044441   0.245504  -0.000446   0.002550   0.000643  -0.010163
    16  O   -0.140677   0.005440  -0.000226   0.344638   0.003474  -0.434322
    17  O   -0.043416  -0.041565   0.009622   0.215022   0.001222  -0.472838
    18  O   -0.006918  -0.018310   0.003891   0.194500  -0.000949  -0.474395
    19  O   -0.000850   0.008559   0.261997   0.009368   0.002216  -0.005128
    20  O   -0.138166  -0.000787   0.164720  -0.000783   0.001612   0.008808
    21  O    0.027465   0.011299   0.149479   0.003261   0.000150  -0.010415
    22  H   -0.006877  -0.000009  -0.000001  -0.000007   0.006529   0.000069
    23  H   -0.008540  -0.000010  -0.000002  -0.000042  -0.024192   0.000117
    24  H   -0.006180  -0.000140  -0.000013   0.000009  -0.005853   0.000147
    25  H    0.023955  -0.021131  -0.000147  -0.000607  -0.000022  -0.001180
    26  H   -0.006639  -0.016185   0.000018  -0.000012  -0.000025   0.000320
    27  H    0.003170  -0.021170   0.000690  -0.001639   0.000025   0.010440
    28  H    0.004811  -0.000011  -0.018501  -0.000013  -0.000014  -0.000259
    29  H    0.001583  -0.005557  -0.020040  -0.000208  -0.000075   0.000696
    30  H    0.000208  -0.000013   0.000181  -0.000447  -0.000010  -0.000643
    31  H    0.001855   0.000350  -0.000019  -0.017764  -0.000012   0.059939
    32  H    0.002086  -0.000026   0.000035   0.010772   0.000003   0.020806
    33  H   -0.014924   0.000980  -0.010275  -0.009136  -0.000099   0.051604
               7          8          9         10         11         12
     1  Zr  -0.571248  -0.612486  -0.215620  -0.016247  -0.071885   0.037506
     2  O   -0.022122  -0.757788  -0.041892   0.001208   0.003146   0.000482
     3  O   -0.878083  -0.010493  -0.035202  -0.000998   0.003113   0.003992
     4  O   -0.010691   0.058931  -0.035641   0.000746   0.001484   0.002028
     5  O   -0.036930  -0.018484  -1.191771   0.120547   0.307371   0.130233
     6  Si   0.079892   0.013671   0.032297  -0.001995  -0.000276  -0.003043
     7  Si  13.776939   0.164360   0.017239  -0.000178  -0.001193   0.003339
     8  Si   0.164360  13.749582   0.027805  -0.001251   0.001003  -0.001337
     9  Si   0.017239   0.027805  14.084020  -0.062101  -0.164299  -0.152585
    10  O   -0.000178  -0.001251  -0.062101   8.514875   0.026412   0.025248
    11  O   -0.001193   0.001003  -0.164299   0.026412   8.504867  -0.057185
    12  O    0.003339  -0.001337  -0.152585   0.025248  -0.057185   8.590140
    13  O    0.004549  -0.124905   0.000455   0.000000   0.000016   0.000001
    14  O    0.008304  -0.530089  -0.001157  -0.000003  -0.000001   0.000008
    15  O   -0.004147  -0.368847  -0.001449  -0.000002  -0.000017  -0.000013
    16  O    0.003986  -0.007544  -0.000634   0.000004  -0.000007  -0.000002
    17  O   -0.008715   0.086934   0.001875   0.000000   0.000005  -0.000006
    18  O   -0.000893   0.073328   0.003843   0.000000   0.000009   0.000000
    19  O   -0.409547  -0.016680   0.001012   0.000008  -0.000002  -0.000029
    20  O   -0.112844   0.009566   0.002850   0.000009  -0.000002  -0.000050
    21  O    0.030144  -0.045866  -0.001173  -0.000001  -0.000000   0.000009
    22  H   -0.000093   0.000067   0.044373  -0.006896  -0.004698   0.221017
    23  H    0.000069   0.000058   0.080773   0.228882  -0.005949   0.005573
    24  H    0.000041   0.000049   0.037092   0.007199   0.244254  -0.007500
    25  H   -0.000428   0.051477  -0.000249  -0.000000  -0.000000  -0.000000
    26  H    0.000589   0.067797  -0.000113   0.000000   0.000000  -0.000000
    27  H    0.001787   0.080583   0.000036   0.000000  -0.000000  -0.000000
    28  H    0.057301   0.000019  -0.000134  -0.000000  -0.000000  -0.000001
    29  H    0.047812   0.024227  -0.000080   0.000000   0.000000  -0.000000
    30  H    0.041068   0.000111   0.000018  -0.000000   0.000000   0.000000
    31  H    0.000107  -0.002286  -0.000060   0.000000  -0.000000   0.000000
    32  H   -0.000571   0.000055   0.000028  -0.000000   0.000000  -0.000000
    33  H    0.021680  -0.000151   0.000051  -0.000000   0.000000   0.000000
              13         14         15         16         17         18
     1  Zr  -0.031894  -0.019164  -0.044441  -0.140677  -0.043416  -0.006918
     2  O    0.254400   0.255255   0.245504   0.005440  -0.041565  -0.018310
     3  O    0.002002  -0.016460  -0.000446  -0.000226   0.009622   0.003891
     4  O   -0.016517  -0.001802   0.002550   0.344638   0.215022   0.194500
     5  O   -0.000226   0.001954   0.000643   0.003474   0.001222  -0.000949
     6  Si   0.042041   0.002693  -0.010163  -0.434322  -0.472838  -0.474395
     7  Si   0.004549   0.008304  -0.004147   0.003986  -0.008715  -0.000893
     8  Si  -0.124905  -0.530089  -0.368847  -0.007544   0.086934   0.073328
     9  Si   0.000455  -0.001157  -0.001449  -0.000634   0.001875   0.003843
    10  O    0.000000  -0.000003  -0.000002   0.000004   0.000000   0.000000
    11  O    0.000016  -0.000001  -0.000017  -0.000007   0.000005   0.000009
    12  O    0.000001   0.000008  -0.000013  -0.000002  -0.000006   0.000000
    13  O    8.640366   0.023044  -0.116979   0.003851  -0.028225  -0.041835
    14  O    0.023044   8.824383   0.157381   0.002850  -0.028547  -0.022819
    15  O   -0.116979   0.157381   8.770423  -0.000166   0.003734   0.001118
    16  O    0.003851   0.002850  -0.000166   8.919642  -0.094643  -0.106569
    17  O   -0.028225  -0.028547   0.003734  -0.094643   8.946518   0.221548
    18  O   -0.041835  -0.022819   0.001118  -0.106569   0.221548   9.033170
    19  O    0.000225   0.002220   0.000309  -0.001317  -0.032765   0.000134
    20  O    0.000010  -0.000785   0.000005   0.000062  -0.000726   0.000010
    21  O   -0.000547   0.025668   0.000867  -0.000196  -0.005471   0.000401
    22  H   -0.000000  -0.000000   0.000000   0.000000   0.000000  -0.000000
    23  H    0.000000   0.000000   0.000000  -0.000000   0.000000   0.000000
    24  H   -0.000001   0.000000   0.000001   0.000000  -0.000000  -0.000000
    25  H    0.217374  -0.009356   0.007696  -0.000242   0.000598   0.015520
    26  H   -0.006704   0.001771   0.224655   0.000000  -0.000020   0.000011
    27  H   -0.004670   0.205338  -0.000063   0.000291   0.018374  -0.000822
    28  H   -0.000000  -0.000004  -0.000001  -0.000000   0.000002  -0.000000
    29  H    0.000766   0.013481  -0.001488  -0.000003  -0.000747  -0.000003
    30  H    0.000001  -0.000021   0.000001   0.000105  -0.000480  -0.000007
    31  H    0.002436   0.000063  -0.000020   0.005397  -0.001248   0.217337
    32  H   -0.000006  -0.000007   0.000000   0.235315  -0.003556   0.003999
    33  H    0.000224   0.001887  -0.000052   0.000212   0.230120   0.002316
              19         20         21         22         23         24
     1  Zr  -0.000850  -0.138166   0.027465  -0.006877  -0.008540  -0.006180
     2  O    0.008559  -0.000787   0.011299  -0.000009  -0.000010  -0.000140
     3  O    0.261997   0.164720   0.149479  -0.000001  -0.000002  -0.000013
     4  O    0.009368  -0.000783   0.003261  -0.000007  -0.000042   0.000009
     5  O    0.002216   0.001612   0.000150   0.006529  -0.024192  -0.005853
     6  Si  -0.005128   0.008808  -0.010415   0.000069   0.000117   0.000147
     7  Si  -0.409547  -0.112844   0.030144  -0.000093   0.000069   0.000041
     8  Si  -0.016680   0.009566  -0.045866   0.000067   0.000058   0.000049
     9  Si   0.001012   0.002850  -0.001173   0.044373   0.080773   0.037092
    10  O    0.000008   0.000009  -0.000001  -0.006896   0.228882   0.007199
    11  O   -0.000002  -0.000002  -0.000000  -0.004698  -0.005949   0.244254
    12  O   -0.000029  -0.000050   0.000009   0.221017   0.005573  -0.007500
    13  O    0.000225   0.000010  -0.000547  -0.000000   0.000000  -0.000001
    14  O    0.002220  -0.000785   0.025668  -0.000000   0.000000   0.000000
    15  O    0.000309   0.000005   0.000867   0.000000   0.000000   0.000001
    16  O   -0.001317   0.000062  -0.000196   0.000000  -0.000000   0.000000
    17  O   -0.032765  -0.000726  -0.005471   0.000000   0.000000  -0.000000
    18  O    0.000134   0.000010   0.000401  -0.000000   0.000000  -0.000000
    19  O    8.877117   0.034236   0.023355  -0.000000   0.000000  -0.000000
    20  O    0.034236   8.658668  -0.054396   0.000000   0.000000  -0.000000
    21  O    0.023355  -0.054396   8.480261  -0.000000   0.000000   0.000000
    22  H   -0.000000   0.000000  -0.000000   0.363190   0.000071   0.000131
    23  H    0.000000   0.000000   0.000000   0.000071   0.350815   0.000015
    24  H   -0.000000  -0.000000   0.000000   0.000131   0.000015   0.367173
    25  H   -0.000034   0.000000  -0.000014   0.000000   0.000000   0.000000
    26  H    0.000000  -0.000000   0.000037  -0.000000   0.000000  -0.000000
    27  H   -0.000183   0.000222  -0.004766  -0.000000  -0.000000   0.000000
    28  H    0.004265   0.228838  -0.001705  -0.000000   0.000000   0.000000
    29  H   -0.008620   0.007985   0.208097   0.000000  -0.000000  -0.000000
    30  H    0.223811  -0.001533  -0.007155   0.000000  -0.000000  -0.000000
    31  H    0.000003  -0.000000  -0.000000  -0.000000  -0.000000   0.000000
    32  H    0.000097   0.000000   0.000001  -0.000000   0.000000  -0.000000
    33  H    0.014058  -0.000108   0.001400  -0.000000  -0.000000  -0.000000
              25         26         27         28         29         30
     1  Zr   0.023955  -0.006639   0.003170   0.004811   0.001583   0.000208
     2  O   -0.021131  -0.016185  -0.021170  -0.000011  -0.005557  -0.000013
     3  O   -0.000147   0.000018   0.000690  -0.018501  -0.020040   0.000181
     4  O   -0.000607  -0.000012  -0.001639  -0.000013  -0.000208  -0.000447
     5  O   -0.000022  -0.000025   0.000025  -0.000014  -0.000075  -0.000010
     6  Si  -0.001180   0.000320   0.010440  -0.000259   0.000696  -0.000643
     7  Si  -0.000428   0.000589   0.001787   0.057301   0.047812   0.041068
     8  Si   0.051477   0.067797   0.080583   0.000019   0.024227   0.000111
     9  Si  -0.000249  -0.000113   0.000036  -0.000134  -0.000080   0.000018
    10  O   -0.000000   0.000000   0.000000  -0.000000   0.000000  -0.000000
    11  O   -0.000000   0.000000  -0.000000  -0.000000   0.000000   0.000000
    12  O   -0.000000  -0.000000  -0.000000  -0.000001  -0.000000   0.000000
    13  O    0.217374  -0.006704  -0.004670  -0.000000   0.000766   0.000001
    14  O   -0.009356   0.001771   0.205338  -0.000004   0.013481  -0.000021
    15  O    0.007696   0.224655  -0.000063  -0.000001  -0.001488   0.000001
    16  O   -0.000242   0.000000   0.000291  -0.000000  -0.000003   0.000105
    17  O    0.000598  -0.000020   0.018374   0.000002  -0.000747  -0.000480
    18  O    0.015520   0.000011  -0.000822  -0.000000  -0.000003  -0.000007
    19  O   -0.000034   0.000000  -0.000183   0.004265  -0.008620   0.223811
    20  O    0.000000  -0.000000   0.000222   0.228838   0.007985  -0.001533
    21  O   -0.000014   0.000037  -0.004766  -0.001705   0.208097  -0.007155
    22  H    0.000000  -0.000000  -0.000000  -0.000000   0.000000   0.000000
    23  H    0.000000   0.000000  -0.000000   0.000000  -0.000000  -0.000000
    24  H    0.000000  -0.000000   0.000000   0.000000  -0.000000  -0.000000
    25  H    0.300954  -0.000038   0.000061   0.000000   0.000000   0.000000
    26  H   -0.000038   0.367549  -0.000039   0.000000   0.000015  -0.000000
    27  H    0.000061  -0.000039   0.284388  -0.000000  -0.001009   0.000009
    28  H    0.000000   0.000000  -0.000000   0.349012  -0.000016  -0.000010
    29  H    0.000000   0.000015  -0.001009  -0.000016   0.286409   0.000163
    30  H    0.000000  -0.000000   0.000009  -0.000010   0.000163   0.334179
    31  H   -0.000239   0.000000   0.000015   0.000000   0.000000  -0.000000
    32  H   -0.000001  -0.000000  -0.000000   0.000000  -0.000000  -0.000000
    33  H    0.000007   0.000000  -0.002520  -0.000002   0.000123  -0.001034
              31         32         33
     1  Zr   0.001855   0.002086  -0.014924
     2  O    0.000350  -0.000026   0.000980
     3  O   -0.000019   0.000035  -0.010275
     4  O   -0.017764   0.010772  -0.009136
     5  O   -0.000012   0.000003  -0.000099
     6  Si   0.059939   0.020806   0.051604
     7  Si   0.000107  -0.000571   0.021680
     8  Si  -0.002286   0.000055  -0.000151
     9  Si  -0.000060   0.000028   0.000051
    10  O    0.000000  -0.000000  -0.000000
    11  O   -0.000000   0.000000   0.000000
    12  O    0.000000  -0.000000   0.000000
    13  O    0.002436  -0.000006   0.000224
    14  O    0.000063  -0.000007   0.001887
    15  O   -0.000020   0.000000  -0.000052
    16  O    0.005397   0.235315   0.000212
    17  O   -0.001248  -0.003556   0.230120
    18  O    0.217337   0.003999   0.002316
    19  O    0.000003   0.000097   0.014058
    20  O   -0.000000   0.000000  -0.000108
    21  O   -0.000000   0.000001   0.001400
    22  H   -0.000000  -0.000000  -0.000000
    23  H   -0.000000   0.000000  -0.000000
    24  H    0.000000  -0.000000  -0.000000
    25  H   -0.000239  -0.000001   0.000007
    26  H    0.000000  -0.000000   0.000000
    27  H    0.000015  -0.000000  -0.002520
    28  H    0.000000   0.000000  -0.000002
    29  H    0.000000  -0.000000   0.000123
    30  H   -0.000000  -0.000000  -0.001034
    31  H    0.327118  -0.000012  -0.000036
    32  H   -0.000012   0.349093   0.000149
    33  H   -0.000036   0.000149   0.270278
 Mulliken charges:
               1
     1  Zr   0.052268
     2  O   -0.636998
     3  O   -0.426329
     4  O   -0.686215
     5  O   -0.375197
     6  Si   2.250735
     7  Si   1.798479
     8  Si   2.088584
     9  Si   1.570395
    10  O   -0.835465
    11  O   -0.786167
    12  O   -0.797824
    13  O   -0.819252
    14  O   -0.896085
    15  O   -0.866592
    16  O   -0.738720
    17  O   -0.972609
    18  O   -1.097618
    19  O   -0.987833
    20  O   -0.807425
    21  O   -0.830189
    22  H    0.383135
    23  H    0.372361
    24  H    0.363575
    25  H    0.416045
    26  H    0.367012
    27  H    0.431452
    28  H    0.376422
    29  H    0.446490
    30  H    0.411497
    31  H    0.407077
    32  H    0.381740
    33  H    0.443252
 Sum of Mulliken charges =  -0.00000
 Mulliken charges with hydrogens summed into heavy atoms:
               1
     1  Zr   0.052268
     2  O   -0.636998
     3  O   -0.426329
     4  O   -0.686215
     5  O   -0.375197
     6  Si   2.250735
     7  Si   1.798479
     8  Si   2.088584
     9  Si   1.570395
    10  O   -0.463104
    11  O   -0.422592
    12  O   -0.414689
    13  O   -0.403207
    14  O   -0.464633
    15  O   -0.499579
    16  O   -0.356980
    17  O   -0.529357
    18  O   -0.690541
    19  O   -0.576336
    20  O   -0.431003
    21  O   -0.383699
 Electronic spatial extent (au):  <R**2>=           9888.6022
 Charge=              0.0000 electrons
 Dipole moment (field-independent basis, Debye):
    X=              3.0295    Y=             -1.5201    Z=             -2.6566  Tot=              4.3065
 Quadrupole moment (field-independent basis, Debye-Ang):
   XX=           -167.1198   YY=           -153.0536   ZZ=           -157.4842
   XY=             -7.6678   XZ=             12.7985   YZ=              2.2789
 Traceless Quadrupole moment (field-independent basis, Debye-Ang):
   XX=             -7.9006   YY=              6.1656   ZZ=              1.7350
   XY=             -7.6678   XZ=             12.7985   YZ=              2.2789
 Octapole moment (field-independent basis, Debye-Ang**2):
  XXX=             95.5140  YYY=             -0.0934  ZZZ=            -24.8696  XYY=             -4.5032
  XXY=             30.1036  XXZ=            -22.0152  XZZ=             56.4716  YZZ=            -30.2195
  YYZ=             -2.8826  XYZ=             15.8425
 Hexadecapole moment (field-independent basis, Debye-Ang**3):
 XXXX=          -6036.3952 YYYY=          -2801.5937 ZZZZ=          -2240.2109 XXXY=             27.2801
 XXXZ=            129.9143 YYYX=             -1.8761 YYYZ=            189.4523 ZZZX=             20.7933
 ZZZY=           -108.1515 XXYY=          -1526.6471 XXZZ=          -1508.4294 YYZZ=           -917.7497
 XXYZ=             19.0388 YYXZ=            152.0019 ZZXY=           -105.0205
 N-N= 2.831277385222D+03 E-N=-1.137508951438D+04  KE= 2.373154554498D+03
 1\1\GINC-GRA1303\FOpt\RB3LYP\Gen\H12O16Si4Zr1\SARASHS\02-Aug-2020\0\\#
 n B3LYP/Gen Pseudo=cards EmpiricalDispersion=GD3 Opt=modredundant\\Tit
 le\\0,1\Zr,0.6461361039,-0.2022862831,-0.1312177686\O,-0.2135883426,-0
 .964406544,1.4388888783\O,0.1822373489,1.695561295,-0.1450694589\O,-0.
 3654463495,-1.0002749514,-1.6323611827\O,2.5631999289,-0.5984705377,-0
 .2176344052\Si,-1.9565528132,-1.3029150005,-1.899090403\Si,-0.97441364
 96,2.8531869771,-0.0647031896\Si,-1.7026727042,-1.0909199082,2.1623702
 707\Si,4.1988034588,-0.5965729294,-0.2187339323\O,4.8617514887,-0.1888
 582888,-1.6744744433\O,4.7759028217,-2.1165568894,0.1078885075\O,4.629
 4943423,0.5433305568,0.8933297586\O,-2.3646010929,-2.5444684956,1.7863
 819655\O,-2.6357435364,0.1846658558,1.639886815\O,-1.5966296448,-0.894
 2758729,3.7871198755\O,-2.2318641315,-1.5335173158,-3.5086212751\O,-2.
 8690143756,-0.1162009547,-1.2022501396\O,-2.4608491879,-2.6680530447,-
 1.0934048779\O,-1.9838344409,2.4775339041,-1.3582415171\O,-0.421373659
 6,4.3796656211,-0.3329189605\O,-1.7563073392,2.8445978931,1.3729608784
 \H,5.5464557656,0.8391874838,0.8784560337\H,5.1106193285,-0.9245894893
 ,-2.2452687625\H,4.3735718066,-2.5955440965,0.8406487873\H,-2.42562493
 58,-2.7636350517,0.8392964903\H,-1.0563601071,-1.5239163261,4.27542068
 54\H,-3.0305643602,0.0418736003,0.7588187937\H,-0.2703553607,4.9189809
 715,0.4517434692\H,-2.1003736498,1.9778122955,1.6726578979\H,-2.577839
 452,3.1868100955,-1.6340316476\H,-2.5668655096,-3.4637088088,-1.626861
 9985\H,-1.5263646501,-1.2692940896,-4.1094182755\H,-2.6207631007,0.814
 9783287,-1.400076869\\Version=ES64L-G16RevB.01\State=1-A\HF=-2416.9457
 722\RMSD=5.604e-09\RMSF=5.926e-05\Dipole=1.0896174,-0.6536188,-1.12079
 73\Quadrupole=-5.7607138,5.3309907,0.4297231,-5.0828369,9.7975136,1.33
 4047\PG=C01 [X(H12O16Si4Zr1)]\\@


 EVERYTHING'S GOT A MORAL, IF ONLY YOU CAN FIND IT.

                                    -- LEWIS CARROL, ALICE IN WONDERLAND
 Job cpu time:       1 days 10 hours 24 minutes 39.8 seconds.
 Elapsed time:       0 days  2 hours 37 minutes 20.5 seconds.
 File lengths (MBytes):  RWF=    167 Int=      0 D2E=      0 Chk=     21 Scr=      1
 Normal termination of Gaussian 16 at Sun Aug  2 09:45:08 2020.
