 Entering Gaussian System, Link 0=g16
 Initial command:
 /opt/software/gaussian/g16.b01/l1.exe "/localscratch/sarashs.37122000.0/Gau-22978.inp" -scrdir="/localscratch/sarashs.37122000.0/"
 Entering Link 1 = /opt/software/gaussian/g16.b01/l1.exe PID=     22979.
  
 Copyright (c) 1988-2017, Gaussian, Inc.  All Rights Reserved.
  
 This is part of the Gaussian(R) 16 program.  It is based on
 the Gaussian(R) 09 system (copyright 2009, Gaussian, Inc.),
 the Gaussian(R) 03 system (copyright 2003, Gaussian, Inc.),
 the Gaussian(R) 98 system (copyright 1998, Gaussian, Inc.),
 the Gaussian(R) 94 system (copyright 1995, Gaussian, Inc.),
 the Gaussian 92(TM) system (copyright 1992, Gaussian, Inc.),
 the Gaussian 90(TM) system (copyright 1990, Gaussian, Inc.),
 the Gaussian 88(TM) system (copyright 1988, Gaussian, Inc.),
 the Gaussian 86(TM) system (copyright 1986, Carnegie Mellon
 University), and the Gaussian 82(TM) system (copyright 1983,
 Carnegie Mellon University). Gaussian is a federally registered
 trademark of Gaussian, Inc.
  
 This software contains proprietary and confidential information,
 including trade secrets, belonging to Gaussian, Inc.
  
 This software is provided under written license and may be
 used, copied, transmitted, or stored only in accord with that
 written license.
  
 The following legend is applicable only to US Government
 contracts under FAR:
  
                    RESTRICTED RIGHTS LEGEND
  
 Use, reproduction and disclosure by the US Government is
 subject to restrictions as set forth in subparagraphs (a)
 and (c) of the Commercial Computer Software - Restricted
 Rights clause in FAR 52.227-19.
  
 Gaussian, Inc.
 340 Quinnipiac St., Bldg. 40, Wallingford CT 06492
  
  
 ---------------------------------------------------------------
 Warning -- This program may not be used in any manner that
 competes with the business of Gaussian, Inc. or will provide
 assistance to any competitor of Gaussian, Inc.  The licensee
 of this program is prohibited from giving any competitor of
 Gaussian, Inc. access to this program.  By using this program,
 the user acknowledges that Gaussian, Inc. is engaged in the
 business of creating and licensing software in the field of
 computational chemistry and represents and warrants to the
 licensee that it is not a competitor of Gaussian, Inc. and that
 it will not use this program in any manner prohibited above.
 ---------------------------------------------------------------
  

 Cite this work as:
 Gaussian 16, Revision B.01,
 M. J. Frisch, G. W. Trucks, H. B. Schlegel, G. E. Scuseria, 
 M. A. Robb, J. R. Cheeseman, G. Scalmani, V. Barone, 
 G. A. Petersson, H. Nakatsuji, X. Li, M. Caricato, A. V. Marenich, 
 J. Bloino, B. G. Janesko, R. Gomperts, B. Mennucci, H. P. Hratchian, 
 J. V. Ortiz, A. F. Izmaylov, J. L. Sonnenberg, D. Williams-Young, 
 F. Ding, F. Lipparini, F. Egidi, J. Goings, B. Peng, A. Petrone, 
 T. Henderson, D. Ranasinghe, V. G. Zakrzewski, J. Gao, N. Rega, 
 G. Zheng, W. Liang, M. Hada, M. Ehara, K. Toyota, R. Fukuda, 
 J. Hasegawa, M. Ishida, T. Nakajima, Y. Honda, O. Kitao, H. Nakai, 
 T. Vreven, K. Throssell, J. A. Montgomery, Jr., J. E. Peralta, 
 F. Ogliaro, M. J. Bearpark, J. J. Heyd, E. N. Brothers, K. N. Kudin, 
 V. N. Staroverov, T. A. Keith, R. Kobayashi, J. Normand, 
 K. Raghavachari, A. P. Rendell, J. C. Burant, S. S. Iyengar, 
 J. Tomasi, M. Cossi, J. M. Millam, M. Klene, C. Adamo, R. Cammi, 
 J. W. Ochterski, R. L. Martin, K. Morokuma, O. Farkas, 
 J. B. Foresman, and D. J. Fox, Gaussian, Inc., Wallingford CT, 2016.
 
 ******************************************
 Gaussian 16:  ES64L-G16RevB.01 20-Dec-2017
                10-Aug-2020 
 ******************************************
 %NProcShared=16
 Will use up to   16 processors via shared memory.
 -----------------------------------------------------
 #n B3LYP/Gen Pseudo=cards EmpiricalDispersion=GD3 Opt
 -----------------------------------------------------
 1/18=20,19=15,26=3,38=1/1,3;
 2/9=110,12=2,17=6,18=5,40=1/2;
 3/5=7,11=2,16=1,17=8,25=1,30=1,71=1,74=-5,124=31/1,2,3;
 4//1;
 5/5=2,38=5/2;
 6/7=2,8=2,9=2,10=2,28=1/1;
 7//1,2,3,16;
 1/18=20,19=15,26=3/3(2);
 2/9=110/2;
 99//99;
 2/9=110/2;
 3/5=7,6=1,11=2,16=1,17=8,25=1,30=1,71=1,74=-5,82=7,124=31/1,2,3;
 4/5=5,16=3,69=1/1;
 5/5=2,38=5/2;
 7//1,2,3,16;
 1/18=20,19=15,26=3/3(-5);
 2/9=110/2;
 6/7=2,8=2,9=2,10=2,19=2,28=1/1;
 99/9=1/99;
 -----
 Title
 -----
 Symbolic Z-matrix:
 Charge =  0 Multiplicity = 1
 Zr                    0.65975   0.02348  -0.04137 
 O                    -0.15403  -0.84677   1.49671 
 O                    -0.09409   1.82629  -0.10699 
 O                    -0.13959  -0.93234  -1.57718 
 O                     2.61324  -0.06636  -0.00522 
 Si                   -1.64773  -1.45251  -1.96457 
 Si                   -1.42337   2.78306  -0.09917 
 Si                   -1.63366  -1.24958   2.10477 
 Si                    4.24883  -0.08448   0.02773 
 O                     4.93694  -0.31218  -1.45597 
 O                     4.78905  -1.35152   0.95098 
 O                     4.68949   1.40094   0.5913 
 O                    -2.05987  -2.77746   1.68323 
 O                    -2.74527  -0.14709   1.51229 
 O                    -1.5557   -1.09671   3.73538 
 O                    -1.75865  -1.70229  -3.59043 
 O                    -2.77149  -0.41728  -1.33923 
 O                    -2.02539  -2.87865  -1.19589 
 O                    -2.27187   2.27762  -1.46211 
 O                    -1.11      4.38359  -0.31697 
 O                    -2.28838   2.61829   1.28112 
 H                     5.61543   1.64603   0.48615 
 H                     5.17954  -1.22002  -1.67067 
 H                     4.36644  -1.49189   1.80564 
 H                    -2.10962  -2.97456   0.73058 
 H                    -2.32373  -1.38219   4.242 
 H                    -3.04659  -0.3331    0.602 
 H                    -1.08221   4.92383   0.48093 
 H                    -2.49711   1.70015   1.5528 
 H                    -2.94242   2.89508  -1.77997 
 H                    -1.89447  -3.68639  -1.70528 
 H                    -1.05215  -1.333    -4.1319 
 H                    -2.65533   0.54119  -1.52832 
 

 GradGradGradGradGradGradGradGradGradGradGradGradGradGradGradGradGradGrad
 Berny optimization.
 Initialization pass.
                           ----------------------------
                           !    Initial Parameters    !
                           ! (Angstroms and Degrees)  !
 --------------------------                            --------------------------
 ! Name  Definition              Value          Derivative Info.                !
 --------------------------------------------------------------------------------
 ! R1    R(1,2)                  1.9456         estimate D2E/DX2                !
 ! R2    R(1,3)                  1.9552         estimate D2E/DX2                !
 ! R3    R(1,4)                  1.9777         estimate D2E/DX2                !
 ! R4    R(1,5)                  1.9559         estimate D2E/DX2                !
 ! R5    R(2,8)                  1.6496         estimate D2E/DX2                !
 ! R6    R(3,7)                  1.6378         estimate D2E/DX2                !
 ! R7    R(4,6)                  1.6417         estimate D2E/DX2                !
 ! R8    R(5,9)                  1.636          estimate D2E/DX2                !
 ! R9    R(6,16)                 1.6487         estimate D2E/DX2                !
 ! R10   R(6,17)                 1.6509         estimate D2E/DX2                !
 ! R11   R(6,18)                 1.6635         estimate D2E/DX2                !
 ! R12   R(7,19)                 1.6832         estimate D2E/DX2                !
 ! R13   R(7,20)                 1.6454         estimate D2E/DX2                !
 ! R14   R(7,21)                 1.6373         estimate D2E/DX2                !
 ! R15   R(8,13)                 1.6413         estimate D2E/DX2                !
 ! R16   R(8,14)                 1.674          estimate D2E/DX2                !
 ! R17   R(8,15)                 1.6396         estimate D2E/DX2                !
 ! R18   R(9,10)                 1.6513         estimate D2E/DX2                !
 ! R19   R(9,11)                 1.6582         estimate D2E/DX2                !
 ! R20   R(9,12)                 1.6487         estimate D2E/DX2                !
 ! R21   R(10,23)                0.9639         estimate D2E/DX2                !
 ! R22   R(11,24)                0.9637         estimate D2E/DX2                !
 ! R23   R(12,22)                0.9636         estimate D2E/DX2                !
 ! R24   R(13,25)                0.9741         estimate D2E/DX2                !
 ! R25   R(14,27)                0.9767         estimate D2E/DX2                !
 ! R26   R(15,26)                0.9633         estimate D2E/DX2                !
 ! R27   R(16,32)                0.9637         estimate D2E/DX2                !
 ! R28   R(17,33)                0.9838         estimate D2E/DX2                !
 ! R29   R(18,31)                0.9639         estimate D2E/DX2                !
 ! R30   R(19,30)                0.9654         estimate D2E/DX2                !
 ! R31   R(20,28)                0.964          estimate D2E/DX2                !
 ! R32   R(21,29)                0.98           estimate D2E/DX2                !
 ! A1    A(2,1,3)              106.1229         estimate D2E/DX2                !
 ! A2    A(2,1,4)              103.2194         estimate D2E/DX2                !
 ! A3    A(2,1,5)              112.495          estimate D2E/DX2                !
 ! A4    A(3,1,4)              105.2921         estimate D2E/DX2                !
 ! A5    A(3,1,5)              115.3448         estimate D2E/DX2                !
 ! A6    A(4,1,5)              113.3183         estimate D2E/DX2                !
 ! A7    A(1,2,8)              140.8767         estimate D2E/DX2                !
 ! A8    A(1,3,7)              148.3665         estimate D2E/DX2                !
 ! A9    A(1,4,6)              135.0467         estimate D2E/DX2                !
 ! A10   A(4,6,16)             110.0301         estimate D2E/DX2                !
 ! A11   A(4,6,17)             109.709          estimate D2E/DX2                !
 ! A12   A(4,6,18)             111.7864         estimate D2E/DX2                !
 ! A13   A(16,6,17)            115.0082         estimate D2E/DX2                !
 ! A14   A(16,6,18)            108.0911         estimate D2E/DX2                !
 ! A15   A(17,6,18)            102.0062         estimate D2E/DX2                !
 ! A16   A(3,7,19)             103.2883         estimate D2E/DX2                !
 ! A17   A(3,7,20)             114.3962         estimate D2E/DX2                !
 ! A18   A(3,7,21)             111.9649         estimate D2E/DX2                !
 ! A19   A(19,7,20)            106.3157         estimate D2E/DX2                !
 ! A20   A(19,7,21)            112.712          estimate D2E/DX2                !
 ! A21   A(20,7,21)            108.0657         estimate D2E/DX2                !
 ! A22   A(2,8,13)             111.4427         estimate D2E/DX2                !
 ! A23   A(2,8,14)             107.7183         estimate D2E/DX2                !
 ! A24   A(2,8,15)             107.5273         estimate D2E/DX2                !
 ! A25   A(13,8,14)            110.4725         estimate D2E/DX2                !
 ! A26   A(13,8,15)            110.7671         estimate D2E/DX2                !
 ! A27   A(14,8,15)            108.7932         estimate D2E/DX2                !
 ! A28   A(5,9,10)             113.5807         estimate D2E/DX2                !
 ! A29   A(5,9,11)             110.2051         estimate D2E/DX2                !
 ! A30   A(5,9,12)             105.3142         estimate D2E/DX2                !
 ! A31   A(10,9,11)            105.0195         estimate D2E/DX2                !
 ! A32   A(10,9,12)            108.6625         estimate D2E/DX2                !
 ! A33   A(11,9,12)            114.2692         estimate D2E/DX2                !
 ! A34   A(9,10,23)            115.7784         estimate D2E/DX2                !
 ! A35   A(9,11,24)            117.5295         estimate D2E/DX2                !
 ! A36   A(9,12,22)            116.6599         estimate D2E/DX2                !
 ! A37   A(8,13,25)            116.9239         estimate D2E/DX2                !
 ! A38   A(8,14,27)            114.1598         estimate D2E/DX2                !
 ! A39   A(8,15,26)            117.2236         estimate D2E/DX2                !
 ! A40   A(6,16,32)            116.5336         estimate D2E/DX2                !
 ! A41   A(6,17,33)            117.2406         estimate D2E/DX2                !
 ! A42   A(6,18,31)            116.3202         estimate D2E/DX2                !
 ! A43   A(7,19,30)            115.1323         estimate D2E/DX2                !
 ! A44   A(7,20,28)            116.1722         estimate D2E/DX2                !
 ! A45   A(7,21,29)            116.1381         estimate D2E/DX2                !
 ! A46   L(1,5,9,28,-1)        178.0042         estimate D2E/DX2                !
 ! A47   L(1,5,9,28,-2)        180.1694         estimate D2E/DX2                !
 ! D1    D(3,1,2,8)             57.7195         estimate D2E/DX2                !
 ! D2    D(4,1,2,8)            -52.7626         estimate D2E/DX2                !
 ! D3    D(5,1,2,8)           -175.2678         estimate D2E/DX2                !
 ! D4    D(2,1,3,7)            -50.8089         estimate D2E/DX2                !
 ! D5    D(4,1,3,7)             58.2062         estimate D2E/DX2                !
 ! D6    D(5,1,3,7)           -176.091          estimate D2E/DX2                !
 ! D7    D(2,1,4,6)             43.2159         estimate D2E/DX2                !
 ! D8    D(3,1,4,6)            -67.8816         estimate D2E/DX2                !
 ! D9    D(5,1,4,6)            165.1693         estimate D2E/DX2                !
 ! D10   D(2,1,9,10)           142.1924         estimate D2E/DX2                !
 ! D11   D(2,1,9,11)            23.9545         estimate D2E/DX2                !
 ! D12   D(2,1,9,12)           -99.579          estimate D2E/DX2                !
 ! D13   D(3,1,9,10)           -96.2587         estimate D2E/DX2                !
 ! D14   D(3,1,9,11)           145.5034         estimate D2E/DX2                !
 ! D15   D(3,1,9,12)            21.9698         estimate D2E/DX2                !
 ! D16   D(4,1,9,10)            24.9135         estimate D2E/DX2                !
 ! D17   D(4,1,9,11)           -93.3244         estimate D2E/DX2                !
 ! D18   D(4,1,9,12)           143.142          estimate D2E/DX2                !
 ! D19   D(1,2,8,13)            93.7452         estimate D2E/DX2                !
 ! D20   D(1,2,8,14)           -27.5845         estimate D2E/DX2                !
 ! D21   D(1,2,8,15)          -144.6858         estimate D2E/DX2                !
 ! D22   D(1,3,7,19)           -60.5392         estimate D2E/DX2                !
 ! D23   D(1,3,7,20)          -175.6313         estimate D2E/DX2                !
 ! D24   D(1,3,7,21)            60.9962         estimate D2E/DX2                !
 ! D25   D(1,4,6,16)           160.021          estimate D2E/DX2                !
 ! D26   D(1,4,6,17)            32.5353         estimate D2E/DX2                !
 ! D27   D(1,4,6,18)           -79.8691         estimate D2E/DX2                !
 ! D28   D(4,6,16,32)          -14.0761         estimate D2E/DX2                !
 ! D29   D(17,6,16,32)         110.4062         estimate D2E/DX2                !
 ! D30   D(18,6,16,32)        -136.3985         estimate D2E/DX2                !
 ! D31   D(4,6,17,33)           51.0518         estimate D2E/DX2                !
 ! D32   D(16,6,17,33)         -73.599          estimate D2E/DX2                !
 ! D33   D(18,6,17,33)         169.6878         estimate D2E/DX2                !
 ! D34   D(4,6,18,31)          -96.9625         estimate D2E/DX2                !
 ! D35   D(16,6,18,31)          24.2769         estimate D2E/DX2                !
 ! D36   D(17,6,18,31)         145.8883         estimate D2E/DX2                !
 ! D37   D(3,7,19,30)         -162.0502         estimate D2E/DX2                !
 ! D38   D(20,7,19,30)         -41.2965         estimate D2E/DX2                !
 ! D39   D(21,7,19,30)          76.9197         estimate D2E/DX2                !
 ! D40   D(3,7,20,28)          -98.8509         estimate D2E/DX2                !
 ! D41   D(19,7,20,28)         147.8371         estimate D2E/DX2                !
 ! D42   D(21,7,20,28)          26.5959         estimate D2E/DX2                !
 ! D43   D(3,7,21,29)          -49.7536         estimate D2E/DX2                !
 ! D44   D(19,7,21,29)          66.1899         estimate D2E/DX2                !
 ! D45   D(20,7,21,29)        -176.6251         estimate D2E/DX2                !
 ! D46   D(2,8,13,25)          -58.7279         estimate D2E/DX2                !
 ! D47   D(14,8,13,25)          60.9842         estimate D2E/DX2                !
 ! D48   D(15,8,13,25)        -178.396          estimate D2E/DX2                !
 ! D49   D(2,8,14,27)           80.4045         estimate D2E/DX2                !
 ! D50   D(13,8,14,27)         -41.5285         estimate D2E/DX2                !
 ! D51   D(15,8,14,27)        -163.3203         estimate D2E/DX2                !
 ! D52   D(2,8,15,26)         -174.152          estimate D2E/DX2                !
 ! D53   D(13,8,15,26)         -52.162          estimate D2E/DX2                !
 ! D54   D(14,8,15,26)          69.4503         estimate D2E/DX2                !
 ! D55   D(5,9,10,23)          -95.8132         estimate D2E/DX2                !
 ! D56   D(11,9,10,23)          24.6705         estimate D2E/DX2                !
 ! D57   D(12,9,10,23)         147.3409         estimate D2E/DX2                !
 ! D58   D(5,9,11,24)          -45.9543         estimate D2E/DX2                !
 ! D59   D(10,9,11,24)        -168.6445         estimate D2E/DX2                !
 ! D60   D(12,9,11,24)          72.3821         estimate D2E/DX2                !
 ! D61   D(5,9,12,22)         -166.2249         estimate D2E/DX2                !
 ! D62   D(10,9,12,22)         -44.2009         estimate D2E/DX2                !
 ! D63   D(11,9,12,22)          72.6923         estimate D2E/DX2                !
 --------------------------------------------------------------------------------
 Trust Radius=3.00D-01 FncErr=1.00D-07 GrdErr=1.00D-06 EigMax=2.50D+02 EigMin=1.00D-04
 Number of steps in this run=    152 maximum allowed number of steps=    198.
 GradGradGradGradGradGradGradGradGradGradGradGradGradGradGradGradGradGrad

                          Input orientation:                          
 ---------------------------------------------------------------------
 Center     Atomic      Atomic             Coordinates (Angstroms)
 Number     Number       Type             X           Y           Z
 ---------------------------------------------------------------------
      1         40           0        0.659752    0.023482   -0.041370
      2          8           0       -0.154034   -0.846765    1.496713
      3          8           0       -0.094091    1.826287   -0.106990
      4          8           0       -0.139591   -0.932344   -1.577182
      5          8           0        2.613243   -0.066358   -0.005215
      6         14           0       -1.647733   -1.452513   -1.964574
      7         14           0       -1.423366    2.783062   -0.099170
      8         14           0       -1.633656   -1.249583    2.104767
      9         14           0        4.248825   -0.084479    0.027730
     10          8           0        4.936939   -0.312182   -1.455970
     11          8           0        4.789053   -1.351516    0.950982
     12          8           0        4.689491    1.400940    0.591302
     13          8           0       -2.059871   -2.777459    1.683230
     14          8           0       -2.745272   -0.147085    1.512294
     15          8           0       -1.555695   -1.096708    3.735382
     16          8           0       -1.758648   -1.702289   -3.590428
     17          8           0       -2.771490   -0.417281   -1.339230
     18          8           0       -2.025387   -2.878649   -1.195893
     19          8           0       -2.271866    2.277617   -1.462106
     20          8           0       -1.110002    4.383594   -0.316968
     21          8           0       -2.288384    2.618293    1.281118
     22          1           0        5.615432    1.646029    0.486148
     23          1           0        5.179541   -1.220024   -1.670674
     24          1           0        4.366441   -1.491892    1.805638
     25          1           0       -2.109619   -2.974559    0.730583
     26          1           0       -2.323729   -1.382186    4.241995
     27          1           0       -3.046593   -0.333097    0.602004
     28          1           0       -1.082212    4.923833    0.480927
     29          1           0       -2.497107    1.700153    1.552800
     30          1           0       -2.942415    2.895082   -1.779973
     31          1           0       -1.894468   -3.686389   -1.705282
     32          1           0       -1.052151   -1.333002   -4.131900
     33          1           0       -2.655332    0.541188   -1.528324
 ---------------------------------------------------------------------
                    Distance matrix (angstroms):
                    1          2          3          4          5
     1  Zr   0.000000
     2  O    1.945579   0.000000
     3  O    1.955170   3.117798   0.000000
     4  O    1.977693   3.075120   3.126273   0.000000
     5  O    1.955890   3.243863   3.304863   3.286199   0.000000
     6  Si   3.346903   3.818190   4.076144   1.641688   4.890443
     7  Si   3.458035   4.163375   1.637819   4.199624   4.941886
     8  Si   3.389147   1.649628   4.089389   3.986179   4.887555
     9  Si   3.591361   4.703632   4.746588   4.748980   1.636014
    10  O    4.517532   5.909494   5.630636   5.115706   2.750397
    11  O    4.463912   4.998670   5.921388   5.555074   2.701868
    12  O    4.305399   5.415873   4.852957   5.785030   2.611437
    13  O    4.268005   2.719298   5.316357   4.209776   5.660292
    14  O    3.746619   2.684084   3.680358   4.117167   5.569832
    15  O    4.519611   2.653067   5.044205   5.500518   5.695062
    16  O    4.628472   5.402380   5.230291   2.695797   5.885869
    17  O    3.694879   3.883054   3.704116   2.692360   5.558605
    18  O    4.118891   3.857543   5.201157   2.736734   5.553700
    19  O    3.961565   4.795997   2.604370   3.855345   5.610797
    20  O    4.713657   5.617826   2.759707   5.548787   5.810492
    21  O    4.144095   4.075360   2.714597   5.039267   5.734802
    22  H    5.241154   6.365689   5.743079   6.635181   3.490966
    23  H    4.962805   6.214393   6.287791   5.327726   3.269646
    24  H    4.409914   4.576715   5.879184   5.662234   2.895693
    25  H    4.153743   2.989778   5.273709   3.657517   5.595039
    26  H    5.405948   3.539891   5.846303   6.231825   6.644087
    27  H    3.778634   3.071035   3.725974   3.682202   5.698562
    28  H    5.226918   5.932380   3.304061   6.278468   6.228541
    29  H    3.913868   3.461203   2.923234   4.720668   5.627046
    30  H    4.923864   5.702031   3.471908   4.748277   6.541042
    31  H    4.801644   4.620102   6.015438   3.268144   6.026136
    32  H    4.637143   5.720518   5.205659   2.742239   5.662952
    33  H    3.669991   4.163383   3.198691   2.915928   5.517867
                    6          7          8          9         10
     6  Si   0.000000
     7  Si   4.633591   0.000000
     8  Si   4.074422   4.600411   0.000000
     9  Si   6.372612   6.357094   6.346269   0.000000
    10  O    6.702010   7.202425   7.531951   1.651277   0.000000
    11  O    7.067028   7.536027   6.526316   1.658199   2.625929
    12  O    7.405073   6.305080   7.021256   1.648718   2.680922
    13  O    3.902796   5.873796   1.641267   7.056378   8.055279
    14  O    3.872641   3.595833   1.673982   7.150192   8.237367
    15  O    5.711792   5.456548   1.639620   6.961591   8.349845
    16  O    1.648664   5.693827   5.714526   7.197090   7.163742
    17  O    1.650936   3.687463   3.721358   7.159899   7.710029
    18  O    1.663537   5.798293   3.701576   6.976416   7.424849
    19  O    3.815218   1.683158   5.056781   7.093555   7.659893
    20  O    6.088013   1.645398   6.153998   6.985665   7.740357
    21  O    5.245609   1.637254   4.008433   7.184084   8.263451
    22  H    8.268045   7.154028   7.972062   2.252203   2.840205
    23  H    6.837551   7.879892   7.789383   2.245055   0.963914
    24  H    7.098333   7.444823   6.012433   2.270595   3.515006
    25  H    3.129510   5.857443   2.256206   7.019713   7.843675
    26  H    6.243670   6.083228   2.249784   7.914704   9.291341
    27  H    3.130052   3.582870   2.257130   7.322208   8.244542
    28  H    6.852596   2.244059   6.407184   7.328611   8.209604
    29  H    4.799235   2.248247   3.122684   7.142713   8.268448
    30  H    4.540029   2.268294   5.829434   7.991214   8.513268
    31  H    2.262369   6.682464   4.530179   7.329197   7.623356
    32  H    2.250845   5.774313   6.264273   6.852859   6.638665
    33  H    2.276052   2.930225   4.177324   7.104938   7.640422
                   11         12         13         14         15
    11  O    0.000000
    12  O    2.777642   0.000000
    13  O    7.034007   8.012816   0.000000
    14  O    7.650606   7.649857   2.723575   0.000000
    15  O    6.933516   7.424677   2.700082   2.694253   0.000000
    16  O    7.976204   8.288268   5.390565   5.424929   7.353598
    17  O    7.954852   7.918278   3.900270   2.864417   5.262268
    18  O    7.306011   8.160793   2.881107   3.913305   5.264352
    19  O    8.297601   7.310646   5.957506   3.866568   6.238017
    20  O    8.324544   6.584474   7.495580   5.152413   6.830365
    21  O    8.121483   7.116778   5.415538   2.812384   4.512369
    22  H    3.143923   0.963583   8.939269   8.612178   8.336977
    23  H    2.653837   3.496589   8.129167   8.607273   8.637364
    24  H    0.963713   3.153958   6.554781   7.243688   6.241136
    25  H    7.090453   8.086550   0.974094   3.001622   3.586359
    26  H    7.837307   8.382041   2.926378   3.025631   0.963343
    27  H    7.909255   7.928051   2.849136   0.976741   3.553018
    28  H    8.606550   6.762804   7.855651   5.435411   6.860217
    29  H    7.922310   7.256804   4.500800   1.864273   3.670470
    30  H    9.234030   8.130276   6.704504   4.486944   6.948131
    31  H    7.561536   8.631554   3.512197   4.858326   6.035067
    32  H    7.743106   7.921460   6.075993   6.010822   7.886921
    33  H    8.071441   7.692751   4.656401   3.118841   5.621255
                   16         17         18         19         20
    16  O    0.000000
    17  O    2.782982   0.000000
    18  O    2.681188   2.575956   0.000000
    19  O    4.542334   2.743574   5.169013   0.000000
    20  O    6.940768   5.182081   7.372287   2.663908   0.000000
    21  O    6.532994   4.039099   6.034991   2.764346   2.656831
    22  H    9.066794   8.827781   9.037925   8.148869   7.305527
    23  H    7.215019   7.998321   7.408606   8.234103   8.531788
    24  H    8.165691   7.873693   7.196371   8.303883   8.307720
    25  H    4.518073   3.355871   1.930700   5.693818   7.499267
    26  H    7.859302   5.681690   5.647923   6.777434   7.449933
    27  H    4.594559   1.962437   3.279502   3.417101   5.180933
    28  H    7.806343   5.890172   8.036170   3.491864   0.963985
    29  H    6.210856   3.594809   5.361274   3.077963   3.552597
    30  H    5.080834   3.345926   5.875207   0.965370   2.777371
    31  H    2.740233   3.404443   0.963878   5.980880   8.226021
    32  H    0.963692   3.404949   3.457796   4.653179   6.872883
    33  H    3.176398   0.983825   3.493226   1.779499   4.315033
                   21         22         23         24         25
    21  O    0.000000
    22  H    8.002973   0.000000
    23  H    8.900318   3.613328   0.000000
    24  H    7.839352   3.625959   3.580473   0.000000
    25  H    5.622725   9.004776   7.872502   6.730037   0.000000
    26  H    4.977135   9.290143   9.554319   7.120832   3.861542
    27  H    3.121983   8.886002   8.580267   7.598988   2.805668
    28  H    2.722255   7.456706   9.032492   8.520810   7.968845
    29  H    0.979978   8.182540   8.823216   7.573729   4.762260
    30  H    3.142395   8.940480   9.105614   9.247785   6.438100
    31  H    6.987329   9.467610   7.491713   7.506088   2.546847
    32  H    6.814820   8.640466   6.701073   8.039947   5.239913
    33  H    3.513115   8.583956   8.031648   8.034551   4.214373
                   26         27         28         29         30
    26  H    0.000000
    27  H    3.856508   0.000000
    28  H    7.446669   5.613267   0.000000
    29  H    4.094221   2.310856   3.680075   0.000000
    30  H    7.412280   4.013204   3.562001   3.568407   0.000000
    31  H    6.392474   4.230311   8.920493   6.324010   6.664798
    32  H    8.470032   5.233303   7.773484   6.603313   5.194358
    33  H    6.091462   2.335756   5.071427   3.295688   2.384651
                   31         32         33
    31  H    0.000000
    32  H    3.483734   0.000000
    33  H    4.299144   3.586277   0.000000
 Stoichiometry    H12O16Si4Zr
 Framework group  C1[X(H12O16Si4Zr)]
 Deg. of freedom    93
 Full point group                 C1      NOp   1
 Largest Abelian subgroup         C1      NOp   1
 Largest concise Abelian subgroup C1      NOp   1
                         Standard orientation:                         
 ---------------------------------------------------------------------
 Center     Atomic      Atomic             Coordinates (Angstroms)
 Number     Number       Type             X           Y           Z
 ---------------------------------------------------------------------
      1         40           0        0.659752    0.023482   -0.041370
      2          8           0       -0.154034   -0.846765    1.496713
      3          8           0       -0.094091    1.826287   -0.106990
      4          8           0       -0.139591   -0.932344   -1.577182
      5          8           0        2.613243   -0.066358   -0.005215
      6         14           0       -1.647733   -1.452513   -1.964574
      7         14           0       -1.423366    2.783062   -0.099170
      8         14           0       -1.633656   -1.249583    2.104767
      9         14           0        4.248825   -0.084479    0.027730
     10          8           0        4.936939   -0.312182   -1.455970
     11          8           0        4.789053   -1.351516    0.950982
     12          8           0        4.689491    1.400940    0.591302
     13          8           0       -2.059871   -2.777459    1.683230
     14          8           0       -2.745272   -0.147085    1.512294
     15          8           0       -1.555695   -1.096708    3.735382
     16          8           0       -1.758648   -1.702289   -3.590428
     17          8           0       -2.771490   -0.417281   -1.339230
     18          8           0       -2.025387   -2.878649   -1.195893
     19          8           0       -2.271866    2.277617   -1.462106
     20          8           0       -1.110002    4.383594   -0.316968
     21          8           0       -2.288384    2.618293    1.281118
     22          1           0        5.615432    1.646029    0.486148
     23          1           0        5.179541   -1.220024   -1.670674
     24          1           0        4.366441   -1.491892    1.805638
     25          1           0       -2.109619   -2.974559    0.730583
     26          1           0       -2.323729   -1.382186    4.241995
     27          1           0       -3.046593   -0.333097    0.602004
     28          1           0       -1.082212    4.923833    0.480927
     29          1           0       -2.497107    1.700153    1.552800
     30          1           0       -2.942415    2.895082   -1.779973
     31          1           0       -1.894468   -3.686389   -1.705282
     32          1           0       -1.052151   -1.333002   -4.131900
     33          1           0       -2.655332    0.541188   -1.528324
 ---------------------------------------------------------------------
 Rotational constants (GHZ):           0.2110163           0.1334543           0.1232497
 General basis read from cards:  (5D, 7F)
 ======================================================================================================
                                       Pseudopotential Parameters
 ======================================================================================================
  Center     Atomic      Valence      Angular      Power
  Number     Number     Electrons     Momentum     of R      Exponent        Coefficient   SO-Coeffient
 ======================================================================================================
    1         40           12
                                      G and up 
                                                     2        1.0000000        0.00000000    0.00000000
                                      S - G
                                                     2        8.6365280      150.24299400    0.00000000
                                                     2        3.7176390       18.78003600    0.00000000
                                      P - G
                                                     2        7.6267280       33.19279100    0.00000000
                                                     2        7.4532070       66.38903900    0.00000000
                                                     2        3.3583890        4.62072600    0.00000000
                                                     2        3.2297380        9.26027000    0.00000000
                                      D - G
                                                     2        5.9380860       13.99338300    0.00000000
                                                     2        5.8255440       20.99588200    0.00000000
                                                     2        2.2050190        2.28516600    0.00000000
                                                     2        2.2062920        3.44126000    0.00000000
                                      F - G
                                                     2        4.8002150       -5.23932000    0.00000000
                                                     2        4.7989920       -6.98742400    0.00000000
    2          8
                                   No pseudopotential on this center.
    3          8
                                   No pseudopotential on this center.
    4          8
                                   No pseudopotential on this center.
    5          8
                                   No pseudopotential on this center.
    6         14
                                   No pseudopotential on this center.
    7         14
                                   No pseudopotential on this center.
    8         14
                                   No pseudopotential on this center.
    9         14
                                   No pseudopotential on this center.
   10          8
                                   No pseudopotential on this center.
   11          8
                                   No pseudopotential on this center.
   12          8
                                   No pseudopotential on this center.
   13          8
                                   No pseudopotential on this center.
   14          8
                                   No pseudopotential on this center.
   15          8
                                   No pseudopotential on this center.
   16          8
                                   No pseudopotential on this center.
   17          8
                                   No pseudopotential on this center.
   18          8
                                   No pseudopotential on this center.
   19          8
                                   No pseudopotential on this center.
   20          8
                                   No pseudopotential on this center.
   21          8
                                   No pseudopotential on this center.
   22          1
                                   No pseudopotential on this center.
   23          1
                                   No pseudopotential on this center.
   24          1
                                   No pseudopotential on this center.
   25          1
                                   No pseudopotential on this center.
   26          1
                                   No pseudopotential on this center.
   27          1
                                   No pseudopotential on this center.
   28          1
                                   No pseudopotential on this center.
   29          1
                                   No pseudopotential on this center.
   30          1
                                   No pseudopotential on this center.
   31          1
                                   No pseudopotential on this center.
   32          1
                                   No pseudopotential on this center.
   33          1
                                   No pseudopotential on this center.
 ======================================================================================================
 There are   570 symmetry adapted cartesian basis functions of A   symmetry.
 There are   524 symmetry adapted basis functions of A   symmetry.
   524 basis functions,  1074 primitive gaussians,   570 cartesian basis functions
   104 alpha electrons      104 beta electrons
       nuclear repulsion energy      2829.3445117431 Hartrees.
 NAtoms=   33 NActive=   33 NUniq=   33 SFac= 1.00D+00 NAtFMM=   60 NAOKFM=F Big=F
 Integral buffers will be    131072 words long.
 Raffenetti 2 integral format.
 Two-electron integral symmetry is turned on.
 Nuclear repulsion after empirical dispersion term =     2829.3037547035 Hartrees.
 One-electron integrals computed using PRISM.
 PrsmSu:  requested number of processors reduced to:   4 ShMem   1 Linda.
   1 Symmetry operations used in ECPInt.
 ECPInt:  NShTT=   13203 NPrTT=   78401 LenC2=   11521 LenP2D=   44610.
 LDataN:  DoStor=T MaxTD1= 8 Len=  415
 Number of processors reduced to  13 by ecpmxn.
 NBasis=   524 RedAO= T EigKep=  3.21D-05  NBF=   524
 NBsUse=   524 1.00D-06 EigRej= -1.00D+00 NBFU=   524
 Defaulting to unpruned grid for atomic number  40.
 ExpMin= 1.01D-02 ExpMax= 1.61D+04 ExpMxC= 2.43D+03 IAcc=3 IRadAn=         5 AccDes= 0.00D+00
 Harris functional with IExCor=  402 and IRadAn=       5 diagonalized for initial guess.
 HarFok:  IExCor=  402 AccDes= 0.00D+00 IRadAn=         5 IDoV= 1 UseB2=F ITyADJ=14
 ICtDFT=  3500011 ScaDFX=  1.000000  1.000000  1.000000  1.000000
 Defaulting to unpruned grid for atomic number  40.
 FoFCou: FMM=F IPFlag=           0 FMFlag=      100000 FMFlg1=           0
         NFxFlg=           0 DoJE=T BraDBF=F KetDBF=T FulRan=T
         wScrn=  0.000000 ICntrl=       500 IOpCl=  0 I1Cent=   200000004 NGrid=           0
         NMat0=    1 NMatS0=      1 NMatT0=    0 NMatD0=    1 NMtDS0=    0 NMtDT0=    0
 Petite list used in FoFCou.
 Requested convergence on RMS density matrix=1.00D-08 within 128 cycles.
 Requested convergence on MAX density matrix=1.00D-06.
 Requested convergence on             energy=1.00D-06.
 No special actions if energy rises.
 Defaulting to unpruned grid for atomic number  40.
 Defaulting to unpruned grid for atomic number  40.
 Defaulting to unpruned grid for atomic number  40.
 Defaulting to unpruned grid for atomic number  40.
 Defaulting to unpruned grid for atomic number  40.
 Defaulting to unpruned grid for atomic number  40.
 Defaulting to unpruned grid for atomic number  40.
 Defaulting to unpruned grid for atomic number  40.
 Defaulting to unpruned grid for atomic number  40.
 Defaulting to unpruned grid for atomic number  40.
 Defaulting to unpruned grid for atomic number  40.
 Defaulting to unpruned grid for atomic number  40.
 Defaulting to unpruned grid for atomic number  40.
 Defaulting to unpruned grid for atomic number  40.
 Defaulting to unpruned grid for atomic number  40.
 Defaulting to unpruned grid for atomic number  40.
 SCF Done:  E(RB3LYP) =  -2416.94674516     A.U. after   14 cycles
            NFock= 14  Conv=0.27D-08     -V/T= 2.0185

 **********************************************************************

            Population analysis using the SCF Density.

 **********************************************************************

 Orbital symmetries:
       Occupied  (A) (A) (A) (A) (A) (A) (A) (A) (A) (A) (A) (A)
                 (A) (A) (A) (A) (A) (A) (A) (A) (A) (A) (A) (A)
                 (A) (A) (A) (A) (A) (A) (A) (A) (A) (A) (A) (A)
                 (A) (A) (A) (A) (A) (A) (A) (A) (A) (A) (A) (A)
                 (A) (A) (A) (A) (A) (A) (A) (A) (A) (A) (A) (A)
                 (A) (A) (A) (A) (A) (A) (A) (A) (A) (A) (A) (A)
                 (A) (A) (A) (A) (A) (A) (A) (A) (A) (A) (A) (A)
                 (A) (A) (A) (A) (A) (A) (A) (A) (A) (A) (A) (A)
                 (A) (A) (A) (A) (A) (A) (A) (A)
       Virtual   (A) (A) (A) (A) (A) (A) (A) (A) (A) (A) (A) (A)
                 (A) (A) (A) (A) (A) (A) (A) (A) (A) (A) (A) (A)
                 (A) (A) (A) (A) (A) (A) (A) (A) (A) (A) (A) (A)
                 (A) (A) (A) (A) (A) (A) (A) (A) (A) (A) (A) (A)
                 (A) (A) (A) (A) (A) (A) (A) (A) (A) (A) (A) (A)
                 (A) (A) (A) (A) (A) (A) (A) (A) (A) (A) (A) (A)
                 (A) (A) (A) (A) (A) (A) (A) (A) (A) (A) (A) (A)
                 (A) (A) (A) (A) (A) (A) (A) (A) (A) (A) (A) (A)
                 (A) (A) (A) (A) (A) (A) (A) (A) (A) (A) (A) (A)
                 (A) (A) (A) (A) (A) (A) (A) (A) (A) (A) (A) (A)
                 (A) (A) (A) (A) (A) (A) (A) (A) (A) (A) (A) (A)
                 (A) (A) (A) (A) (A) (A) (A) (A) (A) (A) (A) (A)
                 (A) (A) (A) (A) (A) (A) (A) (A) (A) (A) (A) (A)
                 (A) (A) (A) (A) (A) (A) (A) (A) (A) (A) (A) (A)
                 (A) (A) (A) (A) (A) (A) (A) (A) (A) (A) (A) (A)
                 (A) (A) (A) (A) (A) (A) (A) (A) (A) (A) (A) (A)
                 (A) (A) (A) (A) (A) (A) (A) (A) (A) (A) (A) (A)
                 (A) (A) (A) (A) (A) (A) (A) (A) (A) (A) (A) (A)
                 (A) (A) (A) (A) (A) (A) (A) (A) (A) (A) (A) (A)
                 (A) (A) (A) (A) (A) (A) (A) (A) (A) (A) (A) (A)
                 (A) (A) (A) (A) (A) (A) (A) (A) (A) (A) (A) (A)
                 (A) (A) (A) (A) (A) (A) (A) (A) (A) (A) (A) (A)
                 (A) (A) (A) (A) (A) (A) (A) (A) (A) (A) (A) (A)
                 (A) (A) (A) (A) (A) (A) (A) (A) (A) (A) (A) (A)
                 (A) (A) (A) (A) (A) (A) (A) (A) (A) (A) (A) (A)
                 (A) (A) (A) (A) (A) (A) (A) (A) (A) (A) (A) (A)
                 (A) (A) (A) (A) (A) (A) (A) (A) (A) (A) (A) (A)
                 (A) (A) (A) (A) (A) (A) (A) (A) (A) (A) (A) (A)
                 (A) (A) (A) (A) (A) (A) (A) (A) (A) (A) (A) (A)
                 (A) (A) (A) (A) (A) (A) (A) (A) (A) (A) (A) (A)
                 (A) (A) (A) (A) (A) (A) (A) (A) (A) (A) (A) (A)
                 (A) (A) (A) (A) (A) (A) (A) (A) (A) (A) (A) (A)
                 (A) (A) (A) (A) (A) (A) (A) (A) (A) (A) (A) (A)
                 (A) (A) (A) (A) (A) (A) (A) (A) (A) (A) (A) (A)
                 (A) (A) (A) (A) (A) (A) (A) (A) (A) (A) (A) (A)
 The electronic state is 1-A.
 Alpha  occ. eigenvalues --  -66.22862 -66.21786 -66.21499 -66.21106 -19.18637
 Alpha  occ. eigenvalues --  -19.18385 -19.17837 -19.17074 -19.16766 -19.16535
 Alpha  occ. eigenvalues --  -19.16431 -19.16244 -19.16172 -19.16080 -19.16073
 Alpha  occ. eigenvalues --  -19.15517 -19.15352 -19.15331 -19.14947 -19.14772
 Alpha  occ. eigenvalues --   -5.36921  -5.35867  -5.35571  -5.35166  -3.72905
 Alpha  occ. eigenvalues --   -3.72879  -3.72832  -3.71859  -3.71811  -3.71778
 Alpha  occ. eigenvalues --   -3.71541  -3.71534  -3.71488  -3.71131  -3.71122
 Alpha  occ. eigenvalues --   -3.71097  -2.13418  -1.29674  -1.29562  -1.29427
 Alpha  occ. eigenvalues --   -1.05729  -1.04812  -1.04139  -1.03561  -1.02613
 Alpha  occ. eigenvalues --   -1.02212  -1.01516  -1.00890  -1.00747  -1.00723
 Alpha  occ. eigenvalues --   -0.99889  -0.99365  -0.97419  -0.96328  -0.95758
 Alpha  occ. eigenvalues --   -0.95462  -0.61042  -0.59185  -0.58973  -0.58562
 Alpha  occ. eigenvalues --   -0.55596  -0.54570  -0.53871  -0.53083  -0.52971
 Alpha  occ. eigenvalues --   -0.52560  -0.52218  -0.51770  -0.48835  -0.47639
 Alpha  occ. eigenvalues --   -0.47208  -0.46779  -0.43423  -0.42706  -0.41910
 Alpha  occ. eigenvalues --   -0.41432  -0.41107  -0.40603  -0.39857  -0.39455
 Alpha  occ. eigenvalues --   -0.38841  -0.38739  -0.38672  -0.38196  -0.38074
 Alpha  occ. eigenvalues --   -0.37672  -0.37527  -0.37284  -0.36577  -0.36435
 Alpha  occ. eigenvalues --   -0.36037  -0.35654  -0.35528  -0.35140  -0.34834
 Alpha  occ. eigenvalues --   -0.34652  -0.34065  -0.33686  -0.33558  -0.33285
 Alpha  occ. eigenvalues --   -0.32871  -0.32148  -0.32088  -0.31361
 Alpha virt. eigenvalues --   -0.04377  -0.03205  -0.03086  -0.02741  -0.02141
 Alpha virt. eigenvalues --   -0.01219  -0.00608  -0.00180   0.00069   0.00359
 Alpha virt. eigenvalues --    0.00714   0.00924   0.00979   0.01910   0.02328
 Alpha virt. eigenvalues --    0.03274   0.03414   0.03787   0.03873   0.04042
 Alpha virt. eigenvalues --    0.04318   0.04497   0.05407   0.05830   0.06180
 Alpha virt. eigenvalues --    0.06389   0.07109   0.07546   0.07711   0.08656
 Alpha virt. eigenvalues --    0.08769   0.09005   0.09188   0.09525   0.09843
 Alpha virt. eigenvalues --    0.10228   0.10576   0.10967   0.11265   0.11599
 Alpha virt. eigenvalues --    0.12072   0.12584   0.13098   0.13292   0.13698
 Alpha virt. eigenvalues --    0.13759   0.14523   0.14764   0.14940   0.15325
 Alpha virt. eigenvalues --    0.15360   0.15690   0.16163   0.16766   0.16804
 Alpha virt. eigenvalues --    0.17308   0.17543   0.17816   0.18146   0.18309
 Alpha virt. eigenvalues --    0.18634   0.18875   0.19130   0.19720   0.19878
 Alpha virt. eigenvalues --    0.20090   0.20248   0.20614   0.20871   0.21274
 Alpha virt. eigenvalues --    0.21636   0.21959   0.22193   0.22458   0.22722
 Alpha virt. eigenvalues --    0.22764   0.23608   0.23911   0.24221   0.24410
 Alpha virt. eigenvalues --    0.24552   0.24996   0.25442   0.25587   0.26078
 Alpha virt. eigenvalues --    0.26603   0.26764   0.27022   0.27241   0.27558
 Alpha virt. eigenvalues --    0.27907   0.28361   0.28421   0.28742   0.29075
 Alpha virt. eigenvalues --    0.29501   0.29702   0.29830   0.30144   0.30292
 Alpha virt. eigenvalues --    0.30895   0.31205   0.31367   0.31625   0.31957
 Alpha virt. eigenvalues --    0.32497   0.32811   0.33374   0.33442   0.33967
 Alpha virt. eigenvalues --    0.34495   0.34579   0.35366   0.35511   0.36364
 Alpha virt. eigenvalues --    0.36678   0.37113   0.37697   0.38025   0.38856
 Alpha virt. eigenvalues --    0.39250   0.39922   0.40338   0.41183   0.42007
 Alpha virt. eigenvalues --    0.42751   0.43320   0.43427   0.43959   0.44143
 Alpha virt. eigenvalues --    0.44997   0.46045   0.46386   0.46925   0.47514
 Alpha virt. eigenvalues --    0.47673   0.47880   0.48695   0.49239   0.49606
 Alpha virt. eigenvalues --    0.50243   0.51129   0.51247   0.51703   0.52302
 Alpha virt. eigenvalues --    0.53712   0.54465   0.55286   0.56221   0.57180
 Alpha virt. eigenvalues --    0.57659   0.58733   0.59184   0.59772   0.60230
 Alpha virt. eigenvalues --    0.61603   0.61869   0.62090   0.63892   0.65804
 Alpha virt. eigenvalues --    0.66992   0.67405   0.68638   0.69039   0.69329
 Alpha virt. eigenvalues --    0.70085   0.71478   0.73312   0.74041   0.75480
 Alpha virt. eigenvalues --    0.75592   0.77096   0.78385   0.78772   0.80391
 Alpha virt. eigenvalues --    0.81225   0.81388   0.83087   0.84049   0.85330
 Alpha virt. eigenvalues --    0.86261   0.88814   0.88993   0.89990   0.91518
 Alpha virt. eigenvalues --    0.93554   0.95571   0.96407   0.96772   0.97487
 Alpha virt. eigenvalues --    0.98090   0.98593   0.98928   0.99717   1.00456
 Alpha virt. eigenvalues --    1.01076   1.01509   1.02635   1.02723   1.04134
 Alpha virt. eigenvalues --    1.04473   1.05370   1.06347   1.06751   1.07696
 Alpha virt. eigenvalues --    1.09664   1.12554   1.15312   1.16124   1.16381
 Alpha virt. eigenvalues --    1.18588   1.19032   1.20063   1.20407   1.20597
 Alpha virt. eigenvalues --    1.21512   1.21964   1.22353   1.22714   1.22978
 Alpha virt. eigenvalues --    1.23464   1.23818   1.24265   1.24832   1.25845
 Alpha virt. eigenvalues --    1.25993   1.27055   1.27270   1.27833   1.28229
 Alpha virt. eigenvalues --    1.29003   1.29589   1.30187   1.30583   1.31235
 Alpha virt. eigenvalues --    1.32108   1.32803   1.32874   1.33977   1.35000
 Alpha virt. eigenvalues --    1.35290   1.35901   1.36735   1.36885   1.37809
 Alpha virt. eigenvalues --    1.39326   1.39780   1.40171   1.41020   1.41471
 Alpha virt. eigenvalues --    1.42389   1.43005   1.44118   1.45464   1.46380
 Alpha virt. eigenvalues --    1.46841   1.48643   1.49449   1.51669   1.53703
 Alpha virt. eigenvalues --    1.56557   1.57216   1.57426   1.58981   1.59534
 Alpha virt. eigenvalues --    1.60314   1.60945   1.61825   1.62603   1.63071
 Alpha virt. eigenvalues --    1.63200   1.63930   1.64738   1.65336   1.66777
 Alpha virt. eigenvalues --    1.67602   1.67723   1.69368   1.69676   1.70261
 Alpha virt. eigenvalues --    1.70633   1.71379   1.71662   1.72289   1.73247
 Alpha virt. eigenvalues --    1.74560   1.74721   1.75384   1.75791   1.76703
 Alpha virt. eigenvalues --    1.77136   1.77450   1.78446   1.78796   1.79692
 Alpha virt. eigenvalues --    1.80676   1.81582   1.81974   1.82443   1.82731
 Alpha virt. eigenvalues --    1.84487   1.84887   1.85317   1.86277   1.86871
 Alpha virt. eigenvalues --    1.87326   1.88303   1.88557   1.89446   1.90322
 Alpha virt. eigenvalues --    1.91127   1.91673   1.91916   1.92955   1.92997
 Alpha virt. eigenvalues --    1.94068   1.96075   1.96600   1.97455   1.97888
 Alpha virt. eigenvalues --    1.98758   2.00229   2.00937   2.03209   2.03814
 Alpha virt. eigenvalues --    2.05820   2.06627   2.07468   2.09562   2.10861
 Alpha virt. eigenvalues --    2.11433   2.12897   2.13925   2.15308   2.16034
 Alpha virt. eigenvalues --    2.17626   2.18385   2.18743   2.19999   2.29724
 Alpha virt. eigenvalues --    2.31963   2.33686   2.35195   2.39464   2.40480
 Alpha virt. eigenvalues --    2.41142   2.41230   2.41721   2.42827   2.43487
 Alpha virt. eigenvalues --    2.44034   2.45930   2.46767   2.47198   2.49253
 Alpha virt. eigenvalues --    2.50236   2.50472   2.51655   2.52758   2.54260
 Alpha virt. eigenvalues --    2.55573   2.56781   2.58563   2.60005   2.60716
 Alpha virt. eigenvalues --    2.60918   2.61841   2.62168   2.62341   2.62774
 Alpha virt. eigenvalues --    2.63188   2.63815   2.64204   2.64907   2.65595
 Alpha virt. eigenvalues --    2.66059   2.66133   2.66965   2.67484   2.68279
 Alpha virt. eigenvalues --    2.69323   2.70246   2.71175   2.71519   2.72292
 Alpha virt. eigenvalues --    2.72653   2.74105   2.75557   2.76621   2.77289
 Alpha virt. eigenvalues --    2.79060   2.80592   2.81400   2.82404   2.83307
 Alpha virt. eigenvalues --    2.83605   2.84806   2.86671   2.87683   2.88113
 Alpha virt. eigenvalues --    3.13389   3.20156   3.35891   3.40936   3.47131
 Alpha virt. eigenvalues --    3.47986   3.48344   3.48567   3.51103   3.51142
 Alpha virt. eigenvalues --    3.53230   3.54576   3.60274   3.61043   3.62076
 Alpha virt. eigenvalues --    3.66098   4.24391   4.56269   7.96069  31.34029
          Condensed to atoms (all electrons):
               1          2          3          4          5          6
     1  Zr  14.747189  -0.105243  -0.031610  -0.056440  -0.196497  -0.582002
     2  O   -0.105243   9.094345   0.023218  -0.043301  -0.057835   0.084701
     3  O   -0.031610   0.023218   8.899274   0.015822  -0.056841   0.000170
     4  O   -0.056440  -0.043301   0.015822   8.837138  -0.048475  -0.760551
     5  O   -0.196497  -0.057835  -0.056841  -0.048475   9.530577  -0.013469
     6  Si  -0.582002   0.084701   0.000170  -0.760551  -0.013469  14.132559
     7  Si  -0.562032  -0.033374  -0.908413  -0.010882  -0.040212   0.077099
     8  Si  -0.532825  -1.061541  -0.011177   0.052544  -0.025285  -0.011524
     9  Si  -0.265608  -0.054843  -0.054677  -0.044709  -1.331178   0.023090
    10  O   -0.002407   0.001603  -0.000400   0.002257   0.145873  -0.001070
    11  O   -0.027656   0.003167   0.002347   0.000468   0.282601  -0.001734
    12  O    0.012372   0.000618   0.004612   0.002128   0.183452  -0.001946
    13  O   -0.043830   0.186752   0.001945  -0.015984   0.000076   0.042194
    14  O   -0.007819   0.280770  -0.014757  -0.006886   0.003974   0.022614
    15  O   -0.080096   0.295065  -0.000994   0.001380   0.000327  -0.002118
    16  O   -0.134034   0.004592  -0.000663   0.345074   0.002913  -0.411973
    17  O   -0.015215  -0.040907   0.009015   0.229598   0.001943  -0.513029
    18  O   -0.006772  -0.013929   0.003894   0.199436  -0.000085  -0.471122
    19  O   -0.001916   0.009117   0.260432   0.008975   0.002679  -0.003115
    20  O   -0.155097  -0.000498   0.178939  -0.000877   0.002369   0.008600
    21  O    0.029469   0.010467   0.145477   0.002980   0.000179  -0.007695
    22  H   -0.003341  -0.000015  -0.000028  -0.000009   0.006074   0.000026
    23  H   -0.009276  -0.000012  -0.000001  -0.000016  -0.024799   0.000027
    24  H   -0.004273  -0.000379  -0.000019   0.000001  -0.007640   0.000080
    25  H    0.018056  -0.020265  -0.000120  -0.000106  -0.000002   0.001035
    26  H    0.005680   0.000515   0.000017  -0.000014  -0.000004   0.000051
    27  H   -0.004469  -0.019292   0.000609  -0.001930  -0.000015   0.012163
    28  H    0.005802  -0.000011  -0.019011  -0.000013  -0.000017  -0.000265
    29  H    0.006128  -0.007173  -0.020790  -0.000157  -0.000103   0.000239
    30  H    0.001777  -0.000017   0.000126  -0.000452  -0.000012  -0.000930
    31  H   -0.001683   0.000201  -0.000017  -0.018641  -0.000007   0.064728
    32  H    0.001665  -0.000019   0.000041   0.010181   0.000006   0.023348
    33  H   -0.016466   0.000915  -0.010084  -0.008647  -0.000119   0.052059
               7          8          9         10         11         12
     1  Zr  -0.562032  -0.532825  -0.265608  -0.002407  -0.027656   0.012372
     2  O   -0.033374  -1.061541  -0.054843   0.001603   0.003167   0.000618
     3  O   -0.908413  -0.011177  -0.054677  -0.000400   0.002347   0.004612
     4  O   -0.010882   0.052544  -0.044709   0.002257   0.000468   0.002128
     5  O   -0.040212  -0.025285  -1.331178   0.145873   0.282601   0.183452
     6  Si   0.077099  -0.011524   0.023090  -0.001070  -0.001734  -0.001946
     7  Si  13.812537   0.177896   0.020353  -0.000755  -0.001126   0.002909
     8  Si   0.177896  13.884674   0.022321  -0.000666   0.000445  -0.000081
     9  Si   0.020353   0.022321  14.443278  -0.129624  -0.164054  -0.191063
    10  O   -0.000755  -0.000666  -0.129624   8.529839   0.042445   0.016485
    11  O   -0.001126   0.000445  -0.164054   0.042445   8.454566  -0.044784
    12  O    0.002909  -0.000081  -0.191063   0.016485  -0.044784   8.597926
    13  O    0.007685  -0.098746   0.000639  -0.000000   0.000034   0.000003
    14  O    0.002398  -0.402149  -0.002142  -0.000003  -0.000003   0.000004
    15  O   -0.003618  -0.307171  -0.001233  -0.000000  -0.000031  -0.000003
    16  O    0.004707  -0.009497  -0.000766  -0.000009   0.000005  -0.000003
    17  O   -0.009646   0.083234   0.001285  -0.000006  -0.000001  -0.000004
    18  O   -0.000915   0.070337   0.004328  -0.000009  -0.000004  -0.000002
    19  O   -0.405093  -0.013233   0.000936   0.000003  -0.000004  -0.000009
    20  O   -0.122220   0.009339   0.002405  -0.000001  -0.000002  -0.000012
    21  O    0.026136  -0.035204  -0.001338   0.000001  -0.000001   0.000004
    22  H   -0.000129   0.000034   0.041019  -0.007119  -0.005242   0.221608
    23  H    0.000062   0.000096   0.084533   0.228215  -0.007452   0.005978
    24  H    0.000068  -0.000211   0.035215   0.006974   0.248238  -0.007947
    25  H   -0.000506   0.058121  -0.000265  -0.000000  -0.000000  -0.000000
    26  H   -0.000318   0.047245  -0.000020   0.000000   0.000000  -0.000000
    27  H    0.002476   0.072368   0.000074   0.000000  -0.000000  -0.000000
    28  H    0.057093  -0.000109  -0.000097  -0.000000  -0.000000  -0.000001
    29  H    0.047489   0.021036  -0.000018   0.000000   0.000000  -0.000000
    30  H    0.039561  -0.000049   0.000020   0.000000  -0.000000   0.000000
    31  H    0.000171  -0.001575  -0.000052   0.000000   0.000000   0.000000
    32  H   -0.000557   0.000058   0.000065  -0.000000   0.000000   0.000000
    33  H    0.020684   0.000254   0.000076  -0.000000   0.000000   0.000000
              13         14         15         16         17         18
     1  Zr  -0.043830  -0.007819  -0.080096  -0.134034  -0.015215  -0.006772
     2  O    0.186752   0.280770   0.295065   0.004592  -0.040907  -0.013929
     3  O    0.001945  -0.014757  -0.000994  -0.000663   0.009015   0.003894
     4  O   -0.015984  -0.006886   0.001380   0.345074   0.229598   0.199436
     5  O    0.000076   0.003974   0.000327   0.002913   0.001943  -0.000085
     6  Si   0.042194   0.022614  -0.002118  -0.411973  -0.513029  -0.471122
     7  Si   0.007685   0.002398  -0.003618   0.004707  -0.009646  -0.000915
     8  Si  -0.098746  -0.402149  -0.307171  -0.009497   0.083234   0.070337
     9  Si   0.000639  -0.002142  -0.001233  -0.000766   0.001285   0.004328
    10  O   -0.000000  -0.000003  -0.000000  -0.000009  -0.000006  -0.000009
    11  O    0.000034  -0.000003  -0.000031   0.000005  -0.000001  -0.000004
    12  O    0.000003   0.000004  -0.000003  -0.000003  -0.000004  -0.000002
    13  O    8.628149   0.089198  -0.089975   0.003780  -0.030635  -0.045459
    14  O    0.089198   8.687762   0.056047   0.003789  -0.036119  -0.026259
    15  O   -0.089975   0.056047   8.778935  -0.000181   0.003470   0.001763
    16  O    0.003780   0.003789  -0.000181   8.897911  -0.090686  -0.114031
    17  O   -0.030635  -0.036119   0.003470  -0.090686   8.938457   0.229762
    18  O   -0.045459  -0.026259   0.001763  -0.114031   0.229762   9.015955
    19  O    0.000152   0.000017   0.000151  -0.001548  -0.030862   0.000129
    20  O    0.000008   0.000109   0.000042   0.000066  -0.000802   0.000010
    21  O   -0.000267   0.015092  -0.000545  -0.000216  -0.005222   0.000479
    22  H    0.000000   0.000000  -0.000000   0.000000   0.000000  -0.000000
    23  H    0.000000   0.000000  -0.000000  -0.000000   0.000000  -0.000000
    24  H   -0.000001   0.000000   0.000004   0.000000  -0.000000  -0.000000
    25  H    0.218458  -0.012233   0.008830  -0.000049   0.000669   0.015222
    26  H   -0.004938  -0.010017   0.217144   0.000000  -0.000002   0.000008
    27  H   -0.009818   0.219418   0.004690   0.000171   0.018713  -0.000308
    28  H   -0.000000  -0.000004  -0.000001  -0.000000   0.000004  -0.000000
    29  H    0.000789   0.017436  -0.002550  -0.000004  -0.000429   0.000004
    30  H    0.000001  -0.000034   0.000000   0.000118  -0.000526  -0.000006
    31  H    0.002392   0.000163  -0.000018   0.003962  -0.000960   0.218265
    32  H   -0.000007  -0.000006   0.000000   0.233492  -0.003670   0.003890
    33  H    0.000196   0.001991  -0.000031   0.000089   0.232212   0.002060
              19         20         21         22         23         24
     1  Zr  -0.001916  -0.155097   0.029469  -0.003341  -0.009276  -0.004273
     2  O    0.009117  -0.000498   0.010467  -0.000015  -0.000012  -0.000379
     3  O    0.260432   0.178939   0.145477  -0.000028  -0.000001  -0.000019
     4  O    0.008975  -0.000877   0.002980  -0.000009  -0.000016   0.000001
     5  O    0.002679   0.002369   0.000179   0.006074  -0.024799  -0.007640
     6  Si  -0.003115   0.008600  -0.007695   0.000026   0.000027   0.000080
     7  Si  -0.405093  -0.122220   0.026136  -0.000129   0.000062   0.000068
     8  Si  -0.013233   0.009339  -0.035204   0.000034   0.000096  -0.000211
     9  Si   0.000936   0.002405  -0.001338   0.041019   0.084533   0.035215
    10  O    0.000003  -0.000001   0.000001  -0.007119   0.228215   0.006974
    11  O   -0.000004  -0.000002  -0.000001  -0.005242  -0.007452   0.248238
    12  O   -0.000009  -0.000012   0.000004   0.221608   0.005978  -0.007947
    13  O    0.000152   0.000008  -0.000267   0.000000   0.000000  -0.000001
    14  O    0.000017   0.000109   0.015092   0.000000   0.000000   0.000000
    15  O    0.000151   0.000042  -0.000545  -0.000000  -0.000000   0.000004
    16  O   -0.001548   0.000066  -0.000216   0.000000  -0.000000   0.000000
    17  O   -0.030862  -0.000802  -0.005222   0.000000   0.000000  -0.000000
    18  O    0.000129   0.000010   0.000479  -0.000000  -0.000000  -0.000000
    19  O    8.868204   0.034166   0.021290   0.000000   0.000000  -0.000000
    20  O    0.034166   8.664185  -0.050048   0.000000  -0.000000  -0.000000
    21  O    0.021290  -0.050048   8.480473   0.000000   0.000000   0.000000
    22  H    0.000000   0.000000   0.000000   0.364583   0.000070   0.000133
    23  H    0.000000  -0.000000   0.000000   0.000070   0.350215   0.000010
    24  H   -0.000000  -0.000000   0.000000   0.000133   0.000010   0.363532
    25  H   -0.000025   0.000000  -0.000022   0.000000   0.000000   0.000000
    26  H    0.000001  -0.000000   0.000044  -0.000000  -0.000000  -0.000000
    27  H    0.000135   0.000182  -0.003875  -0.000000  -0.000000   0.000000
    28  H    0.004468   0.229578  -0.002108  -0.000000   0.000000   0.000000
    29  H   -0.008631   0.007640   0.206748   0.000000   0.000000  -0.000000
    30  H    0.224094  -0.001436  -0.007038   0.000000   0.000000  -0.000000
    31  H    0.000005  -0.000000  -0.000000  -0.000000  -0.000000   0.000000
    32  H    0.000109  -0.000000   0.000001  -0.000000   0.000000  -0.000000
    33  H    0.015079  -0.000117   0.001514  -0.000000  -0.000000  -0.000000
              25         26         27         28         29         30
     1  Zr   0.018056   0.005680  -0.004469   0.005802   0.006128   0.001777
     2  O   -0.020265   0.000515  -0.019292  -0.000011  -0.007173  -0.000017
     3  O   -0.000120   0.000017   0.000609  -0.019011  -0.020790   0.000126
     4  O   -0.000106  -0.000014  -0.001930  -0.000013  -0.000157  -0.000452
     5  O   -0.000002  -0.000004  -0.000015  -0.000017  -0.000103  -0.000012
     6  Si   0.001035   0.000051   0.012163  -0.000265   0.000239  -0.000930
     7  Si  -0.000506  -0.000318   0.002476   0.057093   0.047489   0.039561
     8  Si   0.058121   0.047245   0.072368  -0.000109   0.021036  -0.000049
     9  Si  -0.000265  -0.000020   0.000074  -0.000097  -0.000018   0.000020
    10  O   -0.000000   0.000000   0.000000  -0.000000   0.000000   0.000000
    11  O   -0.000000   0.000000  -0.000000  -0.000000   0.000000  -0.000000
    12  O   -0.000000  -0.000000  -0.000000  -0.000001  -0.000000   0.000000
    13  O    0.218458  -0.004938  -0.009818  -0.000000   0.000789   0.000001
    14  O   -0.012233  -0.010017   0.219418  -0.000004   0.017436  -0.000034
    15  O    0.008830   0.217144   0.004690  -0.000001  -0.002550   0.000000
    16  O   -0.000049   0.000000   0.000171  -0.000000  -0.000004   0.000118
    17  O    0.000669  -0.000002   0.018713   0.000004  -0.000429  -0.000526
    18  O    0.015222   0.000008  -0.000308  -0.000000   0.000004  -0.000006
    19  O   -0.000025   0.000001   0.000135   0.004468  -0.008631   0.224094
    20  O    0.000000  -0.000000   0.000182   0.229578   0.007640  -0.001436
    21  O   -0.000022   0.000044  -0.003875  -0.002108   0.206748  -0.007038
    22  H    0.000000  -0.000000  -0.000000  -0.000000   0.000000   0.000000
    23  H    0.000000  -0.000000  -0.000000   0.000000   0.000000   0.000000
    24  H    0.000000  -0.000000   0.000000   0.000000  -0.000000  -0.000000
    25  H    0.298508  -0.000014   0.000142   0.000000   0.000001   0.000000
    26  H   -0.000014   0.365489   0.000034   0.000000   0.000022  -0.000000
    27  H    0.000142   0.000034   0.282701  -0.000000  -0.001468   0.000012
    28  H    0.000000   0.000000  -0.000000   0.348845  -0.000016  -0.000016
    29  H    0.000001   0.000022  -0.001468  -0.000016   0.286388   0.000155
    30  H    0.000000  -0.000000   0.000012  -0.000016   0.000155   0.333909
    31  H   -0.000508   0.000000   0.000014  -0.000000   0.000000  -0.000000
    32  H   -0.000001   0.000000  -0.000000   0.000000  -0.000000  -0.000000
    33  H    0.000008  -0.000000  -0.002513  -0.000002   0.000091  -0.001113
              31         32         33
     1  Zr  -0.001683   0.001665  -0.016466
     2  O    0.000201  -0.000019   0.000915
     3  O   -0.000017   0.000041  -0.010084
     4  O   -0.018641   0.010181  -0.008647
     5  O   -0.000007   0.000006  -0.000119
     6  Si   0.064728   0.023348   0.052059
     7  Si   0.000171  -0.000557   0.020684
     8  Si  -0.001575   0.000058   0.000254
     9  Si  -0.000052   0.000065   0.000076
    10  O    0.000000  -0.000000  -0.000000
    11  O    0.000000   0.000000   0.000000
    12  O    0.000000   0.000000   0.000000
    13  O    0.002392  -0.000007   0.000196
    14  O    0.000163  -0.000006   0.001991
    15  O   -0.000018   0.000000  -0.000031
    16  O    0.003962   0.233492   0.000089
    17  O   -0.000960  -0.003670   0.232212
    18  O    0.218265   0.003890   0.002060
    19  O    0.000005   0.000109   0.015079
    20  O   -0.000000  -0.000000  -0.000117
    21  O   -0.000000   0.000001   0.001514
    22  H   -0.000000  -0.000000  -0.000000
    23  H   -0.000000   0.000000  -0.000000
    24  H    0.000000  -0.000000  -0.000000
    25  H   -0.000508  -0.000001   0.000008
    26  H    0.000000   0.000000  -0.000000
    27  H    0.000014  -0.000000  -0.002513
    28  H   -0.000000   0.000000  -0.000002
    29  H    0.000000  -0.000000   0.000091
    30  H   -0.000000  -0.000000  -0.001113
    31  H    0.331141   0.000001  -0.000038
    32  H    0.000001   0.349469   0.000154
    33  H   -0.000038   0.000154   0.268646
 Mulliken charges:
               1
     1  Zr   0.018469
     2  O   -0.537390
     3  O   -0.416336
     4  O   -0.689890
     5  O   -0.360449
     6  Si   2.237759
     7  Si   1.800474
     8  Si   2.011038
     9  Si   1.562051
    10  O   -0.831623
    11  O   -0.782221
    12  O   -0.802245
    13  O   -0.842788
    14  O   -0.882351
    15  O   -0.879283
    16  O   -0.737010
    17  O   -0.969640
    18  O   -1.086640
    19  O   -0.985707
    20  O   -0.806528
    21  O   -0.826775
    22  H    0.382337
    23  H    0.372351
    24  H    0.366215
    25  H    0.415067
    26  H    0.379076
    27  H    0.429787
    28  H    0.375882
    29  H    0.447172
    30  H    0.411855
    31  H    0.402458
    32  H    0.381782
    33  H    0.443101
 Sum of Mulliken charges =  -0.00000
 Mulliken charges with hydrogens summed into heavy atoms:
               1
     1  Zr   0.018469
     2  O   -0.537390
     3  O   -0.416336
     4  O   -0.689890
     5  O   -0.360449
     6  Si   2.237759
     7  Si   1.800474
     8  Si   2.011038
     9  Si   1.562051
    10  O   -0.459271
    11  O   -0.416006
    12  O   -0.419909
    13  O   -0.427721
    14  O   -0.452564
    15  O   -0.500207
    16  O   -0.355228
    17  O   -0.526539
    18  O   -0.684182
    19  O   -0.573851
    20  O   -0.430646
    21  O   -0.379602
 Electronic spatial extent (au):  <R**2>=           9920.8235
 Charge=             -0.0000 electrons
 Dipole moment (field-independent basis, Debye):
    X=              0.9516    Y=             -0.7819    Z=             -2.2117  Tot=              2.5315
 Quadrupole moment (field-independent basis, Debye-Ang):
   XX=           -159.4734   YY=           -156.2539   ZZ=           -157.9567
   XY=             -6.0899   XZ=              2.2187   YZ=              5.6901
 Traceless Quadrupole moment (field-independent basis, Debye-Ang):
   XX=             -1.5788   YY=              1.6408   ZZ=             -0.0620
   XY=             -6.0899   XZ=              2.2187   YZ=              5.6901
 Octapole moment (field-independent basis, Debye-Ang**2):
  XXX=             75.5653  YYY=              5.3360  ZZZ=            -10.3280  XYY=             -2.5058
  XXY=             24.7053  XXZ=             16.7985  XZZ=              1.6053  YZZ=            -14.7051
  YYZ=            -17.6575  XYZ=             30.7839
 Hexadecapole moment (field-independent basis, Debye-Ang**3):
 XXXX=          -5922.5550 YYYY=          -2879.9615 ZZZZ=          -2271.3560 XXXY=             62.1393
 XXXZ=             10.0672 YYYX=            -32.8702 YYYZ=            255.4658 ZZZX=           -139.6774
 ZZZY=            -81.0043 XXYY=          -1498.1804 XXZZ=          -1400.2963 YYZZ=           -932.2480
 XXYZ=            -40.6471 YYXZ=             53.0356 ZZXY=            -52.9034
 N-N= 2.829303754703D+03 E-N=-1.137112777717D+04  KE= 2.373154854090D+03
 PrsmSu:  requested number of processors reduced to:   2 ShMem   1 Linda.
 PrsmSu:  requested number of processors reduced to:  10 ShMem   1 Linda.
   1 Symmetry operations used in ECPInt.
 ECPInt:  NShTT=   13203 NPrTT=   78401 LenC2=   11521 LenP2D=   44610.
 LDataN:  DoStor=T MaxTD1= 9 Len=  602
 Number of processors reduced to  14 by ecpmxn.
 Calling FoFJK, ICntrl=      2127 FMM=F ISym2X=0 I1Cent= 0 IOpClX= 0 NMat=1 NMatS=1 NMatT=0.
 CoulSu:  requested number of processors reduced to:  10 ShMem   1 Linda.
 Defaulting to unpruned grid for atomic number  40.
 Defaulting to unpruned grid for atomic number  40.
 Defaulting to unpruned grid for atomic number  40.
 Defaulting to unpruned grid for atomic number  40.
 Defaulting to unpruned grid for atomic number  40.
 Defaulting to unpruned grid for atomic number  40.
 Defaulting to unpruned grid for atomic number  40.
 Defaulting to unpruned grid for atomic number  40.
 Defaulting to unpruned grid for atomic number  40.
 Defaulting to unpruned grid for atomic number  40.
 Defaulting to unpruned grid for atomic number  40.
 Defaulting to unpruned grid for atomic number  40.
 Defaulting to unpruned grid for atomic number  40.
 Defaulting to unpruned grid for atomic number  40.
 Defaulting to unpruned grid for atomic number  40.
 Defaulting to unpruned grid for atomic number  40.
 ***** Axes restored to original set *****
 -------------------------------------------------------------------
 Center     Atomic                   Forces (Hartrees/Bohr)
 Number     Number              X              Y              Z
 -------------------------------------------------------------------
      1       40          -0.000004683    0.000282262    0.000003179
      2        8          -0.000001444   -0.000006716    0.000014387
      3        8          -0.000000560   -0.000009658   -0.000014177
      4        8           0.000001461    0.000006714   -0.000000672
      5        8          -0.000009916   -0.000611186   -0.000018741
      6       14          -0.000014022    0.000008028    0.000006174
      7       14          -0.000001839    0.000005385    0.000018685
      8       14           0.000023300   -0.000018391   -0.000000006
      9       14           0.000018934    0.000361061   -0.000004367
     10        8          -0.000005546   -0.000003524    0.000005825
     11        8           0.000004337   -0.000000149    0.000016475
     12        8          -0.000010061   -0.000010265   -0.000005400
     13        8          -0.000014241    0.000011231    0.000004591
     14        8          -0.000012316    0.000012136   -0.000005430
     15        8          -0.000006773    0.000000229    0.000001352
     16        8           0.000000014   -0.000007905   -0.000001734
     17        8           0.000007122   -0.000010166   -0.000010941
     18        8          -0.000002994   -0.000003483   -0.000003074
     19        8          -0.000002280    0.000000607   -0.000000336
     20        8          -0.000000199    0.000000584    0.000000557
     21        8           0.000004534    0.000001953   -0.000009307
     22        1           0.000005383   -0.000002623    0.000001525
     23        1           0.000000765    0.000001949    0.000003089
     24        1          -0.000001041   -0.000006991   -0.000005269
     25        1           0.000010159   -0.000002433   -0.000001949
     26        1           0.000006349    0.000002168   -0.000001972
     27        1          -0.000001235   -0.000000598    0.000002130
     28        1          -0.000000330   -0.000000642   -0.000001886
     29        1          -0.000001630   -0.000002201   -0.000001290
     30        1           0.000001391   -0.000001079   -0.000003854
     31        1           0.000005082   -0.000000261    0.000004556
     32        1           0.000000671    0.000000792    0.000002097
     33        1           0.000001612    0.000003171    0.000005782
 -------------------------------------------------------------------
 Cartesian Forces:  Max     0.000611186 RMS     0.000077123

 GradGradGradGradGradGradGradGradGradGradGradGradGradGradGradGradGradGrad
 Berny optimization.
 FormGI is forming the generalized inverse of G from B-inverse, IUseBI=4.
 Internal  Forces:  Max     0.000877290 RMS     0.000080106
 Search for a local minimum.
 Step number   1 out of a maximum of  152
 All quantities printed in internal units (Hartrees-Bohrs-Radians)
 Mixed Optimization -- En-DIIS/RFO-DIIS
 Second derivative matrix not updated -- first step.
 ITU=  0
     Eigenvalues ---    0.00230   0.00230   0.00230   0.00230   0.02629
     Eigenvalues ---    0.03021   0.03239   0.03361   0.03499   0.03569
     Eigenvalues ---    0.03661   0.03665   0.03683   0.03695   0.03695
     Eigenvalues ---    0.03739   0.03788   0.03793   0.03815   0.03839
     Eigenvalues ---    0.03846   0.06109   0.06515   0.08451   0.08850
     Eigenvalues ---    0.11075   0.11228   0.11823   0.11886   0.12177
     Eigenvalues ---    0.12239   0.12239   0.12723   0.12904   0.13094
     Eigenvalues ---    0.13317   0.16000   0.16000   0.16000   0.16000
     Eigenvalues ---    0.16000   0.16000   0.16000   0.16000   0.16000
     Eigenvalues ---    0.16000   0.16000   0.16000   0.19147   0.19202
     Eigenvalues ---    0.19298   0.19552   0.20201   0.20211   0.20389
     Eigenvalues ---    0.20430   0.20586   0.20651   0.20796   0.20984
     Eigenvalues ---    0.21172   0.21188   0.25000   0.25000   0.25000
     Eigenvalues ---    0.37996   0.39213   0.40662   0.41431   0.42456
     Eigenvalues ---    0.42508   0.42706   0.42844   0.42852   0.43354
     Eigenvalues ---    0.43934   0.44000   0.44261   0.44549   0.44640
     Eigenvalues ---    0.44840   0.50649   0.51389   0.52023   0.52549
     Eigenvalues ---    0.54334   0.54625   0.54640   0.54648   0.54682
     Eigenvalues ---    0.54687   0.54710   0.54760
 RFO step:  Lambda=-2.69699857D-05 EMin= 2.30000000D-03
 Linear search not attempted -- first point.
 Iteration  1 RMS(Cart)=  0.01794888 RMS(Int)=  0.00009794
 Iteration  2 RMS(Cart)=  0.00022516 RMS(Int)=  0.00000905
 Iteration  3 RMS(Cart)=  0.00000001 RMS(Int)=  0.00000905
 Variable       Old X    -DE/DX   Delta X   Delta X   Delta X     New X
                                 (Linear)    (Quad)   (Total)
    R1        3.67661   0.00001   0.00000   0.00005   0.00005   3.67666
    R2        3.69474  -0.00000   0.00000  -0.00002  -0.00002   3.69472
    R3        3.73730   0.00000   0.00000   0.00000   0.00000   3.73730
    R4        3.69610   0.00002   0.00000   0.00007   0.00007   3.69617
    R5        3.11735  -0.00001   0.00000  -0.00001  -0.00001   3.11733
    R6        3.09503   0.00000   0.00000   0.00000   0.00000   3.09503
    R7        3.10234   0.00001   0.00000   0.00001   0.00001   3.10235
    R8        3.09162   0.00001   0.00000   0.00002   0.00002   3.09164
    R9        3.11552   0.00000   0.00000   0.00000   0.00000   3.11552
   R10        3.11982  -0.00001   0.00000  -0.00003  -0.00003   3.11979
   R11        3.14363   0.00000   0.00000   0.00000   0.00000   3.14364
   R12        3.18071   0.00000   0.00000   0.00001   0.00001   3.18071
   R13        3.10935   0.00000   0.00000   0.00000   0.00000   3.10935
   R14        3.09396  -0.00001   0.00000  -0.00002  -0.00002   3.09394
   R15        3.10155  -0.00001   0.00000  -0.00002  -0.00002   3.10153
   R16        3.16337   0.00002   0.00000   0.00005   0.00005   3.16341
   R17        3.09843  -0.00000   0.00000  -0.00000  -0.00000   3.09843
   R18        3.12046  -0.00001   0.00000  -0.00002  -0.00002   3.12044
   R19        3.13354   0.00001   0.00000   0.00003   0.00003   3.13357
   R20        3.11562  -0.00002   0.00000  -0.00004  -0.00004   3.11559
   R21        1.82153  -0.00000   0.00000  -0.00000  -0.00000   1.82153
   R22        1.82115  -0.00000   0.00000  -0.00001  -0.00001   1.82115
   R23        1.82091   0.00000   0.00000   0.00001   0.00001   1.82092
   R24        1.84077   0.00000   0.00000   0.00000   0.00000   1.84078
   R25        1.84577  -0.00000   0.00000  -0.00000  -0.00000   1.84577
   R26        1.82046  -0.00001   0.00000  -0.00001  -0.00001   1.82044
   R27        1.82111   0.00000   0.00000   0.00000   0.00000   1.82111
   R28        1.85916   0.00000   0.00000   0.00001   0.00001   1.85917
   R29        1.82147  -0.00000   0.00000  -0.00000  -0.00000   1.82146
   R30        1.82428  -0.00000   0.00000  -0.00000  -0.00000   1.82428
   R31        1.82167  -0.00000   0.00000  -0.00000  -0.00000   1.82167
   R32        1.85189   0.00000   0.00000   0.00000   0.00000   1.85190
    A1        1.85219   0.00007   0.00000   0.00007   0.00007   1.85227
    A2        1.80152  -0.00011   0.00000  -0.00007  -0.00010   1.80142
    A3        1.96341  -0.00002   0.00000  -0.00007  -0.00008   1.96333
    A4        1.83769   0.00005   0.00000   0.00009   0.00011   1.83780
    A5        2.01315   0.00002   0.00000  -0.00000   0.00000   2.01315
    A6        1.97778  -0.00001   0.00000  -0.00000  -0.00000   1.97778
    A7        2.45876  -0.00001   0.00000  -0.00004  -0.00004   2.45872
    A8        2.58948   0.00002   0.00000   0.00009   0.00009   2.58957
    A9        2.35701   0.00001   0.00000   0.00005   0.00005   2.35706
   A10        1.92039  -0.00000   0.00000  -0.00001  -0.00001   1.92037
   A11        1.91478   0.00000   0.00000   0.00001   0.00001   1.91480
   A12        1.95104  -0.00000   0.00000  -0.00002  -0.00002   1.95102
   A13        2.00727   0.00000   0.00000   0.00003   0.00003   2.00730
   A14        1.88655  -0.00000   0.00000  -0.00002  -0.00002   1.88653
   A15        1.78034   0.00000   0.00000   0.00001   0.00001   1.78036
   A16        1.80272  -0.00000   0.00000  -0.00001  -0.00001   1.80271
   A17        1.99659  -0.00000   0.00000  -0.00001  -0.00001   1.99658
   A18        1.95416   0.00000   0.00000   0.00002   0.00002   1.95417
   A19        1.85556  -0.00000   0.00000  -0.00000  -0.00000   1.85555
   A20        1.96720  -0.00000   0.00000  -0.00000  -0.00000   1.96719
   A21        1.88610   0.00000   0.00000   0.00001   0.00001   1.88611
   A22        1.94504   0.00000   0.00000   0.00003   0.00003   1.94507
   A23        1.88004   0.00000   0.00000   0.00000   0.00000   1.88004
   A24        1.87671  -0.00000   0.00000  -0.00000  -0.00000   1.87670
   A25        1.92811  -0.00000   0.00000  -0.00002  -0.00002   1.92809
[...]
 Alpha virt. eigenvalues --    3.47853   3.48599   3.48634   3.51091   3.51106
 Alpha virt. eigenvalues --    3.52881   3.54125   3.60308   3.61075   3.62061
 Alpha virt. eigenvalues --    3.66198   4.32690   4.59631   7.89888  31.29229
          Condensed to atoms (all electrons):
               1          2          3          4          5          6
     1  Zr  15.085914  -0.125461  -0.001938  -0.134765  -0.192436  -0.597785
     2  O   -0.125461   9.064321   0.019501  -0.042557  -0.057490   0.088702
     3  O   -0.001938   0.019501   8.828757   0.015824  -0.043909  -0.004144
     4  O   -0.134765  -0.042557   0.015824   8.811045  -0.060076  -0.675485
     5  O   -0.192436  -0.057490  -0.043909  -0.060076   9.429917  -0.007120
     6  Si  -0.597785   0.088702  -0.004144  -0.675485  -0.007120  13.988598
     7  Si  -0.615044  -0.028188  -0.876000  -0.007045  -0.033867   0.084318
     8  Si  -0.588544  -0.999666  -0.020189   0.071495  -0.014228  -0.017242
     9  Si  -0.321176  -0.040764  -0.026523  -0.033209  -1.235012   0.038667
    10  O   -0.014228   0.001027  -0.002030   0.000962   0.130029  -0.002404
    11  O   -0.064359   0.003432   0.002981   0.001225   0.314175  -0.000811
    12  O    0.042357  -0.000010   0.004698   0.002085   0.154277  -0.002969
    13  O   -0.036571   0.186455   0.001656  -0.015603  -0.000669   0.035549
    14  O   -0.017762   0.263334  -0.017659  -0.008812   0.001902   0.029059
    15  O   -0.083263   0.292899  -0.000694   0.001240   0.000578  -0.000111
    16  O   -0.125136   0.004688  -0.000490   0.345035   0.003215  -0.423649
    17  O   -0.081182  -0.039873   0.008015   0.218403   0.001315  -0.452887
    18  O   -0.026514  -0.014471   0.003733   0.198373  -0.000612  -0.451198
    19  O    0.001270   0.008984   0.264946   0.010213   0.002129  -0.007529
    20  O   -0.145822  -0.000576   0.163840  -0.000864   0.001475   0.009037
    21  O    0.036033   0.010309   0.146305   0.003411   0.000210  -0.011879
    22  H   -0.008955  -0.000018  -0.000013  -0.000009   0.005766   0.000086
    23  H   -0.007673  -0.000013  -0.000006  -0.000055  -0.025262   0.000086
    24  H   -0.005224  -0.000191  -0.000012   0.000003  -0.005366   0.000071
    25  H    0.017014  -0.020016  -0.000111  -0.000303   0.000019   0.002595
    26  H    0.007282   0.000603   0.000014  -0.000011  -0.000004  -0.000147
    27  H    0.004351  -0.019192   0.000844  -0.001713   0.000011   0.008786
    28  H    0.005079  -0.000011  -0.018411  -0.000014  -0.000015  -0.000282
    29  H    0.004169  -0.007068  -0.020282  -0.000140  -0.000073   0.000138
    30  H    0.000736  -0.000012   0.000064  -0.000454  -0.000008  -0.000661
    31  H   -0.000116   0.000175  -0.000020  -0.018436  -0.000009   0.063719
    32  H    0.002101  -0.000024   0.000040   0.010439   0.000001   0.022786
    33  H   -0.016040   0.001018  -0.010111  -0.009589  -0.000101   0.053278
               7          8          9         10         11         12
     1  Zr  -0.615044  -0.588544  -0.321176  -0.014228  -0.064359   0.042357
     2  O   -0.028188  -0.999666  -0.040764   0.001027   0.003432  -0.000010
     3  O   -0.876000  -0.020189  -0.026523  -0.002030   0.002981   0.004698
     4  O   -0.007045   0.071495  -0.033209   0.000962   0.001225   0.002085
     5  O   -0.033867  -0.014228  -1.235012   0.130029   0.314175   0.154277
     6  Si   0.084318  -0.017242   0.038667  -0.002404  -0.000811  -0.002969
     7  Si  13.795742   0.182218   0.020054  -0.000245  -0.000872   0.004004
     8  Si   0.182218  13.805444   0.026153  -0.000985   0.001191  -0.000823
     9  Si   0.020054   0.026153  14.264287  -0.069162  -0.182515  -0.213040
    10  O   -0.000245  -0.000985  -0.069162   8.525276   0.014772   0.031573
    11  O   -0.000872   0.001191  -0.182515   0.014772   8.517552  -0.050539
    12  O    0.004004  -0.000823  -0.213040   0.031573  -0.050539   8.601118
    13  O    0.007326  -0.095368   0.000233   0.000000   0.000018   0.000009
    14  O    0.009461  -0.368266  -0.001483  -0.000002   0.000001   0.000017
    15  O   -0.002618  -0.304963  -0.000633   0.000000  -0.000024  -0.000016
    16  O    0.003810  -0.010265  -0.001024   0.000005  -0.000003  -0.000001
    17  O   -0.000719   0.096706   0.002554  -0.000001   0.000002  -0.000006
    18  O   -0.000725   0.074647   0.004178  -0.000002  -0.000001  -0.000001
    19  O   -0.409010  -0.016045   0.001043   0.000007  -0.000002  -0.000022
    20  O   -0.108782   0.009652   0.003158   0.000002  -0.000003  -0.000029
    21  O    0.024448  -0.040162  -0.001810   0.000001   0.000001   0.000024
    22  H   -0.000185   0.000089   0.047288  -0.006525  -0.005074   0.219690
    23  H    0.000060   0.000062   0.081070   0.228562  -0.006139   0.005877
    24  H    0.000054  -0.000092   0.037122   0.007364   0.242492  -0.007434
    25  H   -0.000462   0.057413  -0.000210   0.000000  -0.000000  -0.000000
    26  H   -0.000381   0.046128  -0.000043  -0.000000   0.000000  -0.000000
    27  H    0.001320   0.068412  -0.000008   0.000000  -0.000000  -0.000000
    28  H    0.056618  -0.000069  -0.000135  -0.000000  -0.000000  -0.000004
    29  H    0.048159   0.021919  -0.000057   0.000000   0.000000  -0.000001
    30  H    0.040274   0.000110   0.000023  -0.000000   0.000000   0.000000
    31  H    0.000154  -0.001974  -0.000052   0.000000  -0.000000   0.000000
    32  H   -0.000661   0.000053   0.000008  -0.000000   0.000000  -0.000000
    33  H    0.020633   0.000110   0.000077  -0.000000   0.000000   0.000000
              13         14         15         16         17         18
     1  Zr  -0.036571  -0.017762  -0.083263  -0.125136  -0.081182  -0.026514
     2  O    0.186455   0.263334   0.292899   0.004688  -0.039873  -0.014471
     3  O    0.001656  -0.017659  -0.000694  -0.000490   0.008015   0.003733
     4  O   -0.015603  -0.008812   0.001240   0.345035   0.218403   0.198373
     5  O   -0.000669   0.001902   0.000578   0.003215   0.001315  -0.000612
     6  Si   0.035549   0.029059  -0.000111  -0.423649  -0.452887  -0.451198
     7  Si   0.007326   0.009461  -0.002618   0.003810  -0.000719  -0.000725
     8  Si  -0.095368  -0.368266  -0.304963  -0.010265   0.096706   0.074647
     9  Si   0.000233  -0.001483  -0.000633  -0.001024   0.002554   0.004178
    10  O    0.000000  -0.000002   0.000000   0.000005  -0.000001  -0.000002
    11  O    0.000018   0.000001  -0.000024  -0.000003   0.000002  -0.000001
    12  O    0.000009   0.000017  -0.000016  -0.000001  -0.000006  -0.000001
    13  O    8.628405   0.087087  -0.090634   0.003732  -0.030890  -0.045563
    14  O    0.087087   8.674718   0.055512   0.003668  -0.035863  -0.026857
    15  O   -0.090634   0.055512   8.777224  -0.000174   0.003600   0.001673
    16  O    0.003732   0.003668  -0.000174   8.902222  -0.091629  -0.114945
    17  O   -0.030890  -0.035863   0.003600  -0.091629   8.935621   0.227481
    18  O   -0.045563  -0.026857   0.001673  -0.114945   0.227481   9.013082
    19  O    0.000181  -0.000427   0.000140  -0.001542  -0.030033   0.000163
    20  O    0.000008  -0.000245   0.000038   0.000065  -0.000983   0.000015
    21  O   -0.000252   0.016007  -0.000612  -0.000214  -0.005564   0.000477
    22  H   -0.000000  -0.000000  -0.000000   0.000000   0.000000  -0.000000
    23  H    0.000000   0.000000  -0.000000  -0.000000   0.000000  -0.000000
    24  H   -0.000000   0.000000   0.000002   0.000000  -0.000000  -0.000000
    25  H    0.218359  -0.011958   0.008915  -0.000053   0.000634   0.014926
    26  H   -0.005126  -0.010084   0.217002   0.000000  -0.000003   0.000006
    27  H   -0.009736   0.219284   0.004629   0.000184   0.017922  -0.000259
    28  H   -0.000000  -0.000006  -0.000001  -0.000000   0.000004  -0.000000
    29  H    0.000796   0.017582  -0.002571  -0.000004  -0.000395   0.000006
    30  H    0.000001   0.000001   0.000000   0.000115  -0.000398  -0.000007
    31  H    0.002360   0.000166  -0.000018   0.003785  -0.000753   0.218146
    32  H   -0.000008  -0.000006   0.000000   0.233446  -0.003636   0.003884
    33  H    0.000230   0.002087  -0.000035  -0.000111   0.231007   0.002105
              19         20         21         22         23         24
     1  Zr   0.001270  -0.145822   0.036033  -0.008955  -0.007673  -0.005224
     2  O    0.008984  -0.000576   0.010309  -0.000018  -0.000013  -0.000191
     3  O    0.264946   0.163840   0.146305  -0.000013  -0.000006  -0.000012
     4  O    0.010213  -0.000864   0.003411  -0.000009  -0.000055   0.000003
     5  O    0.002129   0.001475   0.000210   0.005766  -0.025262  -0.005366
     6  Si  -0.007529   0.009037  -0.011879   0.000086   0.000086   0.000071
     7  Si  -0.409010  -0.108782   0.024448  -0.000185   0.000060   0.000054
     8  Si  -0.016045   0.009652  -0.040162   0.000089   0.000062  -0.000092
     9  Si   0.001043   0.003158  -0.001810   0.047288   0.081070   0.037122
    10  O    0.000007   0.000002   0.000001  -0.006525   0.228562   0.007364
    11  O   -0.000002  -0.000003   0.000001  -0.005074  -0.006139   0.242492
    12  O   -0.000022  -0.000029   0.000024   0.219690   0.005877  -0.007434
    13  O    0.000181   0.000008  -0.000252  -0.000000   0.000000  -0.000000
    14  O   -0.000427  -0.000245   0.016007  -0.000000   0.000000   0.000000
    15  O    0.000140   0.000038  -0.000612  -0.000000  -0.000000   0.000002
    16  O   -0.001542   0.000065  -0.000214   0.000000  -0.000000   0.000000
    17  O   -0.030033  -0.000983  -0.005564   0.000000   0.000000  -0.000000
    18  O    0.000163   0.000015   0.000477  -0.000000  -0.000000  -0.000000
    19  O    8.872753   0.032170   0.023441  -0.000000   0.000000  -0.000000
    20  O    0.032170   8.657023  -0.050462   0.000000   0.000000  -0.000000
    21  O    0.023441  -0.050462   8.485539  -0.000000   0.000000   0.000000
    22  H   -0.000000   0.000000  -0.000000   0.361717   0.000057   0.000122
    23  H    0.000000   0.000000   0.000000   0.000057   0.351017   0.000014
    24  H   -0.000000  -0.000000   0.000000   0.000122   0.000014   0.365157
    25  H   -0.000024   0.000000  -0.000019   0.000000   0.000000   0.000000
    26  H    0.000001  -0.000000   0.000039  -0.000000  -0.000000  -0.000000
    27  H    0.000032   0.000192  -0.004018  -0.000000  -0.000000   0.000000
    28  H    0.004618   0.229587  -0.002067  -0.000000   0.000000  -0.000000
    29  H   -0.008570   0.007668   0.206467   0.000000   0.000000  -0.000000
    30  H    0.224186  -0.001481  -0.007146   0.000000   0.000000  -0.000000
    31  H    0.000004  -0.000000  -0.000000  -0.000000  -0.000000   0.000000
    32  H    0.000097  -0.000000   0.000001  -0.000000  -0.000000  -0.000000
    33  H    0.014835  -0.000081   0.001473  -0.000000  -0.000000  -0.000000
              25         26         27         28         29         30
     1  Zr   0.017014   0.007282   0.004351   0.005079   0.004169   0.000736
     2  O   -0.020016   0.000603  -0.019192  -0.000011  -0.007068  -0.000012
     3  O   -0.000111   0.000014   0.000844  -0.018411  -0.020282   0.000064
     4  O   -0.000303  -0.000011  -0.001713  -0.000014  -0.000140  -0.000454
     5  O    0.000019  -0.000004   0.000011  -0.000015  -0.000073  -0.000008
     6  Si   0.002595  -0.000147   0.008786  -0.000282   0.000138  -0.000661
     7  Si  -0.000462  -0.000381   0.001320   0.056618   0.048159   0.040274
     8  Si   0.057413   0.046128   0.068412  -0.000069   0.021919   0.000110
     9  Si  -0.000210  -0.000043  -0.000008  -0.000135  -0.000057   0.000023
    10  O    0.000000  -0.000000   0.000000  -0.000000   0.000000  -0.000000
    11  O   -0.000000   0.000000  -0.000000  -0.000000   0.000000   0.000000
    12  O   -0.000000  -0.000000  -0.000000  -0.000004  -0.000001   0.000000
    13  O    0.218359  -0.005126  -0.009736  -0.000000   0.000796   0.000001
    14  O   -0.011958  -0.010084   0.219284  -0.000006   0.017582   0.000001
    15  O    0.008915   0.217002   0.004629  -0.000001  -0.002571   0.000000
    16  O   -0.000053   0.000000   0.000184  -0.000000  -0.000004   0.000115
    17  O    0.000634  -0.000003   0.017922   0.000004  -0.000395  -0.000398
    18  O    0.014926   0.000006  -0.000259  -0.000000   0.000006  -0.000007
    19  O   -0.000024   0.000001   0.000032   0.004618  -0.008570   0.224186
    20  O    0.000000  -0.000000   0.000192   0.229587   0.007668  -0.001481
    21  O   -0.000019   0.000039  -0.004018  -0.002067   0.206467  -0.007146
    22  H    0.000000  -0.000000  -0.000000  -0.000000   0.000000   0.000000
    23  H    0.000000  -0.000000  -0.000000   0.000000   0.000000   0.000000
    24  H    0.000000  -0.000000   0.000000  -0.000000  -0.000000  -0.000000
    25  H    0.298892  -0.000012   0.000113   0.000000   0.000001   0.000000
    26  H   -0.000012   0.366006   0.000036   0.000000   0.000021  -0.000000
    27  H    0.000113   0.000036   0.283365  -0.000000  -0.001496   0.000009
    28  H    0.000000   0.000000  -0.000000   0.349181  -0.000017  -0.000016
    29  H    0.000001   0.000021  -0.001496  -0.000017   0.285940   0.000155
    30  H    0.000000  -0.000000   0.000009  -0.000016   0.000155   0.334252
    31  H   -0.000494   0.000000   0.000013  -0.000000   0.000000  -0.000000
    32  H   -0.000001   0.000000  -0.000000   0.000000  -0.000000  -0.000000
    33  H    0.000006  -0.000000  -0.002410  -0.000002   0.000100  -0.001157
              31         32         33
     1  Zr  -0.000116   0.002101  -0.016040
     2  O    0.000175  -0.000024   0.001018
     3  O   -0.000020   0.000040  -0.010111
     4  O   -0.018436   0.010439  -0.009589
     5  O   -0.000009   0.000001  -0.000101
     6  Si   0.063719   0.022786   0.053278
     7  Si   0.000154  -0.000661   0.020633
     8  Si  -0.001974   0.000053   0.000110
     9  Si  -0.000052   0.000008   0.000077
    10  O    0.000000  -0.000000  -0.000000
    11  O   -0.000000   0.000000   0.000000
    12  O    0.000000  -0.000000   0.000000
    13  O    0.002360  -0.000008   0.000230
    14  O    0.000166  -0.000006   0.002087
    15  O   -0.000018   0.000000  -0.000035
    16  O    0.003785   0.233446  -0.000111
    17  O   -0.000753  -0.003636   0.231007
    18  O    0.218146   0.003884   0.002105
    19  O    0.000004   0.000097   0.014835
    20  O   -0.000000  -0.000000  -0.000081
    21  O   -0.000000   0.000001   0.001473
    22  H   -0.000000  -0.000000  -0.000000
    23  H   -0.000000  -0.000000  -0.000000
    24  H    0.000000  -0.000000  -0.000000
    25  H   -0.000494  -0.000001   0.000006
    26  H    0.000000   0.000000  -0.000000
    27  H    0.000013  -0.000000  -0.002410
    28  H   -0.000000   0.000000  -0.000002
    29  H    0.000000  -0.000000   0.000100
    30  H   -0.000000  -0.000000  -0.001157
    31  H    0.331391   0.000001  -0.000038
    32  H    0.000001   0.349960   0.000157
    33  H   -0.000038   0.000157   0.269255
 Mulliken charges:
               1
     1  Zr   0.003683
     2  O   -0.549847
     3  O   -0.418679
     4  O   -0.680615
     5  O   -0.368759
     6  Si   2.230827
     7  Si   1.786150
     8  Si   2.017077
     9  Si   1.600942
    10  O   -0.843994
    11  O   -0.787502
    12  O   -0.790837
    13  O   -0.841987
    14  O   -0.880455
    15  O   -0.877086
    16  O   -0.734731
    17  O   -0.968447
    18  O   -1.081739
    19  O   -0.988012
    20  O   -0.804604
    21  O   -0.829981
    22  H    0.385964
    23  H    0.372343
    24  H    0.365918
    25  H    0.414775
    26  H    0.378673
    27  H    0.429329
    28  H    0.375963
    29  H    0.447553
    30  H    0.411414
    31  H    0.401996
    32  H    0.381363
    33  H    0.443305
 Sum of Mulliken charges =  -0.00000
 Mulliken charges with hydrogens summed into heavy atoms:
               1
     1  Zr   0.003683
     2  O   -0.549847
     3  O   -0.418679
     4  O   -0.680615
     5  O   -0.368759
     6  Si   2.230827
     7  Si   1.786150
     8  Si   2.017077
     9  Si   1.600942
    10  O   -0.471650
    11  O   -0.421584
    12  O   -0.404873
    13  O   -0.427212
    14  O   -0.451126
    15  O   -0.498412
    16  O   -0.353368
    17  O   -0.525142
    18  O   -0.679742
    19  O   -0.576598
    20  O   -0.428641
    21  O   -0.382429
 Electronic spatial extent (au):  <R**2>=           9869.0500
 Charge=             -0.0000 electrons
 Dipole moment (field-independent basis, Debye):
    X=              1.0777    Y=             -0.7778    Z=             -2.4093  Tot=              2.7516
 Quadrupole moment (field-independent basis, Debye-Ang):
   XX=           -160.2089   YY=           -154.6523   ZZ=           -157.7993
   XY=             -4.9204   XZ=              2.2320   YZ=              5.7263
 Traceless Quadrupole moment (field-independent basis, Debye-Ang):
   XX=             -2.6554   YY=              2.9012   ZZ=             -0.2458
   XY=             -4.9204   XZ=              2.2320   YZ=              5.7263
 Octapole moment (field-independent basis, Debye-Ang**2):
  XXX=             74.2995  YYY=              6.7133  ZZZ=            -18.5994  XYY=             -2.1188
  XXY=             20.2142  XXZ=             19.0961  XZZ=              5.3242  YZZ=            -17.2353
  YYZ=            -15.7105  XYZ=             28.1120
 Hexadecapole moment (field-independent basis, Debye-Ang**3):
 XXXX=          -6031.4859 YYYY=          -2835.2036 ZZZZ=          -2261.4364 XXXY=             56.9571
 XXXZ=            -24.5497 YYYX=              4.5682 YYYZ=            217.6578 ZZZX=           -183.7224
 ZZZY=            -55.1184 XXYY=          -1482.7301 XXZZ=          -1362.6009 YYZZ=           -924.5032
 XXYZ=             -7.2502 YYXZ=            130.0710 ZZXY=            -60.2277
 N-N= 2.832853742416D+03 E-N=-1.137830844727D+04  KE= 2.373154908707D+03
 1\1\GINC-GRA629\FOpt\RB3LYP\Gen\H12O16Si4Zr1\SARASHS\10-Aug-2020\0\\#n
  B3LYP/Gen Pseudo=cards EmpiricalDispersion=GD3 Opt\\Title\\0,1\Zr,0.6
 636253439,-0.1208314948,-0.0670927555\O,-0.1846693591,-0.9226760698,1.
 4893239856\O,-0.0002196232,1.7142141256,-0.1605739438\O,-0.1952425551,
 -1.0573499396,-1.5832579649\O,2.6129151203,-0.3171022746,-0.0551484753
 \Si,-1.730915556,-1.5097339276,-1.9463744386\Si,-1.2815766585,2.734917
 6401,-0.1528475922\Si,-1.6746480775,-1.2454350325,2.1188033627\Si,4.22
 29539174,-0.0441254087,0.0509362691\O,4.966013223,0.1322889268,-1.4127
 267254\O,4.9768825958,-1.3338110831,0.768781569\O,4.3633840278,1.37396
 54909,0.8824025081\O,-2.1780362208,-2.7570426813,1.7240728459\O,-2.739
 6434533,-0.0999959414,1.5216104334\O,-1.5725054605,-1.0733246955,3.746
 0854969\O,-1.8713215802,-1.7780336747,-3.5671802765\O,-2.797156985,-0.
 4125330327,-1.32589339\O,-2.1693178031,-2.9044816624,-1.1527100747\O,-
 2.1677540646,2.2526739789,-1.5000666692\O,-0.8924835434,4.3148840419,-
 0.3967060119\O,-2.1391382959,2.6308980502,1.2376106312\H,5.2269474934,
 1.8012939255,0.8714977815\H,5.3656806219,-0.6643547523,-1.7797954861\H
 ,4.556823543,-1.7147495828,1.5479421678\H,-2.2440048131,-2.9657541541,
 0.7748818428\H,-2.348213209,-1.3139496722,4.2641284165\H,-3.0574318572
 ,-0.285277464,0.6168526392\H,-0.8233857667,4.8625524326,0.3935857579\H
 ,-2.3922188821,1.7283577239,1.5241403758\H,-2.8123503386,2.8967027121,
 -1.8189088629\H,-2.076200779,-3.7255938491,-1.6488560742\H,-1.15434720
 9,-1.4494766795,-4.1209598429\H,-2.6364387959,0.5360840243,-1.53119349
 92\\Version=ES64L-G16RevB.01\State=1-A\HF=-2416.9468569\RMSD=2.478e-09
 \RMSF=5.471e-06\Dipole=0.4507307,-0.2986579,-0.9378668\Quadrupole=-1.5
 562517,1.87735,-0.3210983,-3.8915191,1.4670855,4.2699296\PG=C01 [X(H12
 O16Si4Zr1)]\\@


 The theorems and results in mathematical physics are
 not theorems and results about Nature, but about our
 description of it.
                   --Gerard 't Hooft
 Job cpu time:       0 days 21 hours 58 minutes 10.0 seconds.
 Elapsed time:       0 days  1 hours 38 minutes 12.7 seconds.
 File lengths (MBytes):  RWF=    167 Int=      0 D2E=      0 Chk=     21 Scr=      1
 Normal termination of Gaussian 16 at Mon Aug 10 19:31:57 2020.
