 Entering Gaussian System, Link 0=g16
 Initial command:
 /opt/software/gaussian/g16.b01/l1.exe "/localscratch/sarashs.37192506.0/Gau-10423.inp" -scrdir="/localscratch/sarashs.37192506.0/"
 Entering Link 1 = /opt/software/gaussian/g16.b01/l1.exe PID=     10424.
  
 Copyright (c) 1988-2017, Gaussian, Inc.  All Rights Reserved.
  
 This is part of the Gaussian(R) 16 program.  It is based on
 the Gaussian(R) 09 system (copyright 2009, Gaussian, Inc.),
 the Gaussian(R) 03 system (copyright 2003, Gaussian, Inc.),
 the Gaussian(R) 98 system (copyright 1998, Gaussian, Inc.),
 the Gaussian(R) 94 system (copyright 1995, Gaussian, Inc.),
 the Gaussian 92(TM) system (copyright 1992, Gaussian, Inc.),
 the Gaussian 90(TM) system (copyright 1990, Gaussian, Inc.),
 the Gaussian 88(TM) system (copyright 1988, Gaussian, Inc.),
 the Gaussian 86(TM) system (copyright 1986, Carnegie Mellon
 University), and the Gaussian 82(TM) system (copyright 1983,
 Carnegie Mellon University). Gaussian is a federally registered
 trademark of Gaussian, Inc.
  
 This software contains proprietary and confidential information,
 including trade secrets, belonging to Gaussian, Inc.
  
 This software is provided under written license and may be
 used, copied, transmitted, or stored only in accord with that
 written license.
  
 The following legend is applicable only to US Government
 contracts under FAR:
  
                    RESTRICTED RIGHTS LEGEND
  
 Use, reproduction and disclosure by the US Government is
 subject to restrictions as set forth in subparagraphs (a)
 and (c) of the Commercial Computer Software - Restricted
 Rights clause in FAR 52.227-19.
  
 Gaussian, Inc.
 340 Quinnipiac St., Bldg. 40, Wallingford CT 06492
  
  
 ---------------------------------------------------------------
 Warning -- This program may not be used in any manner that
 competes with the business of Gaussian, Inc. or will provide
 assistance to any competitor of Gaussian, Inc.  The licensee
 of this program is prohibited from giving any competitor of
 Gaussian, Inc. access to this program.  By using this program,
 the user acknowledges that Gaussian, Inc. is engaged in the
 business of creating and licensing software in the field of
 computational chemistry and represents and warrants to the
 licensee that it is not a competitor of Gaussian, Inc. and that
 it will not use this program in any manner prohibited above.
 ---------------------------------------------------------------
  

 Cite this work as:
 Gaussian 16, Revision B.01,
 M. J. Frisch, G. W. Trucks, H. B. Schlegel, G. E. Scuseria, 
 M. A. Robb, J. R. Cheeseman, G. Scalmani, V. Barone, 
 G. A. Petersson, H. Nakatsuji, X. Li, M. Caricato, A. V. Marenich, 
 J. Bloino, B. G. Janesko, R. Gomperts, B. Mennucci, H. P. Hratchian, 
 J. V. Ortiz, A. F. Izmaylov, J. L. Sonnenberg, D. Williams-Young, 
 F. Ding, F. Lipparini, F. Egidi, J. Goings, B. Peng, A. Petrone, 
 T. Henderson, D. Ranasinghe, V. G. Zakrzewski, J. Gao, N. Rega, 
 G. Zheng, W. Liang, M. Hada, M. Ehara, K. Toyota, R. Fukuda, 
 J. Hasegawa, M. Ishida, T. Nakajima, Y. Honda, O. Kitao, H. Nakai, 
 T. Vreven, K. Throssell, J. A. Montgomery, Jr., J. E. Peralta, 
 F. Ogliaro, M. J. Bearpark, J. J. Heyd, E. N. Brothers, K. N. Kudin, 
 V. N. Staroverov, T. A. Keith, R. Kobayashi, J. Normand, 
 K. Raghavachari, A. P. Rendell, J. C. Burant, S. S. Iyengar, 
 J. Tomasi, M. Cossi, J. M. Millam, M. Klene, C. Adamo, R. Cammi, 
 J. W. Ochterski, R. L. Martin, K. Morokuma, O. Farkas, 
 J. B. Foresman, and D. J. Fox, Gaussian, Inc., Wallingford CT, 2016.
 
 ******************************************
 Gaussian 16:  ES64L-G16RevB.01 20-Dec-2017
                12-Aug-2020 
 ******************************************
 %NProcShared=16
 Will use up to   16 processors via shared memory.
 ------------------------------------------------------------------
 #n B3LYP/Gen Pseudo=cards EmpiricalDispersion=GD3 Opt=modredundant
 ------------------------------------------------------------------
 1/18=120,19=15,26=3,38=1/1,3;
 2/9=110,12=2,17=6,18=5,40=1/2;
 3/5=7,11=2,16=1,17=8,25=1,30=1,71=1,74=-5,124=31/1,2,3;
 4//1;
 5/5=2,38=5/2;
 6/7=2,8=2,9=2,10=2,28=1/1;
 7//1,2,3,16;
 1/18=20,19=15,26=3/3(2);
 2/9=110/2;
 99//99;
 2/9=110/2;
 3/5=7,6=1,11=2,16=1,17=8,25=1,30=1,71=1,74=-5,82=7,124=31/1,2,3;
 4/5=5,16=3,69=1/1;
 5/5=2,38=5/2;
 7//1,2,3,16;
 1/18=20,19=15,26=3/3(-5);
 2/9=110/2;
 6/7=2,8=2,9=2,10=2,19=2,28=1/1;
 99/9=1/99;
 -----
 Title
 -----
 Symbolic Z-matrix:
 Charge =  0 Multiplicity = 1
 Zr                    0.65779  -0.12506  -0.07164 
 O                    -0.22285  -0.90624   1.4773 
 O                     0.10302   1.74748  -0.12299 
 O                    -0.2683   -0.97885  -1.59705 
 O                     2.59206  -0.4363   -0.08284 
 Si                   -1.83119  -1.33244  -1.9536 
 Si                   -1.1155    2.84172  -0.08279 
 Si                   -1.72376  -1.15291   2.11517 
 Si                    4.13824   0.0712    0.08969 
 O                     4.90119   0.3796   -1.34152 
 O                     5.04854  -1.10347   0.82351 
 O                     4.03423   1.48087   0.94061 
 O                    -2.31924  -2.624     1.69627 
 O                    -2.72422   0.06508   1.55086 
 O                    -1.59734  -1.01957   3.74439 
 O                    -2.00144  -1.55965  -3.57782 
 O                    -2.82509  -0.18676  -1.30145 
 O                    -2.34448  -2.71439  -1.18277 
 O                    -2.04046   2.43957  -1.43023 
 O                    -0.63565   4.40049  -0.29987 
 O                    -1.96551   2.76086   1.31383 
 H                     4.82419   2.03192   0.96829 
 H                     5.42872  -0.34279  -1.70066 
 H                     4.66099  -1.55508   1.58147 
 H                    -2.40577  -2.80951   0.74392 
 H                    -2.38137  -1.22423   4.26535 
 H                    -3.06034  -0.08306   0.64589 
 H                    -0.52731   4.92728   0.50015 
 H                    -2.26909   1.86932   1.58533 
 H                    -2.64854   3.12676  -1.73014 
 H                    -2.30452  -3.52952  -1.69562 
 H                    -1.27114  -1.26305  -4.13223 
 H                    -2.61026   0.75461  -1.48993 
 
 The following ModRedundant input section has been read:
 A       1       5       9 F                                                   
 D       1       5       9      12 F                                           
 D       3       1       5       9 F                                           
 

 GradGradGradGradGradGradGradGradGradGradGradGradGradGradGradGradGradGrad
 Berny optimization.
 Initialization pass.
                           ----------------------------
                           !    Initial Parameters    !
                           ! (Angstroms and Degrees)  !
 --------------------------                            --------------------------
 ! Name  Definition              Value          Derivative Info.                !
 --------------------------------------------------------------------------------
 ! R1    R(1,2)                  1.9455         estimate D2E/DX2                !
 ! R2    R(1,3)                  1.9537         estimate D2E/DX2                !
 ! R3    R(1,4)                  1.9783         estimate D2E/DX2                !
 ! R4    R(1,5)                  1.9592         estimate D2E/DX2                !
 ! R5    R(2,8)                  1.6494         estimate D2E/DX2                !
 ! R6    R(3,7)                  1.6382         estimate D2E/DX2                !
 ! R7    R(4,6)                  1.6416         estimate D2E/DX2                !
 ! R8    R(5,9)                  1.6365         estimate D2E/DX2                !
 ! R9    R(6,16)                 1.6488         estimate D2E/DX2                !
 ! R10   R(6,17)                 1.651          estimate D2E/DX2                !
 ! R11   R(6,18)                 1.6636         estimate D2E/DX2                !
 ! R12   R(7,19)                 1.6831         estimate D2E/DX2                !
 ! R13   R(7,20)                 1.6453         estimate D2E/DX2                !
 ! R14   R(7,21)                 1.6369         estimate D2E/DX2                !
 ! R15   R(8,13)                 1.6414         estimate D2E/DX2                !
 ! R16   R(8,14)                 1.6742         estimate D2E/DX2                !
 ! R17   R(8,15)                 1.6395         estimate D2E/DX2                !
 ! R18   R(9,10)                 1.6509         estimate D2E/DX2                !
 ! R19   R(9,11)                 1.6574         estimate D2E/DX2                !
 ! R20   R(9,12)                 1.6499         estimate D2E/DX2                !
 ! R21   R(10,23)                0.9639         estimate D2E/DX2                !
 ! R22   R(11,24)                0.9637         estimate D2E/DX2                !
 ! R23   R(12,22)                0.9636         estimate D2E/DX2                !
 ! R24   R(13,25)                0.9741         estimate D2E/DX2                !
 ! R25   R(14,27)                0.9767         estimate D2E/DX2                !
 ! R26   R(15,26)                0.9633         estimate D2E/DX2                !
 ! R27   R(16,32)                0.9637         estimate D2E/DX2                !
 ! R28   R(17,33)                0.9838         estimate D2E/DX2                !
 ! R29   R(18,31)                0.9639         estimate D2E/DX2                !
 ! R30   R(19,30)                0.9654         estimate D2E/DX2                !
 ! R31   R(20,28)                0.964          estimate D2E/DX2                !
 ! R32   R(21,29)                0.9802         estimate D2E/DX2                !
 ! A1    A(2,1,3)              106.0959         estimate D2E/DX2                !
 ! A2    A(2,1,4)              103.2214         estimate D2E/DX2                !
 ! A3    A(2,1,5)              112.8091         estimate D2E/DX2                !
 ! A4    A(3,1,4)              105.0977         estimate D2E/DX2                !
 ! A5    A(3,1,5)              115.6243         estimate D2E/DX2                !
 ! A6    A(4,1,5)              112.9055         estimate D2E/DX2                !
 ! A7    A(1,2,8)              141.2479         estimate D2E/DX2                !
 ! A8    A(1,3,7)              148.2962         estimate D2E/DX2                !
 ! A9    A(1,4,6)              134.9216         estimate D2E/DX2                !
 ! A10   A(1,5,9)              152.0003         Frozen                          !
 ! A11   A(4,6,16)             109.9952         estimate D2E/DX2                !
 ! A12   A(4,6,17)             109.7479         estimate D2E/DX2                !
 ! A13   A(4,6,18)             111.8422         estimate D2E/DX2                !
 ! A14   A(16,6,17)            114.9972         estimate D2E/DX2                !
 ! A15   A(16,6,18)            108.0658         estimate D2E/DX2                !
 ! A16   A(17,6,18)            101.9869         estimate D2E/DX2                !
 ! A17   A(3,7,19)             103.269          estimate D2E/DX2                !
 ! A18   A(3,7,20)             114.3706         estimate D2E/DX2                !
 ! A19   A(3,7,21)             111.9733         estimate D2E/DX2                !
 ! A20   A(19,7,20)            106.3205         estimate D2E/DX2                !
 ! A21   A(19,7,21)            112.6973         estimate D2E/DX2                !
 ! A22   A(20,7,21)            108.1076         estimate D2E/DX2                !
 ! A23   A(2,8,13)             111.4365         estimate D2E/DX2                !
 ! A24   A(2,8,14)             107.7362         estimate D2E/DX2                !
 ! A25   A(2,8,15)             107.5759         estimate D2E/DX2                !
 ! A26   A(13,8,14)            110.4391         estimate D2E/DX2                !
 ! A27   A(13,8,15)            110.7606         estimate D2E/DX2                !
 ! A28   A(14,8,15)            108.7751         estimate D2E/DX2                !
 ! A29   A(5,9,10)             113.7767         estimate D2E/DX2                !
 ! A30   A(5,9,11)             110.2316         estimate D2E/DX2                !
 ! A31   A(5,9,12)             105.0572         estimate D2E/DX2                !
 ! A32   A(10,9,11)            105.2128         estimate D2E/DX2                !
 ! A33   A(10,9,12)            108.4596         estimate D2E/DX2                !
 ! A34   A(11,9,12)            114.3201         estimate D2E/DX2                !
 ! A35   A(9,10,23)            115.8439         estimate D2E/DX2                !
 ! A36   A(9,11,24)            117.3551         estimate D2E/DX2                !
 ! A37   A(9,12,22)            116.8567         estimate D2E/DX2                !
 ! A38   A(8,13,25)            116.8991         estimate D2E/DX2                !
 ! A39   A(8,14,27)            114.056          estimate D2E/DX2                !
 ! A40   A(8,15,26)            117.2166         estimate D2E/DX2                !
 ! A41   A(6,16,32)            116.4907         estimate D2E/DX2                !
 ! A42   A(6,17,33)            117.1859         estimate D2E/DX2                !
 ! A43   A(6,18,31)            116.3076         estimate D2E/DX2                !
 ! A44   A(7,19,30)            115.1373         estimate D2E/DX2                !
 ! A45   A(7,20,28)            116.1676         estimate D2E/DX2                !
 ! A46   A(7,21,29)            116.2372         estimate D2E/DX2                !
 ! D1    D(3,1,2,8)             57.7292         estimate D2E/DX2                !
 ! D2    D(4,1,2,8)            -52.5301         estimate D2E/DX2                !
 ! D3    D(5,1,2,8)           -174.7067         estimate D2E/DX2                !
 ! D4    D(2,1,3,7)            -50.098          estimate D2E/DX2                !
 ! D5    D(4,1,3,7)             58.8315         estimate D2E/DX2                !
 ! D6    D(5,1,3,7)           -175.9641         estimate D2E/DX2                !
 ! D7    D(2,1,4,6)             42.7683         estimate D2E/DX2                !
 ! D8    D(3,1,4,6)            -68.2312         estimate D2E/DX2                !
 ! D9    D(5,1,4,6)            164.8802         estimate D2E/DX2                !
 ! D10   D(2,1,5,9)           -106.9247         estimate D2E/DX2                !
 ! D11   D(3,1,5,9)             15.4385         Frozen                          !
 ! D12   D(4,1,5,9)            136.5208         estimate D2E/DX2                !
 ! D13   D(1,2,8,13)            93.5308         estimate D2E/DX2                !
 ! D14   D(1,2,8,14)           -27.7655         estimate D2E/DX2                !
 ! D15   D(1,2,8,15)          -144.8802         estimate D2E/DX2                !
 ! D16   D(1,3,7,19)           -61.1012         estimate D2E/DX2                !
 ! D17   D(1,3,7,20)          -176.1751         estimate D2E/DX2                !
 ! D18   D(1,3,7,21)            60.409          estimate D2E/DX2                !
 ! D19   D(1,4,6,16)           160.167          estimate D2E/DX2                !
 ! D20   D(1,4,6,17)            32.6925         estimate D2E/DX2                !
 ! D21   D(1,4,6,18)           -79.742          estimate D2E/DX2                !
 ! D22   D(1,5,9,10)          -100.129          estimate D2E/DX2                !
 ! D23   D(1,5,9,11)           141.9684         estimate D2E/DX2                !
 ! D24   D(1,5,9,12)            18.3494         Frozen                          !
 ! D25   D(4,6,16,32)          -14.1998         estimate D2E/DX2                !
 ! D26   D(17,6,16,32)         110.2979         estimate D2E/DX2                !
 ! D27   D(18,6,16,32)        -136.5531         estimate D2E/DX2                !
 ! D28   D(4,6,17,33)           51.0095         estimate D2E/DX2                !
 ! D29   D(16,6,17,33)         -73.6179         estimate D2E/DX2                !
 ! D30   D(18,6,17,33)         169.7166         estimate D2E/DX2                !
 ! D31   D(4,6,18,31)          -96.4424         estimate D2E/DX2                !
 ! D32   D(16,6,18,31)          24.7715         estimate D2E/DX2                !
 ! D33   D(17,6,18,31)         146.349          estimate D2E/DX2                !
 ! D34   D(3,7,19,30)         -162.1837         estimate D2E/DX2                !
 ! D35   D(20,7,19,30)         -41.4662         estimate D2E/DX2                !
 ! D36   D(21,7,19,30)          76.796          estimate D2E/DX2                !
 ! D37   D(3,7,20,28)          -98.427          estimate D2E/DX2                !
 ! D38   D(19,7,20,28)         148.2947         estimate D2E/DX2                !
 ! D39   D(21,7,20,28)          27.0455         estimate D2E/DX2                !
 ! D40   D(3,7,21,29)          -49.8995         estimate D2E/DX2                !
 ! D41   D(19,7,21,29)          66.0156         estimate D2E/DX2                !
 ! D42   D(20,7,21,29)        -176.7753         estimate D2E/DX2                !
 ! D43   D(2,8,13,25)          -58.468          estimate D2E/DX2                !
 ! D44   D(14,8,13,25)          61.2404         estimate D2E/DX2                !
 ! D45   D(15,8,13,25)        -178.1888         estimate D2E/DX2                !
 ! D46   D(2,8,14,27)           80.2918         estimate D2E/DX2                !
 ! D47   D(13,8,14,27)         -41.6247         estimate D2E/DX2                !
 ! D48   D(15,8,14,27)        -163.3756         estimate D2E/DX2                !
 ! D49   D(2,8,15,26)         -174.1994         estimate D2E/DX2                !
 ! D50   D(13,8,15,26)         -52.1897         estimate D2E/DX2                !
 ! D51   D(14,8,15,26)          69.3652         estimate D2E/DX2                !
 ! D52   D(5,9,10,23)          -94.8506         estimate D2E/DX2                !
 ! D53   D(11,9,10,23)          25.9078         estimate D2E/DX2                !
 ! D54   D(12,9,10,23)         148.6401         estimate D2E/DX2                !
 ! D55   D(5,9,11,24)          -43.8206         estimate D2E/DX2                !
 ! D56   D(10,9,11,24)        -166.8801         estimate D2E/DX2                !
 ! D57   D(12,9,11,24)          74.2392         estimate D2E/DX2                !
 ! D58   D(5,9,12,22)         -166.477          estimate D2E/DX2                !
 ! D59   D(10,9,12,22)         -44.4745         estimate D2E/DX2                !
 ! D60   D(11,9,12,22)          72.5545         estimate D2E/DX2                !
 --------------------------------------------------------------------------------
 Trust Radius=3.00D-01 FncErr=1.00D-07 GrdErr=1.00D-06 EigMax=2.50D+02 EigMin=1.00D-04
 Number of steps in this run=    148 maximum allowed number of steps=    198.
 GradGradGradGradGradGradGradGradGradGradGradGradGradGradGradGradGradGrad

                          Input orientation:                          
 ---------------------------------------------------------------------
 Center     Atomic      Atomic             Coordinates (Angstroms)
 Number     Number       Type             X           Y           Z
 ---------------------------------------------------------------------
      1         40           0        0.657790   -0.125060   -0.071640
      2          8           0       -0.222850   -0.906240    1.477300
      3          8           0        0.103020    1.747480   -0.122990
      4          8           0       -0.268300   -0.978850   -1.597050
      5          8           0        2.592060   -0.436300   -0.082840
      6         14           0       -1.831190   -1.332440   -1.953600
      7         14           0       -1.115500    2.841720   -0.082790
      8         14           0       -1.723760   -1.152910    2.115170
      9         14           0        4.138240    0.071200    0.089690
     10          8           0        4.901190    0.379600   -1.341520
     11          8           0        5.048540   -1.103470    0.823510
     12          8           0        4.034230    1.480870    0.940610
     13          8           0       -2.319240   -2.624000    1.696270
     14          8           0       -2.724220    0.065080    1.550860
     15          8           0       -1.597340   -1.019570    3.744390
     16          8           0       -2.001440   -1.559650   -3.577820
     17          8           0       -2.825090   -0.186760   -1.301450
     18          8           0       -2.344480   -2.714390   -1.182770
     19          8           0       -2.040460    2.439570   -1.430230
     20          8           0       -0.635650    4.400490   -0.299870
     21          8           0       -1.965510    2.760860    1.313830
     22          1           0        4.824190    2.031920    0.968290
     23          1           0        5.428720   -0.342790   -1.700660
     24          1           0        4.660990   -1.555080    1.581470
     25          1           0       -2.405770   -2.809510    0.743920
     26          1           0       -2.381370   -1.224230    4.265350
     27          1           0       -3.060340   -0.083060    0.645890
     28          1           0       -0.527310    4.927280    0.500150
     29          1           0       -2.269090    1.869320    1.585330
     30          1           0       -2.648540    3.126760   -1.730140
     31          1           0       -2.304520   -3.529520   -1.695620
     32          1           0       -1.271140   -1.263050   -4.132230
     33          1           0       -2.610260    0.754610   -1.489930
 ---------------------------------------------------------------------
                    Distance matrix (angstroms):
                    1          2          3          4          5
     1  Zr   0.000000
     2  O    1.945504   0.000000
     3  O    1.953666   3.115983   0.000000
     4  O    1.978251   3.075543   3.121475   0.000000
     5  O    1.959183   3.252476   3.311469   3.281593   0.000000
     6  Si   3.345827   3.813067   4.071635   1.641578   4.885484
     7  Si   3.456366   4.156670   1.638221   4.196128   4.948880
     8  Si   3.392697   1.649380   4.093745   3.991145   4.896027
     9  Si   3.489710   4.679739   4.374717   4.833766   1.636458
    10  O    4.457995   5.987898   5.135985   5.351104   2.753552
    11  O    4.586640   5.315439   5.786359   5.843238   2.702014
    12  O    3.873501   4.910098   4.081267   5.567917   2.608226
    13  O    4.270002   2.719099   5.318542   4.214123   5.663226
    14  O    3.755882   2.684348   3.691278   4.126823   5.584191
    15  O    4.521929   2.653632   5.050190   5.504452   5.704294
    16  O    4.628483   5.398571   5.225104   2.695283   5.880225
    17  O    3.694143   3.874372   3.701875   2.692947   5.558129
    18  O    4.117386   3.853141   5.198238   2.737563   5.546978
    19  O    3.962783   4.790812   2.604299   3.854086   5.616612
    20  O    4.712290   5.611606   2.759598   5.545712   5.818913
    21  O    4.138812   4.063399   2.714813   5.033803   5.739683
    22  H    4.805508   5.862123   4.853993   6.448190   3.489898
    23  H    5.046076   6.508237   5.934758   5.733354   3.266914
    24  H    4.561068   4.927853   5.881086   5.893465   2.881331
    25  H    4.154132   2.987545   5.273682   3.660633   5.594101
    26  H    5.408711   3.540275   5.853271   6.236426   6.653014
    27  H    3.786965   3.069237   3.734823   3.691708   5.710118
    28  H    5.220876   5.922624   3.301022   6.272775   6.232041
    29  H    3.910208   3.450000   2.925766   4.716225   5.632890
    30  H    4.925117   5.695325   3.472237   4.747556   6.547739
    31  H    4.796138   4.613282   6.009671   3.265245   6.012118
    32  H    4.637260   5.717784   5.198616   2.741094   5.657331
    33  H    3.669539   4.154829   3.196280   2.915671   5.519266
                    6          7          8          9         10
     6  Si   0.000000
     7  Si   4.629876   0.000000
     8  Si   4.074145   4.599791   0.000000
     9  Si   6.463694   5.941996   6.321713   0.000000
    10  O    6.973569   6.621706   7.628057   1.650929   0.000000
    11  O    7.422631   7.374367   6.894554   1.657404   2.628415
    12  O    7.119994   5.423927   6.439785   1.649864   2.678158
    13  O    3.902290   5.872660   1.641396   7.179432   8.389541
    14  O    3.877087   3.600906   1.674176   7.016296   8.161597
    15  O    5.711363   5.457933   1.639549   6.887923   8.369889
    16  O    1.648848   5.689656   5.714252   7.335255   7.510528
    17  O    1.650975   3.685040   3.717481   7.105616   7.747114
    18  O    1.663560   5.795749   3.701340   7.169681   7.880210
    19  O    3.813892   1.683113   5.057279   6.789379   7.241398
    20  O    6.085279   1.645340   6.152776   6.456356   6.921646
    21  O    5.239203   1.636949   4.002272   6.781486   7.737755
    22  H    8.009397   6.086088   7.371169   2.255413   2.841006
    23  H    7.331417   7.455563   8.147075   2.245458   0.963907
    24  H    7.395586   7.447781   6.419627   2.267920   3.513482
    25  H    3.128657   5.855309   2.256056   7.179873   8.240822
    26  H    6.244177   6.086107   2.249625   7.849815   9.329788
    27  H    3.135141   3.587160   2.256060   7.221683   8.218869
    28  H    6.848729   2.243958   6.403787   6.746655   7.317223
    29  H    4.792395   2.249212   3.116406   6.820854   7.886611
    30  H    4.538993   2.268308   5.827281   7.662154   8.043403
    31  H    2.262246   6.678899   4.528540   7.593528   8.205417
    32  H    2.250533   5.768130   6.264743   6.990438   6.970224
    33  H    2.275460   2.927521   4.173878   6.964517   7.522270
                   11         12         13         14         15
    11  O    0.000000
    12  O    2.778732   0.000000
    13  O    7.573500   7.601813   0.000000
    14  O    7.893690   6.932064   2.723289   0.000000
    15  O    7.259910   6.769635   2.700024   2.694049   0.000000
    16  O    8.323582   8.129593   5.389792   5.428215   7.353213
    17  O    8.206696   7.406625   3.896453   2.865182   5.259415
    18  O    7.827961   7.924449   2.880569   3.916936   5.263795
    19  O    8.239320   6.591043   5.957555   3.872032   6.240088
    20  O    7.991594   5.645419   7.494165   5.155881   6.830662
    21  O    8.023114   6.146100   5.410000   2.810526   4.509415
    22  H    3.146739   0.963566   8.557812   7.822170   7.632455
    23  H    2.663570   3.499521   8.762074   8.786875   8.914714
    24  H    0.963665   3.165521   7.062534   7.560898   6.643169
    25  H    7.647460   7.740778   0.974101   3.002637   3.586121
    26  H    8.189286   7.715658   2.926327   3.024619   0.963321
    27  H    8.174761   7.270878   2.847614   0.976674   3.552200
    28  H    8.219769   5.734056   7.852614   5.437959   6.858213
    29  H    7.935084   6.348102   4.494969   1.861079   3.668579
    30  H    9.146640   7.382498   6.702236   4.488271   6.947485
    31  H    8.142434   8.499027   3.510712   4.861783   6.032716
    32  H    8.032632   7.836438   6.076357   6.014390   7.887131
    33  H    8.213506   7.112259   4.653125   3.120071   5.618881
                   16         17         18         19         20
    16  O    0.000000
    17  O    2.783000   0.000000
    18  O    2.680926   2.575652   0.000000
    19  O    4.539540   2.744055   5.168846   0.000000
    20  O    6.937839   5.180702   7.370287   2.663909   0.000000
    21  O    6.526587   4.033241   6.029510   2.763822   2.657243
    22  H    8.952972   8.281651   8.862525   7.283028   6.085081
    23  H    7.759623   8.264932   8.143423   7.975168   7.825439
    24  H    8.426522   8.137870   7.619818   8.362834   8.189179
    25  H    4.516976   3.352340   1.930010   5.693261   7.497128
    26  H    7.859527   5.680008   5.648358   6.780802   7.451594
    27  H    4.597968   1.964238   3.283344   3.422586   5.184188
    28  H    7.802766   5.888884   8.033022   3.493521   0.963990
    29  H    6.203837   3.587492   5.355227   3.077509   3.553720
    30  H    5.078888   3.345797   5.874615   0.965369   2.778450
    31  H    2.741336   3.405937   0.963872   5.980819   8.223035
    32  H    0.963680   3.403891   3.458000   4.647801   6.867788
    33  H    3.175806   0.983796   3.492699   1.779698   4.313672
                   21         22         23         24         25
    21  O    0.000000
    22  H    6.837454   0.000000
    23  H    8.567055   3.623258   0.000000
    24  H    7.912615   3.642690   3.582099   0.000000
    25  H    5.616729   8.704143   8.569709   7.225938   0.000000
    26  H    4.976480   8.566984   9.867508   7.543707   3.861888
    27  H    3.119724   8.169633   8.811237   7.915876   2.805637
    28  H    2.724678   6.102525   8.251757   8.373094   7.965297
    29  H    0.980162   7.121924   8.657219   7.729977   4.755849
    30  H    3.141045   8.020093   8.790948   9.290620   6.435776
    31  H    6.981447   9.425738   8.364106   7.947079   2.545589
    32  H    6.806877   8.603789   7.186622   8.241469   5.239825
    33  H    3.507394   7.933815   8.116273   8.224308   4.211277
                   26         27         28         29         30
    26  H    0.000000
    27  H    3.855355   0.000000
    28  H    7.446835   5.616136   0.000000
    29  H    4.094529   2.306602   3.682734   0.000000
    30  H    7.412718   4.014728   3.565906   3.566157   0.000000
    31  H    6.391669   4.234622   8.916129   6.317702   6.665254
    32  H    8.470742   5.236797   7.767394   6.595312   5.190154
    33  H    6.090275   2.337946   5.070530   3.288799   2.384588
                   31         32         33
    31  H    0.000000
    32  H    3.484513   0.000000
    33  H    4.299948   3.584124   0.000000
 Stoichiometry    H12O16Si4Zr
 Framework group  C1[X(H12O16Si4Zr)]
 Deg. of freedom    93
 Full point group                 C1      NOp   1
 Largest Abelian subgroup         C1      NOp   1
 Largest concise Abelian subgroup C1      NOp   1
                         Standard orientation:                         
 ---------------------------------------------------------------------
 Center     Atomic      Atomic             Coordinates (Angstroms)
 Number     Number       Type             X           Y           Z
 ---------------------------------------------------------------------
      1         40           0        0.649140   -0.261587   -0.104170
      2          8           0       -0.275853   -0.972125    1.452913
      3          8           0        0.283942    1.657559   -0.122124
      4          8           0       -0.386575   -0.997396   -1.620532
      5          8           0        2.541922   -0.764435   -0.158176
      6         14           0       -1.983504   -1.188033   -1.949555
      7         14           0       -0.817806    2.867463   -0.044338
      8         14           0       -1.781574   -1.076306    2.118049
      9         14           0        4.134166   -0.416464   -0.010963
     10          8           0        4.896934   -0.166153   -1.453563
     11          8           0        4.935902   -1.686259    0.690341
     12          8           0        4.188082    0.984665    0.858510
     13          8           0       -2.529305   -2.474582    1.693900
     14          8           0       -2.665448    0.243261    1.588545
     15          8           0       -1.611591   -0.978766    3.745842
     16          8           0       -2.206400   -1.374652   -3.572574
     17          8           0       -2.845057    0.042150   -1.263922
     18          8           0       -2.618005   -2.522258   -1.184909
     19          8           0       -1.803766    2.578420   -1.377457
     20          8           0       -0.188362    4.373306   -0.252617
     21          8           0       -1.645033    2.852710    1.368136
     22          1           0        5.029670    1.453555    0.876724
     23          1           0        5.342518   -0.932632   -1.831824
     24          1           0        4.519473   -2.107284    1.450587
     25          1           0       -2.652014   -2.637353    0.741366
     26          1           0       -2.402175   -1.111199    4.280096
     27          1           0       -3.031803    0.141964    0.688869
     28          1           0       -0.012642    4.875537    0.551226
     29          1           0       -2.031231    1.992321    1.635151
     30          1           0       -2.345491    3.327025   -1.656852
     31          1           0       -2.669654   -3.330144   -1.708073
     32          1           0       -1.460686   -1.144916   -4.138094
     33          1           0       -2.540580    0.959842   -1.445555
 ---------------------------------------------------------------------
 Rotational constants (GHZ):           0.2145005           0.1355338           0.1262198
 General basis read from cards:  (5D, 7F)
 ======================================================================================================
                                       Pseudopotential Parameters
 ======================================================================================================
  Center     Atomic      Valence      Angular      Power
  Number     Number     Electrons     Momentum     of R      Exponent        Coefficient   SO-Coeffient
 ======================================================================================================
    1         40           12
                                      G and up 
                                                     2        1.0000000        0.00000000    0.00000000
                                      S - G
                                                     2        8.6365280      150.24299400    0.00000000
                                                     2        3.7176390       18.78003600    0.00000000
                                      P - G
                                                     2        7.6267280       33.19279100    0.00000000
                                                     2        7.4532070       66.38903900    0.00000000
                                                     2        3.3583890        4.62072600    0.00000000
                                                     2        3.2297380        9.26027000    0.00000000
                                      D - G
                                                     2        5.9380860       13.99338300    0.00000000
                                                     2        5.8255440       20.99588200    0.00000000
                                                     2        2.2050190        2.28516600    0.00000000
                                                     2        2.2062920        3.44126000    0.00000000
                                      F - G
                                                     2        4.8002150       -5.23932000    0.00000000
                                                     2        4.7989920       -6.98742400    0.00000000
    2          8
                                   No pseudopotential on this center.
    3          8
                                   No pseudopotential on this center.
    4          8
                                   No pseudopotential on this center.
    5          8
                                   No pseudopotential on this center.
    6         14
                                   No pseudopotential on this center.
    7         14
                                   No pseudopotential on this center.
    8         14
                                   No pseudopotential on this center.
    9         14
                                   No pseudopotential on this center.
   10          8
                                   No pseudopotential on this center.
   11          8
                                   No pseudopotential on this center.
   12          8
                                   No pseudopotential on this center.
   13          8
                                   No pseudopotential on this center.
   14          8
                                   No pseudopotential on this center.
   15          8
                                   No pseudopotential on this center.
   16          8
                                   No pseudopotential on this center.
   17          8
                                   No pseudopotential on this center.
   18          8
                                   No pseudopotential on this center.
   19          8
                                   No pseudopotential on this center.
   20          8
                                   No pseudopotential on this center.
   21          8
                                   No pseudopotential on this center.
   22          1
                                   No pseudopotential on this center.
   23          1
                                   No pseudopotential on this center.
   24          1
                                   No pseudopotential on this center.
   25          1
                                   No pseudopotential on this center.
   26          1
                                   No pseudopotential on this center.
   27          1
                                   No pseudopotential on this center.
   28          1
                                   No pseudopotential on this center.
   29          1
                                   No pseudopotential on this center.
   30          1
                                   No pseudopotential on this center.
   31          1
                                   No pseudopotential on this center.
   32          1
                                   No pseudopotential on this center.
   33          1
                                   No pseudopotential on this center.
 ======================================================================================================
 There are   570 symmetry adapted cartesian basis functions of A   symmetry.
 There are   524 symmetry adapted basis functions of A   symmetry.
   524 basis functions,  1074 primitive gaussians,   570 cartesian basis functions
   104 alpha electrons      104 beta electrons
       nuclear repulsion energy      2842.4485474026 Hartrees.
 NAtoms=   33 NActive=   33 NUniq=   33 SFac= 1.00D+00 NAtFMM=   60 NAOKFM=F Big=F
 Integral buffers will be    131072 words long.
 Raffenetti 2 integral format.
 Two-electron integral symmetry is turned on.
 Nuclear repulsion after empirical dispersion term =     2842.4075783442 Hartrees.
 One-electron integrals computed using PRISM.
 PrsmSu:  requested number of processors reduced to:   4 ShMem   1 Linda.
   1 Symmetry operations used in ECPInt.
 ECPInt:  NShTT=   13203 NPrTT=   78401 LenC2=   11551 LenP2D=   44768.
 LDataN:  DoStor=T MaxTD1= 8 Len=  415
 Number of processors reduced to  13 by ecpmxn.
 NBasis=   524 RedAO= T EigKep=  3.03D-05  NBF=   524
 NBsUse=   524 1.00D-06 EigRej= -1.00D+00 NBFU=   524
 Defaulting to unpruned grid for atomic number  40.
 ExpMin= 1.01D-02 ExpMax= 1.61D+04 ExpMxC= 2.43D+03 IAcc=3 IRadAn=         5 AccDes= 0.00D+00
 Harris functional with IExCor=  402 and IRadAn=       5 diagonalized for initial guess.
 HarFok:  IExCor=  402 AccDes= 0.00D+00 IRadAn=         5 IDoV= 1 UseB2=F ITyADJ=14
 ICtDFT=  3500011 ScaDFX=  1.000000  1.000000  1.000000  1.000000
 Defaulting to unpruned grid for atomic number  40.
 FoFCou: FMM=F IPFlag=           0 FMFlag=      100000 FMFlg1=           0
         NFxFlg=           0 DoJE=T BraDBF=F KetDBF=T FulRan=T
         wScrn=  0.000000 ICntrl=       500 IOpCl=  0 I1Cent=   200000004 NGrid=           0
         NMat0=    1 NMatS0=      1 NMatT0=    0 NMatD0=    1 NMtDS0=    0 NMtDT0=    0
 Petite list used in FoFCou.
 Requested convergence on RMS density matrix=1.00D-08 within 128 cycles.
 Requested convergence on MAX density matrix=1.00D-06.
 Requested convergence on             energy=1.00D-06.
 No special actions if energy rises.
 Defaulting to unpruned grid for atomic number  40.
 Defaulting to unpruned grid for atomic number  40.
 Defaulting to unpruned grid for atomic number  40.
 Defaulting to unpruned grid for atomic number  40.
 Defaulting to unpruned grid for atomic number  40.
 Defaulting to unpruned grid for atomic number  40.
 Defaulting to unpruned grid for atomic number  40.
 Defaulting to unpruned grid for atomic number  40.
 Defaulting to unpruned grid for atomic number  40.
 Defaulting to unpruned grid for atomic number  40.
 Defaulting to unpruned grid for atomic number  40.
 Defaulting to unpruned grid for atomic number  40.
 Defaulting to unpruned grid for atomic number  40.
 Defaulting to unpruned grid for atomic number  40.
 Defaulting to unpruned grid for atomic number  40.
 Defaulting to unpruned grid for atomic number  40.
 SCF Done:  E(RB3LYP) =  -2416.94664437     A.U. after   14 cycles
            NFock= 14  Conv=0.25D-08     -V/T= 2.0184

 **********************************************************************

            Population analysis using the SCF Density.

 **********************************************************************

 Orbital symmetries:
       Occupied  (A) (A) (A) (A) (A) (A) (A) (A) (A) (A) (A) (A)
                 (A) (A) (A) (A) (A) (A) (A) (A) (A) (A) (A) (A)
                 (A) (A) (A) (A) (A) (A) (A) (A) (A) (A) (A) (A)
                 (A) (A) (A) (A) (A) (A) (A) (A) (A) (A) (A) (A)
                 (A) (A) (A) (A) (A) (A) (A) (A) (A) (A) (A) (A)
                 (A) (A) (A) (A) (A) (A) (A) (A) (A) (A) (A) (A)
                 (A) (A) (A) (A) (A) (A) (A) (A) (A) (A) (A) (A)
                 (A) (A) (A) (A) (A) (A) (A) (A) (A) (A) (A) (A)
                 (A) (A) (A) (A) (A) (A) (A) (A)
       Virtual   (A) (A) (A) (A) (A) (A) (A) (A) (A) (A) (A) (A)
                 (A) (A) (A) (A) (A) (A) (A) (A) (A) (A) (A) (A)
                 (A) (A) (A) (A) (A) (A) (A) (A) (A) (A) (A) (A)
                 (A) (A) (A) (A) (A) (A) (A) (A) (A) (A) (A) (A)
                 (A) (A) (A) (A) (A) (A) (A) (A) (A) (A) (A) (A)
                 (A) (A) (A) (A) (A) (A) (A) (A) (A) (A) (A) (A)
                 (A) (A) (A) (A) (A) (A) (A) (A) (A) (A) (A) (A)
                 (A) (A) (A) (A) (A) (A) (A) (A) (A) (A) (A) (A)
                 (A) (A) (A) (A) (A) (A) (A) (A) (A) (A) (A) (A)
                 (A) (A) (A) (A) (A) (A) (A) (A) (A) (A) (A) (A)
                 (A) (A) (A) (A) (A) (A) (A) (A) (A) (A) (A) (A)
                 (A) (A) (A) (A) (A) (A) (A) (A) (A) (A) (A) (A)
                 (A) (A) (A) (A) (A) (A) (A) (A) (A) (A) (A) (A)
                 (A) (A) (A) (A) (A) (A) (A) (A) (A) (A) (A) (A)
                 (A) (A) (A) (A) (A) (A) (A) (A) (A) (A) (A) (A)
                 (A) (A) (A) (A) (A) (A) (A) (A) (A) (A) (A) (A)
                 (A) (A) (A) (A) (A) (A) (A) (A) (A) (A) (A) (A)
                 (A) (A) (A) (A) (A) (A) (A) (A) (A) (A) (A) (A)
                 (A) (A) (A) (A) (A) (A) (A) (A) (A) (A) (A) (A)
                 (A) (A) (A) (A) (A) (A) (A) (A) (A) (A) (A) (A)
                 (A) (A) (A) (A) (A) (A) (A) (A) (A) (A) (A) (A)
                 (A) (A) (A) (A) (A) (A) (A) (A) (A) (A) (A) (A)
                 (A) (A) (A) (A) (A) (A) (A) (A) (A) (A) (A) (A)
                 (A) (A) (A) (A) (A) (A) (A) (A) (A) (A) (A) (A)
                 (A) (A) (A) (A) (A) (A) (A) (A) (A) (A) (A) (A)
                 (A) (A) (A) (A) (A) (A) (A) (A) (A) (A) (A) (A)
                 (A) (A) (A) (A) (A) (A) (A) (A) (A) (A) (A) (A)
                 (A) (A) (A) (A) (A) (A) (A) (A) (A) (A) (A) (A)
                 (A) (A) (A) (A) (A) (A) (A) (A) (A) (A) (A) (A)
                 (A) (A) (A) (A) (A) (A) (A) (A) (A) (A) (A) (A)
                 (A) (A) (A) (A) (A) (A) (A) (A) (A) (A) (A) (A)
                 (A) (A) (A) (A) (A) (A) (A) (A) (A) (A) (A) (A)
                 (A) (A) (A) (A) (A) (A) (A) (A) (A) (A) (A) (A)
                 (A) (A) (A) (A) (A) (A) (A) (A) (A) (A) (A) (A)
                 (A) (A) (A) (A) (A) (A) (A) (A) (A) (A) (A) (A)
 The electronic state is 1-A.
 Alpha  occ. eigenvalues --  -66.22736 -66.21692 -66.21519 -66.20964 -19.18524
 Alpha  occ. eigenvalues --  -19.18295 -19.17727 -19.16963 -19.16680 -19.16547
 Alpha  occ. eigenvalues --  -19.16476 -19.16423 -19.16117 -19.15936 -19.15928
 Alpha  occ. eigenvalues --  -19.15422 -19.15382 -19.15155 -19.14834 -19.14637
 Alpha  occ. eigenvalues --   -5.36796  -5.35772  -5.35609  -5.35024  -3.72780
 Alpha  occ. eigenvalues --   -3.72753  -3.72707  -3.71763  -3.71716  -3.71681
 Alpha  occ. eigenvalues --   -3.71577  -3.71567  -3.71531  -3.70988  -3.70980
 Alpha  occ. eigenvalues --   -3.70954  -2.13256  -1.29522  -1.29424  -1.29265
 Alpha  occ. eigenvalues --   -1.05617  -1.04718  -1.04231  -1.03430  -1.02502
 Alpha  occ. eigenvalues --   -1.02112  -1.01413  -1.01049  -1.00802  -1.00602
 Alpha  occ. eigenvalues --   -0.99768  -0.99238  -0.97346  -0.96208  -0.95689
 Alpha  occ. eigenvalues --   -0.95349  -0.60926  -0.59113  -0.59006  -0.58421
 Alpha  occ. eigenvalues --   -0.55480  -0.54474  -0.53951  -0.53086  -0.52980
 Alpha  occ. eigenvalues --   -0.52426  -0.52083  -0.51645  -0.48706  -0.47513
 Alpha  occ. eigenvalues --   -0.47117  -0.46613  -0.43312  -0.42586  -0.41798
 Alpha  occ. eigenvalues --   -0.41359  -0.41192  -0.40426  -0.39778  -0.39280
 Alpha  occ. eigenvalues --   -0.38838  -0.38650  -0.38605  -0.38107  -0.37946
 Alpha  occ. eigenvalues --   -0.37590  -0.37429  -0.37110  -0.36548  -0.36380
 Alpha  occ. eigenvalues --   -0.36116  -0.35635  -0.35433  -0.35080  -0.34920
 Alpha  occ. eigenvalues --   -0.34543  -0.33944  -0.33696  -0.33430  -0.33208
 Alpha  occ. eigenvalues --   -0.32799  -0.32244  -0.31990  -0.31230
 Alpha virt. eigenvalues --   -0.04275  -0.03070  -0.02973  -0.02766  -0.02037
 Alpha virt. eigenvalues --   -0.01111  -0.00470  -0.00059   0.00154   0.00240
 Alpha virt. eigenvalues --    0.00872   0.00933   0.01121   0.02029   0.02360
 Alpha virt. eigenvalues --    0.03112   0.03370   0.03862   0.04027   0.04068
 Alpha virt. eigenvalues --    0.04115   0.04859   0.05627   0.05900   0.06276
 Alpha virt. eigenvalues --    0.06586   0.06996   0.07448   0.07724   0.08682
 Alpha virt. eigenvalues --    0.08814   0.09151   0.09239   0.09822   0.10017
 Alpha virt. eigenvalues --    0.10404   0.10735   0.10775   0.11392   0.11698
 Alpha virt. eigenvalues --    0.11747   0.12648   0.13198   0.13445   0.13528
 Alpha virt. eigenvalues --    0.14052   0.14492   0.15015   0.15099   0.15304
 Alpha virt. eigenvalues --    0.15333   0.15786   0.16125   0.16708   0.17118
 Alpha virt. eigenvalues --    0.17449   0.17551   0.17728   0.18031   0.18265
 Alpha virt. eigenvalues --    0.18462   0.18909   0.19272   0.19617   0.19977
 Alpha virt. eigenvalues --    0.20083   0.20449   0.20854   0.20988   0.21249
 Alpha virt. eigenvalues --    0.21788   0.22088   0.22241   0.22613   0.22813
 Alpha virt. eigenvalues --    0.23436   0.23810   0.24134   0.24230   0.24957
 Alpha virt. eigenvalues --    0.24997   0.25320   0.25662   0.26125   0.26309
 Alpha virt. eigenvalues --    0.26487   0.26639   0.26899   0.27242   0.27488
 Alpha virt. eigenvalues --    0.28119   0.28224   0.28565   0.28930   0.29027
 Alpha virt. eigenvalues --    0.29626   0.29898   0.30086   0.30470   0.30922
 Alpha virt. eigenvalues --    0.31114   0.31385   0.31677   0.31793   0.32203
 Alpha virt. eigenvalues --    0.32276   0.33040   0.33316   0.33558   0.34034
 Alpha virt. eigenvalues --    0.34837   0.34975   0.35237   0.36071   0.36272
 Alpha virt. eigenvalues --    0.37232   0.37623   0.38359   0.38387   0.38957
 Alpha virt. eigenvalues --    0.39409   0.39833   0.40273   0.41282   0.41755
 Alpha virt. eigenvalues --    0.42697   0.43371   0.43868   0.44295   0.44648
 Alpha virt. eigenvalues --    0.45149   0.45513   0.46234   0.46906   0.47421
 Alpha virt. eigenvalues --    0.48003   0.48634   0.48902   0.49591   0.49789
 Alpha virt. eigenvalues --    0.50354   0.51083   0.51458   0.51916   0.53696
 Alpha virt. eigenvalues --    0.53887   0.54788   0.55649   0.56991   0.57346
 Alpha virt. eigenvalues --    0.57471   0.58708   0.58980   0.59347   0.61022
 Alpha virt. eigenvalues --    0.61063   0.61978   0.62069   0.64756   0.65961
 Alpha virt. eigenvalues --    0.66619   0.67480   0.67958   0.68776   0.69536
 Alpha virt. eigenvalues --    0.69910   0.70294   0.73076   0.74024   0.74971
 Alpha virt. eigenvalues --    0.75602   0.77468   0.78341   0.79450   0.80063
 Alpha virt. eigenvalues --    0.81119   0.81767   0.82852   0.84258   0.85292
 Alpha virt. eigenvalues --    0.86335   0.87754   0.89557   0.91128   0.91372
 Alpha virt. eigenvalues --    0.94581   0.95869   0.96029   0.96984   0.97581
 Alpha virt. eigenvalues --    0.97879   0.98503   0.99332   0.99563   1.00490
 Alpha virt. eigenvalues --    1.00915   1.01505   1.01955   1.03716   1.03991
 Alpha virt. eigenvalues --    1.04460   1.05510   1.06632   1.06727   1.07815
 Alpha virt. eigenvalues --    1.09666   1.11916   1.15238   1.16261   1.16666
 Alpha virt. eigenvalues --    1.19006   1.19353   1.19945   1.20498   1.20932
 Alpha virt. eigenvalues --    1.21287   1.22109   1.22675   1.23096   1.23266
 Alpha virt. eigenvalues --    1.23735   1.24020   1.24585   1.25362   1.25745
 Alpha virt. eigenvalues --    1.26303   1.27154   1.27775   1.28224   1.29170
 Alpha virt. eigenvalues --    1.29211   1.29779   1.30373   1.31013   1.31848
 Alpha virt. eigenvalues --    1.32500   1.32711   1.33296   1.33711   1.34491
 Alpha virt. eigenvalues --    1.35401   1.36194   1.36850   1.37021   1.38222
 Alpha virt. eigenvalues --    1.38922   1.39931   1.40461   1.41241   1.41570
 Alpha virt. eigenvalues --    1.43060   1.43865   1.44375   1.45277   1.46185
 Alpha virt. eigenvalues --    1.47561   1.48585   1.50111   1.51991   1.52308
 Alpha virt. eigenvalues --    1.56665   1.57373   1.58036   1.58876   1.59793
 Alpha virt. eigenvalues --    1.60103   1.61562   1.61960   1.62450   1.62890
 Alpha virt. eigenvalues --    1.63265   1.63953   1.65161   1.65634   1.66375
 Alpha virt. eigenvalues --    1.66998   1.67946   1.69093   1.69694   1.70412
 Alpha virt. eigenvalues --    1.71260   1.71479   1.72030   1.72417   1.73515
 Alpha virt. eigenvalues --    1.74087   1.74299   1.75543   1.76680   1.77046
 Alpha virt. eigenvalues --    1.77367   1.77928   1.78354   1.78952   1.79865
 Alpha virt. eigenvalues --    1.80184   1.80718   1.82196   1.82268   1.83452
 Alpha virt. eigenvalues --    1.83909   1.84561   1.85414   1.86380   1.86931
 Alpha virt. eigenvalues --    1.87169   1.88036   1.88180   1.89889   1.90238
 Alpha virt. eigenvalues --    1.91528   1.91962   1.92558   1.92987   1.93636
 Alpha virt. eigenvalues --    1.94450   1.94964   1.96014   1.97679   1.98129
 Alpha virt. eigenvalues --    1.99610   2.00497   2.01943   2.02740   2.03643
 Alpha virt. eigenvalues --    2.05921   2.06738   2.08696   2.09778   2.10938
 Alpha virt. eigenvalues --    2.11166   2.13075   2.14722   2.15689   2.16594
 Alpha virt. eigenvalues --    2.17795   2.18811   2.19991   2.21516   2.24704
 Alpha virt. eigenvalues --    2.33135   2.33525   2.35815   2.39555   2.40426
 Alpha virt. eigenvalues --    2.41079   2.41543   2.41885   2.42771   2.43919
 Alpha virt. eigenvalues --    2.44093   2.45182   2.46749   2.47706   2.49278
 Alpha virt. eigenvalues --    2.50137   2.50374   2.51762   2.52411   2.53616
 Alpha virt. eigenvalues --    2.55395   2.58489   2.59840   2.60248   2.60728
 Alpha virt. eigenvalues --    2.61238   2.61767   2.62070   2.62677   2.62918
 Alpha virt. eigenvalues --    2.63210   2.64114   2.64775   2.65082   2.66018
 Alpha virt. eigenvalues --    2.66605   2.66752   2.67499   2.67719   2.69450
 Alpha virt. eigenvalues --    2.70410   2.71165   2.71299   2.71691   2.72702
 Alpha virt. eigenvalues --    2.74139   2.75616   2.75885   2.77151   2.77841
 Alpha virt. eigenvalues --    2.79133   2.80541   2.81814   2.82608   2.83548
 Alpha virt. eigenvalues --    2.83955   2.84824   2.86830   2.87925   2.88172
 Alpha virt. eigenvalues --    3.15356   3.21506   3.35984   3.40388   3.46542
 Alpha virt. eigenvalues --    3.47805   3.48643   3.49192   3.51040   3.51116
 Alpha virt. eigenvalues --    3.52285   3.54621   3.60359   3.61161   3.62066
 Alpha virt. eigenvalues --    3.66233   4.38323   4.68049   7.70176  31.24177
          Condensed to atoms (all electrons):
               1          2          3          4          5          6
     1  Zr  15.562412  -0.171499   0.007147  -0.197807  -0.123871  -0.647341
     2  O   -0.171499   9.063395   0.015504  -0.042676  -0.049920   0.095930
     3  O    0.007147   0.015504   8.800862   0.010311  -0.051161  -0.009648
     4  O   -0.197807  -0.042676   0.010311   8.811252  -0.065916  -0.656049
     5  O   -0.123871  -0.049920  -0.051161  -0.065916   9.314345  -0.000336
     6  Si  -0.647341   0.095930  -0.009648  -0.656049  -0.000336  13.962064
     7  Si  -0.653368  -0.024470  -0.865918  -0.004701  -0.028787   0.094669
     8  Si  -0.636384  -0.966048  -0.029611   0.085619  -0.006167  -0.021607
     9  Si  -0.525008  -0.021735   0.022703  -0.012878  -1.179646   0.057133
    10  O   -0.024841   0.000581  -0.003885   0.000108   0.119518  -0.002999
    11  O   -0.097462   0.003095   0.002775   0.001236   0.310407  -0.000430
    12  O    0.060180  -0.000628   0.005390   0.001776   0.167352  -0.003701
    13  O   -0.027273   0.191912   0.001423  -0.014592  -0.000937   0.029314
    14  O   -0.041199   0.257424  -0.019023  -0.009955   0.000678   0.035910
    15  O   -0.087671   0.286962  -0.000538   0.001143   0.000548   0.001645
    16  O   -0.113219   0.004688  -0.000489   0.340858   0.002766  -0.430169
    17  O   -0.122426  -0.038653   0.006095   0.216130   0.000239  -0.424188
    18  O   -0.049215  -0.014756   0.003446   0.207710  -0.000855  -0.445570
    19  O   -0.002878   0.008921   0.269995   0.012047   0.002006  -0.008255
    20  O   -0.140403  -0.000614   0.149452  -0.000777   0.000802   0.009103
    21  O    0.044330   0.010608   0.157188   0.003743   0.000674  -0.015627
    22  H   -0.011603  -0.000009   0.000065  -0.000009   0.004292   0.000152
    23  H   -0.005071  -0.000012  -0.000006  -0.000057  -0.024797   0.000079
    24  H   -0.006259  -0.000111   0.000006   0.000003  -0.003587   0.000038
    25  H    0.015537  -0.019969  -0.000098  -0.000670   0.000024   0.004009
    26  H    0.009005   0.000767   0.000013  -0.000010  -0.000002  -0.000348
    27  H    0.013825  -0.019453   0.000947  -0.001624   0.000024   0.005927
    28  H    0.004415  -0.000010  -0.017811  -0.000014  -0.000012  -0.000306
    29  H    0.004004  -0.007040  -0.020153  -0.000126  -0.000062  -0.000122
    30  H    0.001442  -0.000014   0.000129  -0.000477  -0.000007  -0.001238
    31  H    0.001177   0.000156  -0.000021  -0.018508  -0.000008   0.063605
    32  H    0.001840  -0.000027   0.000037   0.010681   0.000006   0.022943
    33  H   -0.018791   0.001068  -0.010256  -0.009898  -0.000075   0.055362
               7          8          9         10         11         12
     1  Zr  -0.653368  -0.636384  -0.525008  -0.024841  -0.097462   0.060180
     2  O   -0.024470  -0.966048  -0.021735   0.000581   0.003095  -0.000628
     3  O   -0.865918  -0.029611   0.022703  -0.003885   0.002775   0.005390
     4  O   -0.004701   0.085619  -0.012878   0.000108   0.001236   0.001776
     5  O   -0.028787  -0.006167  -1.179646   0.119518   0.310407   0.167352
     6  Si   0.094669  -0.021607   0.057133  -0.002999  -0.000430  -0.003701
     7  Si  13.787534   0.190806   0.029976   0.000377  -0.000104   0.003784
     8  Si   0.190806  13.758413   0.035772  -0.001093   0.001703  -0.001445
     9  Si   0.029976   0.035772  14.212264  -0.018916  -0.165628  -0.278464
    10  O    0.000377  -0.001093  -0.018916   8.532134  -0.011043   0.042122
    11  O   -0.000104   0.001703  -0.165628  -0.011043   8.563904  -0.054097
    12  O    0.003784  -0.001445  -0.278464   0.042122  -0.054097   8.637494
    13  O    0.006337  -0.099175  -0.000295  -0.000000   0.000015   0.000015
    14  O    0.016482  -0.345882  -0.000955  -0.000001   0.000005   0.000056
    15  O   -0.001611  -0.298090  -0.000068   0.000001  -0.000027  -0.000039
    16  O    0.003591  -0.010966  -0.001494   0.000012  -0.000003   0.000002
    17  O    0.006680   0.107209   0.003844   0.000000   0.000003  -0.000007
    18  O   -0.001110   0.079398   0.004282   0.000001   0.000000  -0.000002
    19  O   -0.415336  -0.017589   0.001055   0.000009   0.000001  -0.000005
    20  O   -0.091924   0.010057   0.003797   0.000005  -0.000001  -0.000040
    21  O    0.008344  -0.044892  -0.003238  -0.000001   0.000004   0.000030
    22  H   -0.000275   0.000161   0.051082  -0.004997  -0.004931   0.219861
    23  H    0.000047   0.000051   0.075124   0.230230  -0.005251   0.005652
    24  H    0.000062  -0.000066   0.039713   0.007873   0.237758  -0.007016
    25  H   -0.000371   0.057471  -0.000164   0.000000   0.000000  -0.000000
    26  H   -0.000426   0.044602  -0.000081  -0.000000   0.000000  -0.000000
    27  H   -0.000079   0.064962  -0.000108   0.000000  -0.000000  -0.000000
    28  H    0.056066  -0.000051  -0.000141  -0.000000  -0.000000  -0.000010
    29  H    0.048314   0.021888  -0.000096   0.000000  -0.000000  -0.000003
    30  H    0.040832   0.000135   0.000011   0.000000  -0.000000  -0.000000
    31  H    0.000152  -0.002431  -0.000051   0.000000  -0.000000  -0.000000
    32  H   -0.000716   0.000080  -0.000042  -0.000000   0.000000  -0.000000
    33  H    0.020995   0.000401   0.000136  -0.000000  -0.000000   0.000000
              13         14         15         16         17         18
     1  Zr  -0.027273  -0.041199  -0.087671  -0.113219  -0.122426  -0.049215
     2  O    0.191912   0.257424   0.286962   0.004688  -0.038653  -0.014756
     3  O    0.001423  -0.019023  -0.000538  -0.000489   0.006095   0.003446
     4  O   -0.014592  -0.009955   0.001143   0.340858   0.216130   0.207710
     5  O   -0.000937   0.000678   0.000548   0.002766   0.000239  -0.000855
     6  Si   0.029314   0.035910   0.001645  -0.430169  -0.424188  -0.445570
     7  Si   0.006337   0.016482  -0.001611   0.003591   0.006680  -0.001110
     8  Si  -0.099175  -0.345882  -0.298090  -0.010966   0.107209   0.079398
     9  Si  -0.000295  -0.000955  -0.000068  -0.001494   0.003844   0.004282
    10  O   -0.000000  -0.000001   0.000001   0.000012   0.000000   0.000001
    11  O    0.000015   0.000005  -0.000027  -0.000003   0.000003   0.000000
    12  O    0.000015   0.000056  -0.000039   0.000002  -0.000007  -0.000002
    13  O    8.627739   0.086809  -0.092576   0.003777  -0.031196  -0.045838
    14  O    0.086809   8.672267   0.055536   0.003483  -0.035483  -0.027396
    15  O   -0.092576   0.055536   8.775856  -0.000173   0.003671   0.001720
    16  O    0.003777   0.003483  -0.000173   8.900390  -0.092199  -0.113621
    17  O   -0.031196  -0.035483   0.003671  -0.092199   8.930764   0.227942
    18  O   -0.045838  -0.027396   0.001720  -0.113621   0.227942   9.013704
    19  O    0.000213  -0.000198   0.000141  -0.001414  -0.029113   0.000170
    20  O    0.000009  -0.000510   0.000032   0.000050  -0.001171   0.000020
    21  O   -0.000233   0.016921  -0.000507  -0.000192  -0.005854   0.000459
    22  H   -0.000000   0.000000   0.000000  -0.000000   0.000000  -0.000000
    23  H   -0.000000   0.000000   0.000000   0.000000   0.000000  -0.000000
    24  H   -0.000000   0.000000   0.000001  -0.000000   0.000000   0.000000
    25  H    0.218689  -0.011722   0.008936  -0.000072   0.000602   0.014680
    26  H   -0.005265  -0.010166   0.217118   0.000000  -0.000006   0.000004
    27  H   -0.009753   0.218480   0.004572   0.000210   0.017279  -0.000287
    28  H    0.000000  -0.000006  -0.000001   0.000000   0.000004  -0.000000
    29  H    0.000779   0.017717  -0.002564  -0.000005  -0.000380   0.000008
    30  H    0.000001  -0.000002   0.000000   0.000123  -0.000365  -0.000009
    31  H    0.002301   0.000172  -0.000018   0.003738  -0.000721   0.217642
    32  H   -0.000008  -0.000006   0.000000   0.233461  -0.003634   0.003851
    33  H    0.000248   0.002228  -0.000038  -0.000193   0.231402   0.002063
              19         20         21         22         23         24
     1  Zr  -0.002878  -0.140403   0.044330  -0.011603  -0.005071  -0.006259
     2  O    0.008921  -0.000614   0.010608  -0.000009  -0.000012  -0.000111
     3  O    0.269995   0.149452   0.157188   0.000065  -0.000006   0.000006
     4  O    0.012047  -0.000777   0.003743  -0.000009  -0.000057   0.000003
     5  O    0.002006   0.000802   0.000674   0.004292  -0.024797  -0.003587
     6  Si  -0.008255   0.009103  -0.015627   0.000152   0.000079   0.000038
     7  Si  -0.415336  -0.091924   0.008344  -0.000275   0.000047   0.000062
     8  Si  -0.017589   0.010057  -0.044892   0.000161   0.000051  -0.000066
     9  Si   0.001055   0.003797  -0.003238   0.051082   0.075124   0.039713
    10  O    0.000009   0.000005  -0.000001  -0.004997   0.230230   0.007873
    11  O    0.000001  -0.000001   0.000004  -0.004931  -0.005251   0.237758
    12  O   -0.000005  -0.000040   0.000030   0.219861   0.005652  -0.007016
    13  O    0.000213   0.000009  -0.000233  -0.000000  -0.000000  -0.000000
    14  O   -0.000198  -0.000510   0.016921   0.000000   0.000000   0.000000
    15  O    0.000141   0.000032  -0.000507   0.000000   0.000000   0.000001
    16  O   -0.001414   0.000050  -0.000192  -0.000000   0.000000  -0.000000
    17  O   -0.029113  -0.001171  -0.005854   0.000000   0.000000   0.000000
    18  O    0.000170   0.000020   0.000459  -0.000000  -0.000000   0.000000
    19  O    8.877627   0.031324   0.026157  -0.000000   0.000000  -0.000000
    20  O    0.031324   8.649867  -0.050307   0.000000   0.000000  -0.000000
    21  O    0.026157  -0.050307   8.490491  -0.000001   0.000000   0.000000
    22  H   -0.000000   0.000000  -0.000001   0.354447   0.000045   0.000121
    23  H    0.000000   0.000000   0.000000   0.000045   0.350885   0.000018
    24  H   -0.000000  -0.000000   0.000000   0.000121   0.000018   0.365727
    25  H   -0.000023   0.000000  -0.000016   0.000000   0.000000   0.000000
    26  H    0.000000   0.000000   0.000036  -0.000000  -0.000000  -0.000000
    27  H   -0.000060   0.000197  -0.004087  -0.000000  -0.000000  -0.000000
    28  H    0.004581   0.229822  -0.001887  -0.000000   0.000000  -0.000000
    29  H   -0.008524   0.007708   0.206799   0.000000  -0.000000  -0.000000
    30  H    0.223738  -0.001562  -0.007240   0.000000  -0.000000   0.000000
    31  H    0.000004  -0.000000  -0.000000  -0.000000   0.000000   0.000000
    32  H    0.000086   0.000000   0.000001  -0.000000  -0.000000  -0.000000
    33  H    0.014564  -0.000024   0.001390  -0.000000  -0.000000  -0.000000
              25         26         27         28         29         30
     1  Zr   0.015537   0.009005   0.013825   0.004415   0.004004   0.001442
     2  O   -0.019969   0.000767  -0.019453  -0.000010  -0.007040  -0.000014
     3  O   -0.000098   0.000013   0.000947  -0.017811  -0.020153   0.000129
     4  O   -0.000670  -0.000010  -0.001624  -0.000014  -0.000126  -0.000477
     5  O    0.000024  -0.000002   0.000024  -0.000012  -0.000062  -0.000007
     6  Si   0.004009  -0.000348   0.005927  -0.000306  -0.000122  -0.001238
     7  Si  -0.000371  -0.000426  -0.000079   0.056066   0.048314   0.040832
     8  Si   0.057471   0.044602   0.064962  -0.000051   0.021888   0.000135
     9  Si  -0.000164  -0.000081  -0.000108  -0.000141  -0.000096   0.000011
    10  O    0.000000  -0.000000   0.000000  -0.000000   0.000000   0.000000
    11  O    0.000000   0.000000  -0.000000  -0.000000  -0.000000  -0.000000
    12  O   -0.000000  -0.000000  -0.000000  -0.000010  -0.000003  -0.000000
    13  O    0.218689  -0.005265  -0.009753   0.000000   0.000779   0.000001
    14  O   -0.011722  -0.010166   0.218480  -0.000006   0.017717  -0.000002
    15  O    0.008936   0.217118   0.004572  -0.000001  -0.002564   0.000000
    16  O   -0.000072   0.000000   0.000210   0.000000  -0.000005   0.000123
    17  O    0.000602  -0.000006   0.017279   0.000004  -0.000380  -0.000365
    18  O    0.014680   0.000004  -0.000287  -0.000000   0.000008  -0.000009
    19  O   -0.000023   0.000000  -0.000060   0.004581  -0.008524   0.223738
    20  O    0.000000   0.000000   0.000197   0.229822   0.007708  -0.001562
    21  O   -0.000016   0.000036  -0.004087  -0.001887   0.206799  -0.007240
    22  H    0.000000  -0.000000  -0.000000  -0.000000   0.000000   0.000000
    23  H    0.000000  -0.000000  -0.000000   0.000000  -0.000000  -0.000000
    24  H    0.000000  -0.000000  -0.000000  -0.000000  -0.000000   0.000000
    25  H    0.299046  -0.000010   0.000093   0.000000   0.000001   0.000000
    26  H   -0.000010   0.366504   0.000041   0.000000   0.000020  -0.000000
    27  H    0.000093   0.000041   0.283677  -0.000000  -0.001482   0.000009
    28  H    0.000000   0.000000  -0.000000   0.349578  -0.000017  -0.000012
    29  H    0.000001   0.000020  -0.001482  -0.000017   0.285729   0.000154
    30  H    0.000000  -0.000000   0.000009  -0.000012   0.000154   0.334555
    31  H   -0.000458   0.000000   0.000012  -0.000000   0.000000  -0.000000
    32  H   -0.000001   0.000000  -0.000000  -0.000000  -0.000000  -0.000000
    33  H    0.000005  -0.000000  -0.002385  -0.000002   0.000111  -0.001133
              31         32         33
     1  Zr   0.001177   0.001840  -0.018791
     2  O    0.000156  -0.000027   0.001068
     3  O   -0.000021   0.000037  -0.010256
     4  O   -0.018508   0.010681  -0.009898
     5  O   -0.000008   0.000006  -0.000075
     6  Si   0.063605   0.022943   0.055362
     7  Si   0.000152  -0.000716   0.020995
     8  Si  -0.002431   0.000080   0.000401
     9  Si  -0.000051  -0.000042   0.000136
    10  O    0.000000  -0.000000  -0.000000
    11  O   -0.000000   0.000000  -0.000000
    12  O   -0.000000  -0.000000   0.000000
    13  O    0.002301  -0.000008   0.000248
    14  O    0.000172  -0.000006   0.002228
    15  O   -0.000018   0.000000  -0.000038
    16  O    0.003738   0.233461  -0.000193
    17  O   -0.000721  -0.003634   0.231402
    18  O    0.217642   0.003851   0.002063
    19  O    0.000004   0.000086   0.014564
    20  O   -0.000000   0.000000  -0.000024
    21  O   -0.000000   0.000001   0.001390
    22  H   -0.000000  -0.000000  -0.000000
    23  H    0.000000  -0.000000  -0.000000
    24  H    0.000000  -0.000000  -0.000000
    25  H   -0.000458  -0.000001   0.000005
    26  H    0.000000   0.000000  -0.000000
    27  H    0.000012  -0.000000  -0.002385
    28  H   -0.000000  -0.000000  -0.000002
    29  H    0.000000  -0.000000   0.000111
    30  H   -0.000000  -0.000000  -0.001133
    31  H    0.331458   0.000000  -0.000038
    32  H    0.000000   0.350101   0.000159
    33  H   -0.000038   0.000159   0.269125
 Mulliken charges:
               1
     1  Zr  -0.021726
     2  O   -0.563366
     3  O   -0.424871
     4  O   -0.665873
     5  O   -0.387536
     6  Si   2.230050
     7  Si   1.774149
     8  Si   2.022769
     9  Si   1.672116
    10  O   -0.865196
    11  O   -0.781927
    12  O   -0.798253
    13  O   -0.842437
    14  O   -0.881661
    15  O   -0.873959
    16  O   -0.732937
    17  O   -0.966469
    18  O   -1.078443
    19  O   -0.989242
    20  O   -0.804913
    21  O   -0.833092
    22  H    0.391600
    23  H    0.373061
    24  H    0.365719
    25  H    0.414481
    26  H    0.378204
    27  H    0.429062
    28  H    0.375815
    29  H    0.447343
    30  H    0.410930
    31  H    0.401836
    32  H    0.381188
    33  H    0.443579
 Sum of Mulliken charges =  -0.00000
 Mulliken charges with hydrogens summed into heavy atoms:
               1
     1  Zr  -0.021726
     2  O   -0.563366
     3  O   -0.424871
     4  O   -0.665873
     5  O   -0.387536
     6  Si   2.230050
     7  Si   1.774149
     8  Si   2.022769
     9  Si   1.672116
    10  O   -0.492135
    11  O   -0.416208
    12  O   -0.406653
    13  O   -0.427956
    14  O   -0.452599
    15  O   -0.495755
    16  O   -0.351750
    17  O   -0.522890
    18  O   -0.676607
    19  O   -0.578313
    20  O   -0.429098
    21  O   -0.385749
 Electronic spatial extent (au):  <R**2>=           9733.0796
 Charge=             -0.0000 electrons
 Dipole moment (field-independent basis, Debye):
    X=              1.2377    Y=             -0.6068    Z=             -2.3649  Tot=              2.7373
 Quadrupole moment (field-independent basis, Debye-Ang):
   XX=           -160.1545   YY=           -153.7370   ZZ=           -157.6544
   XY=             -3.3047   XZ=              2.8869   YZ=              5.9248
 Traceless Quadrupole moment (field-independent basis, Debye-Ang):
   XX=             -2.9726   YY=              3.4450   ZZ=             -0.4724
   XY=             -3.3047   XZ=              2.8869   YZ=              5.9248
 Octapole moment (field-independent basis, Debye-Ang**2):
  XXX=             75.5689  YYY=              8.0610  ZZZ=            -18.9483  XYY=             -0.4820
  XXY=             14.6451  XXZ=             19.7298  XZZ=              5.7161  YZZ=            -17.9159
  YYZ=            -18.0853  XYZ=             24.1158
 Hexadecapole moment (field-independent basis, Debye-Ang**3):
 XXXX=          -6016.7734 YYYY=          -2793.6303 ZZZZ=          -2248.3467 XXXY=             55.1425
 XXXZ=            -71.5634 YYYX=             20.7883 YYYZ=            183.4315 ZZZX=           -185.8759
 ZZZY=            -38.1591 XXYY=          -1428.5732 XXZZ=          -1342.0237 YYZZ=           -911.6500
 XXYZ=             23.5028 YYXZ=            168.7113 ZZXY=            -54.1763
 N-N= 2.842407578344D+03 E-N=-1.139750375064D+04  KE= 2.373164842278D+03
 PrsmSu:  requested number of processors reduced to:   2 ShMem   1 Linda.
 PrsmSu:  requested number of processors reduced to:  10 ShMem   1 Linda.
   1 Symmetry operations used in ECPInt.
 ECPInt:  NShTT=   13203 NPrTT=   78401 LenC2=   11551 LenP2D=   44768.
 LDataN:  DoStor=T MaxTD1= 9 Len=  602
 Number of processors reduced to  14 by ecpmxn.
 Calling FoFJK, ICntrl=      2127 FMM=F ISym2X=0 I1Cent= 0 IOpClX= 0 NMat=1 NMatS=1 NMatT=0.
 CoulSu:  requested number of processors reduced to:  10 ShMem   1 Linda.
 Defaulting to unpruned grid for atomic number  40.
 Defaulting to unpruned grid for atomic number  40.
 Defaulting to unpruned grid for atomic number  40.
 Defaulting to unpruned grid for atomic number  40.
 Defaulting to unpruned grid for atomic number  40.
 Defaulting to unpruned grid for atomic number  40.
 Defaulting to unpruned grid for atomic number  40.
 Defaulting to unpruned grid for atomic number  40.
 Defaulting to unpruned grid for atomic number  40.
 Defaulting to unpruned grid for atomic number  40.
 Defaulting to unpruned grid for atomic number  40.
 Defaulting to unpruned grid for atomic number  40.
 Defaulting to unpruned grid for atomic number  40.
 Defaulting to unpruned grid for atomic number  40.
 Defaulting to unpruned grid for atomic number  40.
 Defaulting to unpruned grid for atomic number  40.
 ***** Axes restored to original set *****
 -------------------------------------------------------------------
 Center     Atomic                   Forces (Hartrees/Bohr)
 Number     Number              X              Y              Z
 -------------------------------------------------------------------
      1       40          -0.002671490    0.000665272    0.000045477
      2        8          -0.000080788   -0.000081646    0.000208086
      3        8          -0.000253958   -0.000394753   -0.000124038
      4        8           0.000011759   -0.000124626   -0.000187408
      5        8           0.001354223    0.000958016    0.000268799
      6       14           0.000141548    0.000018515    0.000112141
      7       14           0.000221541   -0.000208959    0.000074303
      8       14           0.000220253    0.000011997   -0.000154457
      9       14           0.001880874   -0.002232420   -0.000643159
     10        8          -0.000048191    0.000334833    0.000188356
     11        8          -0.000087263    0.000435842    0.000065166
     12        8          -0.000237033    0.000396204    0.000216432
     13        8          -0.000069317   -0.000017056    0.000026943
     14        8          -0.000062369    0.000034242    0.000003280
     15        8          -0.000040208    0.000009430    0.000073963
     16        8          -0.000031119    0.000004258   -0.000052940
     17        8          -0.000066920    0.000023445   -0.000033014
     18        8          -0.000055393   -0.000004401   -0.000015346
     19        8          -0.000031066    0.000046633   -0.000032006
     20        8          -0.000027773    0.000101940   -0.000026364
     21        8          -0.000052472    0.000036098   -0.000004562
     22        1          -0.000072004    0.000228472    0.000082647
     23        1          -0.000056947   -0.000034650   -0.000033194
     24        1          -0.000057895   -0.000103753   -0.000089687
     25        1           0.000018983   -0.000014725    0.000011291
     26        1           0.000008108   -0.000000735   -0.000017690
     27        1           0.000064950   -0.000004354   -0.000016664
     28        1           0.000012384   -0.000060043    0.000000812
     29        1           0.000026689    0.000008425    0.000010390
     30        1          -0.000000065   -0.000008317    0.000008036
     31        1           0.000023775    0.000002399    0.000004525
     32        1           0.000002481   -0.000010527    0.000020197
     33        1           0.000014705   -0.000015056    0.000009685
 -------------------------------------------------------------------
 Cartesian Forces:  Max     0.002671490 RMS     0.000456760

 GradGradGradGradGradGradGradGradGradGradGradGradGradGradGradGradGradGrad
 Berny optimization.
 FormGI is forming the generalized inverse of G from B-inverse, IUseBI=4.
 Internal  Forces:  Max     0.002645658 RMS     0.000349898
 Search for a local minimum.
 Step number   1 out of a maximum of  148
 All quantities printed in internal units (Hartrees-Bohrs-Radians)
 Mixed Optimization -- En-DIIS/RFO-DIIS
 Second derivative matrix not updated -- first step.
 ITU=  0
     Eigenvalues ---    0.00230   0.00230   0.00230   0.03240   0.03358
     Eigenvalues ---    0.03498   0.03580   0.03665   0.03665   0.03680
     Eigenvalues ---    0.03686   0.03693   0.03739   0.03789   0.03792
     Eigenvalues ---    0.03816   0.03834   0.03850   0.05521   0.09402
     Eigenvalues ---    0.09687   0.11077   0.11224   0.11833   0.11884
     Eigenvalues ---    0.11890   0.12177   0.12239   0.12299   0.12782
     Eigenvalues ---    0.12895   0.13099   0.13313   0.16000   0.16000
     Eigenvalues ---    0.16000   0.16000   0.16000   0.16000   0.16000
     Eigenvalues ---    0.16000   0.16000   0.16000   0.16000   0.16000
     Eigenvalues ---    0.19173   0.19314   0.19332   0.20013   0.20203
     Eigenvalues ---    0.20204   0.20208   0.20515   0.20653   0.20795
     Eigenvalues ---    0.20989   0.21175   0.21186   0.21227   0.25000
     Eigenvalues ---    0.25000   0.25000   0.38002   0.39187   0.40659
     Eigenvalues ---    0.41547   0.42502   0.42509   0.42670   0.42743
     Eigenvalues ---    0.42824   0.43363   0.43951   0.43980   0.44273
     Eigenvalues ---    0.44485   0.44689   0.44768   0.50655   0.51353
     Eigenvalues ---    0.52036   0.52548   0.54334   0.54624   0.54641
     Eigenvalues ---    0.54649   0.54689   0.54693   0.54713   0.54765
     Eigenvalues --- 1000.000001000.000001000.000001000.000001000.00000
     Eigenvalues --- 1000.000001000.000001000.000001000.000001000.00000
     Eigenvalues --- 1000.000001000.000001000.000001000.000001000.00000
     Eigenvalues --- 1000.000001000.000001000.000001000.000001000.00000
     Eigenvalues --- 1000.000001000.000001000.000001000.000001000.00000
     Eigenvalues --- 1000.000001000.000001000.000001000.000001000.00000
     Eigenvalues --- 1000.000001000.000001000.000001000.000001000.00000
     Eigenvalues --- 1000.000001000.000001000.000001000.000001000.00000
     Eigenvalues --- 1000.000001000.000001000.000001000.000001000.00000
     Eigenvalues --- 1000.000001000.000001000.00000
 RFO step:  Lambda=-5.87833980D-05 EMin= 2.30000000D-03
 Linear search not attempted -- first point.
 Iteration  1 RMS(Cart)=  0.01844890 RMS(Int)=  0.00008349
 Iteration  2 RMS(Cart)=  0.00014268 RMS(Int)=  0.00000104
 Iteration  3 RMS(Cart)=  0.00000001 RMS(Int)=  0.00000104
 Iteration  1 RMS(Cart)=  0.00000020 RMS(Int)=  0.00000007
 Variable       Old X    -DE/DX   Delta X   Delta X   Delta X     New X
                                 (Linear)    (Quad)   (Total)
    R1        3.67647   0.00011   0.00000   0.00051   0.00051   3.67698
    R2        3.69189  -0.00043   0.00000  -0.00208  -0.00208   3.68982
    R3        3.73835   0.00014   0.00000   0.00070   0.00070   3.73906
    R4        3.70232   0.00265   0.00000   0.01309   0.01309   3.71541
    R5        3.11688  -0.00016   0.00000  -0.00037  -0.00037   3.11650
    R6        3.09579  -0.00017   0.00000  -0.00038  -0.00038   3.09541
    R7        3.10213  -0.00004   0.00000  -0.00008  -0.00008   3.10205
    R8        3.09246   0.00092   0.00000   0.00206   0.00206   3.09451
    R9        3.11587   0.00004   0.00000   0.00008   0.00008   3.11595
   R10        3.11989   0.00003   0.00000   0.00007   0.00007   3.11996
   R11        3.14367   0.00001   0.00000   0.00002   0.00002   3.14369
   R12        3.18062   0.00003   0.00000   0.00007   0.00007   3.18069
   R13        3.10924   0.00004   0.00000   0.00009   0.00009   3.10933
   R14        3.09339   0.00002   0.00000   0.00003   0.00003   3.09342
   R15        3.10179   0.00004   0.00000   0.00008   0.00008   3.10187
   R16        3.16373   0.00003   0.00000   0.00006   0.00006   3.16380
   R17        3.09830   0.00006   0.00000   0.00013   0.00013   3.09842
   R18        3.11980  -0.00013   0.00000  -0.00030  -0.00030   3.11951
   R19        3.13204  -0.00033   0.00000  -0.00078  -0.00078   3.13126
   R20        3.11779   0.00070   0.00000   0.00165   0.00165   3.11944
   R21        1.82152   0.00001   0.00000   0.00002   0.00002   1.82154
   R22        1.82106   0.00000   0.00000   0.00000   0.00000   1.82106
   R23        1.82088   0.00007   0.00000   0.00014   0.00014   1.82101
   R24        1.84078  -0.00001   0.00000  -0.00002  -0.00002   1.84076
   R25        1.84565  -0.00001   0.00000  -0.00001  -0.00001   1.84563
   R26        1.82041  -0.00002   0.00000  -0.00003  -0.00003   1.82038
   R27        1.82109  -0.00001   0.00000  -0.00003  -0.00003   1.82107
   R28        1.85910  -0.00001   0.00000  -0.00003  -0.00003   1.85908
   R29        1.82145  -0.00000   0.00000  -0.00001  -0.00001   1.82145
   R30        1.82428  -0.00001   0.00000  -0.00002  -0.00002   1.82427
   R31        1.82168  -0.00003   0.00000  -0.00006  -0.00006   1.82162
   R32        1.85224  -0.00001   0.00000  -0.00003  -0.00003   1.85221
    A1        1.85172  -0.00009   0.00000  -0.00117  -0.00116   1.85056
    A2        1.80155   0.00015   0.00000   0.00021   0.00021   1.80176
    A3        1.96889  -0.00010   0.00000  -0.00120  -0.00120   1.96769
    A4        1.83430  -0.00008   0.00000   0.00073   0.00072   1.83503
    A5        2.01802   0.00037   0.00000   0.00234   0.00234   2.02036
    A6        1.97057  -0.00025   0.00000  -0.00103  -0.00103   1.96954
    A7        2.46524  -0.00029   0.00000  -0.00114  -0.00114   2.46410
    A8        2.58826   0.00018   0.00000   0.00073   0.00073   2.58898
    A9        2.35483  -0.00002   0.00000  -0.00009  -0.00009   2.35473
   A10        2.65290   0.00242   0.00000   0.00000  -0.00000   2.65290
   A11        1.91978  -0.00002   0.00000  -0.00009  -0.00009   1.91969
   A12        1.91546   0.00004   0.00000   0.00027   0.00027   1.91574
   A13        1.95201   0.00003   0.00000   0.00026   0.00026   1.95227
   A14        2.00708  -0.00003   0.00000  -0.00026  -0.00026   2.00682
   A15        1.88610  -0.00001   0.00000  -0.00013  -0.00013   1.88598
[...]
 Alpha virt. eigenvalues --    3.15253   3.21580   3.36094   3.39957   3.46559
 Alpha virt. eigenvalues --    3.47824   3.48619   3.49151   3.51013   3.51034
 Alpha virt. eigenvalues --    3.52255   3.54643   3.60388   3.61130   3.62012
 Alpha virt. eigenvalues --    3.66178   4.37973   4.68605   7.68650  31.23975
          Condensed to atoms (all electrons):
               1          2          3          4          5          6
     1  Zr  15.537035  -0.158224   0.000179  -0.192677  -0.113258  -0.650770
     2  O   -0.158224   9.057302   0.015663  -0.042410  -0.049193   0.092948
     3  O    0.000179   0.015663   8.803091   0.010659  -0.051029  -0.008252
     4  O   -0.192677  -0.042410   0.010659   8.805594  -0.065633  -0.651269
     5  O   -0.113258  -0.049193  -0.051029  -0.065633   9.320429  -0.000288
     6  Si  -0.650770   0.092948  -0.008252  -0.651269  -0.000288  13.959849
     7  Si  -0.645465  -0.025926  -0.866556  -0.005171  -0.028793   0.093942
     8  Si  -0.642277  -0.966883  -0.029723   0.084565  -0.005819  -0.018917
     9  Si  -0.533817  -0.023452   0.022203  -0.013653  -1.205555   0.058156
    10  O   -0.021697   0.000544  -0.003955   0.000127   0.124584  -0.003155
    11  O   -0.098108   0.003149   0.002787   0.001322   0.324634  -0.000457
    12  O    0.061556  -0.000378   0.005803   0.001860   0.174041  -0.003683
    13  O   -0.027684   0.192035   0.001453  -0.014172  -0.000911   0.028561
    14  O   -0.038890   0.256401  -0.018490  -0.009729   0.000674   0.035321
    15  O   -0.085670   0.286097  -0.000593   0.001116   0.000532   0.001474
    16  O   -0.112115   0.004647  -0.000557   0.341540   0.002733  -0.430912
    17  O   -0.122917  -0.038050   0.006693   0.214183   0.000275  -0.423932
    18  O   -0.049547  -0.014545   0.003546   0.206578  -0.000807  -0.443698
    19  O   -0.002458   0.008997   0.270079   0.011758   0.001973  -0.008326
    20  O   -0.139790  -0.000603   0.149753  -0.000790   0.000759   0.009123
    21  O    0.043815   0.010431   0.160450   0.003714   0.000664  -0.015646
    22  H   -0.011714  -0.000009   0.000069  -0.000009   0.003779   0.000154
    23  H   -0.005203  -0.000011  -0.000005  -0.000057  -0.024738   0.000081
    24  H   -0.005953  -0.000122   0.000004   0.000001  -0.002250   0.000039
    25  H    0.015550  -0.019938  -0.000100  -0.000676   0.000024   0.003920
    26  H    0.008898   0.000747   0.000014  -0.000009  -0.000002  -0.000339
    27  H    0.014098  -0.019491   0.000929  -0.001636   0.000023   0.006065
    28  H    0.004307  -0.000010  -0.017978  -0.000015  -0.000011  -0.000297
    29  H    0.004005  -0.006989  -0.020279  -0.000126  -0.000060  -0.000149
    30  H    0.001188  -0.000015   0.000210  -0.000468  -0.000006  -0.001174
    31  H    0.001039   0.000160  -0.000022  -0.018499  -0.000008   0.063853
    32  H    0.001820  -0.000027   0.000039   0.010767   0.000006   0.023009
    33  H   -0.018408   0.001032  -0.010315  -0.009819  -0.000074   0.055138
               7          8          9         10         11         12
     1  Zr  -0.645465  -0.642277  -0.533817  -0.021697  -0.098108   0.061556
     2  O   -0.025926  -0.966883  -0.023452   0.000544   0.003149  -0.000378
     3  O   -0.866556  -0.029723   0.022203  -0.003955   0.002787   0.005803
     4  O   -0.005171   0.084565  -0.013653   0.000127   0.001322   0.001860
     5  O   -0.028793  -0.005819  -1.205555   0.124584   0.324634   0.174041
     6  Si   0.093942  -0.018917   0.058156  -0.003155  -0.000457  -0.003683
     7  Si  13.783037   0.191467   0.029832   0.000375  -0.000137   0.003833
     8  Si   0.191467  13.761978   0.035528  -0.001112   0.001744  -0.001381
     9  Si   0.029832   0.035528  14.283415  -0.026421  -0.190556  -0.298944
    10  O    0.000375  -0.001112  -0.026421   8.532722  -0.017011   0.048066
    11  O   -0.000137   0.001744  -0.190556  -0.017011   8.574165  -0.047412
    12  O    0.003833  -0.001381  -0.298944   0.048066  -0.047412   8.643233
    13  O    0.006428  -0.100498  -0.000302  -0.000000   0.000015   0.000014
    14  O    0.015403  -0.346030  -0.000955  -0.000001   0.000004   0.000055
    15  O   -0.001707  -0.296964  -0.000100   0.000001  -0.000028  -0.000040
    16  O    0.003439  -0.011302  -0.001520   0.000011  -0.000003   0.000002
    17  O    0.006519   0.106743   0.003888   0.000000   0.000003  -0.000008
    18  O   -0.001063   0.079611   0.004274   0.000001   0.000000  -0.000001
    19  O   -0.414514  -0.017584   0.000981   0.000009   0.000001  -0.000009
    20  O   -0.087673   0.009971   0.003791   0.000004  -0.000001  -0.000037
    21  O    0.003531  -0.044599  -0.003220  -0.000000   0.000005   0.000028
    22  H   -0.000272   0.000165   0.051655  -0.004947  -0.004708   0.219539
    23  H    0.000047   0.000052   0.074463   0.230709  -0.005158   0.005837
    24  H    0.000059  -0.000069   0.037996   0.007580   0.236881  -0.006668
    25  H   -0.000376   0.057531  -0.000163   0.000000   0.000000  -0.000000
    26  H   -0.000426   0.044738  -0.000078  -0.000000   0.000000  -0.000000
    27  H   -0.000032   0.064893  -0.000109   0.000000  -0.000000  -0.000000
    28  H    0.056260  -0.000044  -0.000142  -0.000000  -0.000000  -0.000010
    29  H    0.048489   0.021715  -0.000092   0.000000  -0.000000  -0.000003
    30  H    0.040866   0.000133   0.000014   0.000000  -0.000000  -0.000000
    31  H    0.000153  -0.002453  -0.000050   0.000000  -0.000000  -0.000000
    32  H   -0.000704   0.000079  -0.000040  -0.000000   0.000000  -0.000000
    33  H    0.020978   0.000364   0.000127  -0.000000  -0.000000   0.000000
              13         14         15         16         17         18
     1  Zr  -0.027684  -0.038890  -0.085670  -0.112115  -0.122917  -0.049547
     2  O    0.192035   0.256401   0.286097   0.004647  -0.038050  -0.014545
     3  O    0.001453  -0.018490  -0.000593  -0.000557   0.006693   0.003546
     4  O   -0.014172  -0.009729   0.001116   0.341540   0.214183   0.206578
     5  O   -0.000911   0.000674   0.000532   0.002733   0.000275  -0.000807
     6  Si   0.028561   0.035321   0.001474  -0.430912  -0.423932  -0.443698
     7  Si   0.006428   0.015403  -0.001707   0.003439   0.006519  -0.001063
     8  Si  -0.100498  -0.346030  -0.296964  -0.011302   0.106743   0.079611
     9  Si  -0.000302  -0.000955  -0.000100  -0.001520   0.003888   0.004274
    10  O   -0.000000  -0.000001   0.000001   0.000011   0.000000   0.000001
    11  O    0.000015   0.000004  -0.000028  -0.000003   0.000003   0.000000
    12  O    0.000014   0.000055  -0.000040   0.000002  -0.000008  -0.000001
    13  O    8.628845   0.086826  -0.093062   0.003756  -0.030870  -0.045283
    14  O    0.086826   8.672079   0.055992   0.003463  -0.035029  -0.027422
    15  O   -0.093062   0.055992   8.774427  -0.000175   0.003669   0.001714
    16  O    0.003756   0.003463  -0.000175   8.900785  -0.092593  -0.114432
    17  O   -0.030870  -0.035029   0.003669  -0.092593   8.930894   0.228457
    18  O   -0.045283  -0.027422   0.001714  -0.114432   0.228457   9.012018
    19  O    0.000203  -0.000069   0.000143  -0.001406  -0.029110   0.000187
    20  O    0.000009  -0.000557   0.000033   0.000050  -0.001192   0.000019
    21  O   -0.000249   0.017151  -0.000539  -0.000192  -0.005700   0.000454
    22  H   -0.000000   0.000000   0.000000  -0.000000   0.000000  -0.000000
    23  H    0.000000  -0.000000   0.000000   0.000000   0.000000  -0.000000
    24  H   -0.000000   0.000000   0.000001   0.000000   0.000000   0.000000
    25  H    0.218756  -0.011702   0.008943  -0.000061   0.000573   0.014556
    26  H   -0.005218  -0.010227   0.217259   0.000000  -0.000006   0.000004
    27  H   -0.009741   0.218028   0.004557   0.000216   0.017425  -0.000285
    28  H    0.000000  -0.000005  -0.000001  -0.000000   0.000003  -0.000000
    29  H    0.000776   0.017764  -0.002531  -0.000004  -0.000396   0.000008
    30  H    0.000001  -0.000003   0.000000   0.000121  -0.000366  -0.000009
    31  H    0.002293   0.000174  -0.000018   0.003609  -0.000686   0.217582
    32  H   -0.000008  -0.000006   0.000000   0.233245  -0.003592   0.003802
    33  H    0.000241   0.002206  -0.000037  -0.000161   0.231632   0.002033
              19         20         21         22         23         24
     1  Zr  -0.002458  -0.139790   0.043815  -0.011714  -0.005203  -0.005953
     2  O    0.008997  -0.000603   0.010431  -0.000009  -0.000011  -0.000122
     3  O    0.270079   0.149753   0.160450   0.000069  -0.000005   0.000004
     4  O    0.011758  -0.000790   0.003714  -0.000009  -0.000057   0.000001
     5  O    0.001973   0.000759   0.000664   0.003779  -0.024738  -0.002250
     6  Si  -0.008326   0.009123  -0.015646   0.000154   0.000081   0.000039
     7  Si  -0.414514  -0.087673   0.003531  -0.000272   0.000047   0.000059
     8  Si  -0.017584   0.009971  -0.044599   0.000165   0.000052  -0.000069
     9  Si   0.000981   0.003791  -0.003220   0.051655   0.074463   0.037996
    10  O    0.000009   0.000004  -0.000000  -0.004947   0.230709   0.007580
    11  O    0.000001  -0.000001   0.000005  -0.004708  -0.005158   0.236881
    12  O   -0.000009  -0.000037   0.000028   0.219539   0.005837  -0.006668
    13  O    0.000203   0.000009  -0.000249  -0.000000   0.000000  -0.000000
    14  O   -0.000069  -0.000557   0.017151   0.000000  -0.000000   0.000000
    15  O    0.000143   0.000033  -0.000539   0.000000   0.000000   0.000001
    16  O   -0.001406   0.000050  -0.000192  -0.000000   0.000000   0.000000
    17  O   -0.029110  -0.001192  -0.005700   0.000000   0.000000   0.000000
    18  O    0.000187   0.000019   0.000454  -0.000000  -0.000000   0.000000
    19  O    8.874178   0.031609   0.026588  -0.000000   0.000000  -0.000000
    20  O    0.031609   8.644715  -0.051306   0.000001   0.000000  -0.000000
    21  O    0.026588  -0.051306   8.491845  -0.000001   0.000000   0.000000
    22  H   -0.000000   0.000001  -0.000001   0.354912   0.000037   0.000102
    23  H    0.000000   0.000000   0.000000   0.000037   0.351641   0.000026
    24  H   -0.000000  -0.000000   0.000000   0.000102   0.000026   0.365756
    25  H   -0.000023   0.000000  -0.000016   0.000000   0.000000   0.000000
    26  H    0.000000  -0.000000   0.000037  -0.000000  -0.000000  -0.000000
    27  H   -0.000034   0.000199  -0.004136  -0.000000  -0.000000   0.000000
    28  H    0.004666   0.230077  -0.002053  -0.000000   0.000000  -0.000000
    29  H   -0.008620   0.007705   0.206734   0.000000  -0.000000  -0.000000
    30  H    0.224030  -0.001628  -0.007311   0.000000  -0.000000   0.000000
    31  H    0.000004  -0.000000  -0.000000  -0.000000   0.000000   0.000000
    32  H    0.000087   0.000000   0.000001  -0.000000  -0.000000  -0.000000
    33  H    0.014510  -0.000028   0.001363  -0.000000  -0.000000  -0.000000
              25         26         27         28         29         30
     1  Zr   0.015550   0.008898   0.014098   0.004307   0.004005   0.001188
     2  O   -0.019938   0.000747  -0.019491  -0.000010  -0.006989  -0.000015
     3  O   -0.000100   0.000014   0.000929  -0.017978  -0.020279   0.000210
     4  O   -0.000676  -0.000009  -0.001636  -0.000015  -0.000126  -0.000468
     5  O    0.000024  -0.000002   0.000023  -0.000011  -0.000060  -0.000006
     6  Si   0.003920  -0.000339   0.006065  -0.000297  -0.000149  -0.001174
     7  Si  -0.000376  -0.000426  -0.000032   0.056260   0.048489   0.040866
     8  Si   0.057531   0.044738   0.064893  -0.000044   0.021715   0.000133
     9  Si  -0.000163  -0.000078  -0.000109  -0.000142  -0.000092   0.000014
    10  O    0.000000  -0.000000   0.000000  -0.000000   0.000000   0.000000
    11  O    0.000000   0.000000  -0.000000  -0.000000  -0.000000  -0.000000
    12  O   -0.000000  -0.000000  -0.000000  -0.000010  -0.000003  -0.000000
    13  O    0.218756  -0.005218  -0.009741   0.000000   0.000776   0.000001
    14  O   -0.011702  -0.010227   0.218028  -0.000005   0.017764  -0.000003
    15  O    0.008943   0.217259   0.004557  -0.000001  -0.002531   0.000000
    16  O   -0.000061   0.000000   0.000216  -0.000000  -0.000004   0.000121
    17  O    0.000573  -0.000006   0.017425   0.000003  -0.000396  -0.000366
    18  O    0.014556   0.000004  -0.000285  -0.000000   0.000008  -0.000009
    19  O   -0.000023   0.000000  -0.000034   0.004666  -0.008620   0.224030
    20  O    0.000000  -0.000000   0.000199   0.230077   0.007705  -0.001628
    21  O   -0.000016   0.000037  -0.004136  -0.002053   0.206734  -0.007311
    22  H    0.000000  -0.000000  -0.000000  -0.000000   0.000000   0.000000
    23  H    0.000000  -0.000000  -0.000000   0.000000  -0.000000  -0.000000
    24  H    0.000000  -0.000000   0.000000  -0.000000  -0.000000   0.000000
    25  H    0.299456  -0.000010   0.000090   0.000000   0.000001   0.000000
    26  H   -0.000010   0.366360   0.000040   0.000000   0.000020  -0.000000
    27  H    0.000090   0.000040   0.283711  -0.000000  -0.001465   0.000009
    28  H    0.000000   0.000000  -0.000000   0.349594  -0.000017  -0.000013
    29  H    0.000001   0.000020  -0.001465  -0.000017   0.285929   0.000156
    30  H    0.000000  -0.000000   0.000009  -0.000013   0.000156   0.334626
    31  H   -0.000474   0.000000   0.000012  -0.000000   0.000000  -0.000000
    32  H   -0.000001   0.000000  -0.000000   0.000000  -0.000000  -0.000000
    33  H    0.000005  -0.000000  -0.002423  -0.000002   0.000111  -0.001122
              31         32         33
     1  Zr   0.001039   0.001820  -0.018408
     2  O    0.000160  -0.000027   0.001032
     3  O   -0.000022   0.000039  -0.010315
     4  O   -0.018499   0.010767  -0.009819
     5  O   -0.000008   0.000006  -0.000074
     6  Si   0.063853   0.023009   0.055138
     7  Si   0.000153  -0.000704   0.020978
     8  Si  -0.002453   0.000079   0.000364
     9  Si  -0.000050  -0.000040   0.000127
    10  O    0.000000  -0.000000  -0.000000
    11  O   -0.000000   0.000000  -0.000000
    12  O   -0.000000  -0.000000   0.000000
    13  O    0.002293  -0.000008   0.000241
    14  O    0.000174  -0.000006   0.002206
    15  O   -0.000018   0.000000  -0.000037
    16  O    0.003609   0.233245  -0.000161
    17  O   -0.000686  -0.003592   0.231632
    18  O    0.217582   0.003802   0.002033
    19  O    0.000004   0.000087   0.014510
    20  O   -0.000000   0.000000  -0.000028
    21  O   -0.000000   0.000001   0.001363
    22  H   -0.000000  -0.000000  -0.000000
    23  H    0.000000  -0.000000  -0.000000
    24  H    0.000000  -0.000000  -0.000000
    25  H   -0.000474  -0.000001   0.000005
    26  H    0.000000   0.000000  -0.000000
    27  H    0.000012  -0.000000  -0.002423
    28  H   -0.000000   0.000000  -0.000002
    29  H    0.000000  -0.000000   0.000111
    30  H   -0.000000  -0.000000  -0.001122
    31  H    0.331939   0.000002  -0.000038
    32  H    0.000002   0.350123   0.000158
    33  H   -0.000038   0.000158   0.269019
 Mulliken charges:
               1
     1  Zr  -0.016845
     2  O   -0.563877
     3  O   -0.425771
     4  O   -0.666964
     5  O   -0.406695
     6  Si   2.229633
     7  Si   1.774156
     8  Si   2.024380
     9  Si   1.692844
    10  O   -0.866436
    11  O   -0.781128
    12  O   -0.805293
    13  O   -0.842213
    14  O   -0.882425
    15  O   -0.874493
    16  O   -0.732185
    17  O   -0.966511
    18  O   -1.077752
    19  O   -0.987851
    20  O   -0.804211
    21  O   -0.831845
    22  H    0.391247
    23  H    0.372280
    24  H    0.366620
    25  H    0.414131
    26  H    0.378198
    27  H    0.429058
    28  H    0.375692
    29  H    0.447318
    30  H    0.410760
    31  H    0.401429
    32  H    0.381240
    33  H    0.443510
 Sum of Mulliken charges =  -0.00000
 Mulliken charges with hydrogens summed into heavy atoms:
               1
     1  Zr  -0.016845
     2  O   -0.563877
     3  O   -0.425771
     4  O   -0.666964
     5  O   -0.406695
     6  Si   2.229633
     7  Si   1.774156
     8  Si   2.024380
     9  Si   1.692844
    10  O   -0.494157
    11  O   -0.414508
    12  O   -0.414046
    13  O   -0.428082
    14  O   -0.453367
    15  O   -0.496294
    16  O   -0.350945
    17  O   -0.523001
    18  O   -0.676323
    19  O   -0.577092
    20  O   -0.428520
    21  O   -0.384526
 Electronic spatial extent (au):  <R**2>=           9741.9173
 Charge=             -0.0000 electrons
 Dipole moment (field-independent basis, Debye):
    X=              1.1654    Y=             -0.6487    Z=             -2.4425  Tot=              2.7829
 Quadrupole moment (field-independent basis, Debye-Ang):
   XX=           -160.9540   YY=           -153.4469   ZZ=           -157.7856
   XY=             -3.4104   XZ=              2.3630   YZ=              6.0171
 Traceless Quadrupole moment (field-independent basis, Debye-Ang):
   XX=             -3.5585   YY=              3.9486   ZZ=             -0.3901
   XY=             -3.4104   XZ=              2.3630   YZ=              6.0171
 Octapole moment (field-independent basis, Debye-Ang**2):
  XXX=             70.0828  YYY=              6.6389  ZZZ=            -19.4980  XYY=              0.9900
  XXY=             15.3081  XXZ=             17.2531  XZZ=              5.2328  YZZ=            -17.6693
  YYZ=            -17.8020  XYZ=             24.8794
 Hexadecapole moment (field-independent basis, Debye-Ang**3):
 XXXX=          -6059.8984 YYYY=          -2794.3648 ZZZZ=          -2247.9730 XXXY=             54.7316
 XXXZ=            -82.4492 YYYX=             20.5487 YYYZ=            183.3852 ZZZX=           -190.6458
 ZZZY=            -36.7458 XXYY=          -1427.5629 XXZZ=          -1346.7135 YYZZ=           -914.1288
 XXYZ=             24.0537 YYXZ=            168.7797 ZZXY=            -54.3967
 N-N= 2.841680108203D+03 E-N=-1.139601962863D+04  KE= 2.373153886181D+03
 1\1\GINC-GRA618\FOpt\RB3LYP\Gen\H12O16Si4Zr1\SARASHS\12-Aug-2020\0\\#n
  B3LYP/Gen Pseudo=cards EmpiricalDispersion=GD3 Opt=modredundant\\Titl
 e\\0,1\Zr,0.6576913446,-0.1208338467,-0.0703708422\O,-0.2209812259,-0.
 9056198729,1.4777799318\O,0.0912891115,1.7464991198,-0.121163225\O,-0.
 2640317199,-0.9779536772,-1.5965686953\O,2.5973217543,-0.4370368331,-0
 .0806623732\Si,-1.8264871627,-1.3343554849,-1.9525869574\Si,-1.1243025
 583,2.8438590132,-0.0837901029\Si,-1.7220682302,-1.1488807543,2.116413
 9586\Si,4.1456440056,0.0676161536,0.0929545636\O,4.9124632481,0.389583
 0283,-1.3330941454\O,5.0519715096,-1.1089138744,0.8264002449\O,4.03508
 92983,1.4776356085,0.9451580433\O,-2.3183295854,-2.6214386207,1.703301
 5531\O,-2.7220140765,0.067303613,1.5475696326\O,-1.5965158791,-1.00904
 19964,3.7452151376\O,-1.9953188823,-1.5649633424,-3.5765263333\O,-2.82
 27829588,-0.1887008945,-1.3039886214\O,-2.3388965228,-2.7149140796,-1.
 178694972\O,-2.0481008842,2.4415579591,-1.4317465977\O,-0.6407853365,4
 .401254977,-0.3027369764\O,-1.9758004684,2.7668468072,1.3121547319\H,4
 .8181874471,2.0384484548,0.9705513335\H,5.4253520196,-0.3351548414,-1.
 7084052265\H,4.6413480395,-1.594527974,1.5504472809\H,-2.4038814679,-2
 .8097003315,0.7514689801\H,-2.3802833947,-1.213795478,4.2665125156\H,-
 3.0548247129,-0.0817771777,0.6414765156\H,-0.5252754209,4.926433991,0.
 4973327501\H,-2.2754358749,1.8748464267,1.5862821663\H,-2.6596324833,3
 .1265737026,-1.7295629325\H,-2.291572491,-3.532010834,-1.6878084238\H,
 -1.2632169817,-1.2717336318,-4.1303456312\H,-2.6102194597,0.7527746908
 ,-1.4940872834\\Version=ES64L-G16RevB.01\State=1-A\HF=-2416.9466871\RM
 SD=4.821e-09\RMSF=1.335e-04\Dipole=0.5004601,-0.219673,-0.9487234\Quad
 rupole=-2.1556631,2.490345,-0.3346819,-3.1060501,1.3098356,4.5316036\P
 G=C01 [X(H12O16Si4Zr1)]\\@


  THE LARGE PRINT GIVETH,
  AND THE SMALL PRINT TAKETH AWAY.

                     -- TOM WAITS
 Job cpu time:       0 days 17 hours 55 minutes  0.7 seconds.
 Elapsed time:       0 days  1 hours 20 minutes 13.7 seconds.
 File lengths (MBytes):  RWF=    167 Int=      0 D2E=      0 Chk=     21 Scr=      1
 Normal termination of Gaussian 16 at Wed Aug 12 21:03:20 2020.
