 Entering Gaussian System, Link 0=g16
 Initial command:
 /opt/software/gaussian/g16.b01/l1.exe "/localscratch/sarashs.37192513.0/Gau-9236.inp" -scrdir="/localscratch/sarashs.37192513.0/"
 Entering Link 1 = /opt/software/gaussian/g16.b01/l1.exe PID=      9237.
  
 Copyright (c) 1988-2017, Gaussian, Inc.  All Rights Reserved.
  
 This is part of the Gaussian(R) 16 program.  It is based on
 the Gaussian(R) 09 system (copyright 2009, Gaussian, Inc.),
 the Gaussian(R) 03 system (copyright 2003, Gaussian, Inc.),
 the Gaussian(R) 98 system (copyright 1998, Gaussian, Inc.),
 the Gaussian(R) 94 system (copyright 1995, Gaussian, Inc.),
 the Gaussian 92(TM) system (copyright 1992, Gaussian, Inc.),
 the Gaussian 90(TM) system (copyright 1990, Gaussian, Inc.),
 the Gaussian 88(TM) system (copyright 1988, Gaussian, Inc.),
 the Gaussian 86(TM) system (copyright 1986, Carnegie Mellon
 University), and the Gaussian 82(TM) system (copyright 1983,
 Carnegie Mellon University). Gaussian is a federally registered
 trademark of Gaussian, Inc.
  
 This software contains proprietary and confidential information,
 including trade secrets, belonging to Gaussian, Inc.
  
 This software is provided under written license and may be
 used, copied, transmitted, or stored only in accord with that
 written license.
  
 The following legend is applicable only to US Government
 contracts under FAR:
  
                    RESTRICTED RIGHTS LEGEND
  
 Use, reproduction and disclosure by the US Government is
 subject to restrictions as set forth in subparagraphs (a)
 and (c) of the Commercial Computer Software - Restricted
 Rights clause in FAR 52.227-19.
  
 Gaussian, Inc.
 340 Quinnipiac St., Bldg. 40, Wallingford CT 06492
  
  
 ---------------------------------------------------------------
 Warning -- This program may not be used in any manner that
 competes with the business of Gaussian, Inc. or will provide
 assistance to any competitor of Gaussian, Inc.  The licensee
 of this program is prohibited from giving any competitor of
 Gaussian, Inc. access to this program.  By using this program,
 the user acknowledges that Gaussian, Inc. is engaged in the
 business of creating and licensing software in the field of
 computational chemistry and represents and warrants to the
 licensee that it is not a competitor of Gaussian, Inc. and that
 it will not use this program in any manner prohibited above.
 ---------------------------------------------------------------
  

 Cite this work as:
 Gaussian 16, Revision B.01,
 M. J. Frisch, G. W. Trucks, H. B. Schlegel, G. E. Scuseria, 
 M. A. Robb, J. R. Cheeseman, G. Scalmani, V. Barone, 
 G. A. Petersson, H. Nakatsuji, X. Li, M. Caricato, A. V. Marenich, 
 J. Bloino, B. G. Janesko, R. Gomperts, B. Mennucci, H. P. Hratchian, 
 J. V. Ortiz, A. F. Izmaylov, J. L. Sonnenberg, D. Williams-Young, 
 F. Ding, F. Lipparini, F. Egidi, J. Goings, B. Peng, A. Petrone, 
 T. Henderson, D. Ranasinghe, V. G. Zakrzewski, J. Gao, N. Rega, 
 G. Zheng, W. Liang, M. Hada, M. Ehara, K. Toyota, R. Fukuda, 
 J. Hasegawa, M. Ishida, T. Nakajima, Y. Honda, O. Kitao, H. Nakai, 
 T. Vreven, K. Throssell, J. A. Montgomery, Jr., J. E. Peralta, 
 F. Ogliaro, M. J. Bearpark, J. J. Heyd, E. N. Brothers, K. N. Kudin, 
 V. N. Staroverov, T. A. Keith, R. Kobayashi, J. Normand, 
 K. Raghavachari, A. P. Rendell, J. C. Burant, S. S. Iyengar, 
 J. Tomasi, M. Cossi, J. M. Millam, M. Klene, C. Adamo, R. Cammi, 
 J. W. Ochterski, R. L. Martin, K. Morokuma, O. Farkas, 
 J. B. Foresman, and D. J. Fox, Gaussian, Inc., Wallingford CT, 2016.
 
 ******************************************
 Gaussian 16:  ES64L-G16RevB.01 20-Dec-2017
                12-Aug-2020 
 ******************************************
 %NProcShared=16
 Will use up to   16 processors via shared memory.
 ------------------------------------------------------------------
 #n B3LYP/Gen Pseudo=cards EmpiricalDispersion=GD3 Opt=modredundant
 ------------------------------------------------------------------
 1/18=120,19=15,26=3,38=1/1,3;
 2/9=110,12=2,17=6,18=5,40=1/2;
 3/5=7,11=2,16=1,17=8,25=1,30=1,71=1,74=-5,124=31/1,2,3;
 4//1;
 5/5=2,38=5/2;
 6/7=2,8=2,9=2,10=2,28=1/1;
 7//1,2,3,16;
 1/18=20,19=15,26=3/3(2);
 2/9=110/2;
 99//99;
 2/9=110/2;
 3/5=7,6=1,11=2,16=1,17=8,25=1,30=1,71=1,74=-5,82=7,124=31/1,2,3;
 4/5=5,16=3,69=1/1;
 5/5=2,38=5/2;
 7//1,2,3,16;
 1/18=20,19=15,26=3/3(-5);
 2/9=110/2;
 6/7=2,8=2,9=2,10=2,19=2,28=1/1;
 99/9=1/99;
 -----
 Title
 -----
 Symbolic Z-matrix:
 Charge =  0 Multiplicity = 1
 Zr                    0.65779  -0.12506  -0.07164 
 O                    -0.22285  -0.90624   1.4773 
 O                     0.10302   1.74748  -0.12299 
 O                    -0.2683   -0.97885  -1.59705 
 O                     2.59206  -0.4363   -0.08284 
 Si                   -1.83119  -1.33244  -1.9536 
 Si                   -1.1155    2.84172  -0.08279 
 Si                   -1.72376  -1.15291   2.11517 
 Si                    4.22539  -0.36418  -0.01193 
 O                     4.95123  -0.2461   -1.49003 
 O                     4.83174  -1.75232   0.66069 
 O                     4.55713   1.00673   0.84399 
 O                    -2.31924  -2.624     1.69627 
 O                    -2.72422   0.06508   1.55086 
 O                    -1.59734  -1.01957   3.74439 
 O                    -2.00144  -1.55965  -3.57782 
 O                    -2.82509  -0.18676  -1.30145 
 O                    -2.34448  -2.71439  -1.18277 
 O                    -2.04046   2.43957  -1.43023 
 O                    -0.63565   4.40049  -0.29987 
 O                    -1.96551   2.76086   1.31383 
 H                     5.46605   1.32571   0.81989 
 H                     5.24196  -1.07689  -1.88295 
 H                     4.38589  -2.097     1.4424 
 H                    -2.40577  -2.80951   0.74392 
 H                    -2.38137  -1.22423   4.26535 
 H                    -3.06034  -0.08306   0.64589 
 H                    -0.52731   4.92728   0.50015 
 H                    -2.26909   1.86932   1.58533 
 H                    -2.64854   3.12676  -1.73014 
 H                    -2.30452  -3.52952  -1.69562 
 H                    -1.27114  -1.26305  -4.13223 
 H                    -2.61026   0.75461  -1.48993 
 
 The following ModRedundant input section has been read:
 A       1       5       9 F                                                   
 D       1       5       9      12 F                                           
 D       3       1       5       9 F                                           
 

 GradGradGradGradGradGradGradGradGradGradGradGradGradGradGradGradGradGrad
 Berny optimization.
 Initialization pass.
                           ----------------------------
                           !    Initial Parameters    !
                           ! (Angstroms and Degrees)  !
 --------------------------                            --------------------------
 ! Name  Definition              Value          Derivative Info.                !
 --------------------------------------------------------------------------------
 ! R1    R(1,2)                  1.9455         estimate D2E/DX2                !
 ! R2    R(1,3)                  1.9537         estimate D2E/DX2                !
 ! R3    R(1,4)                  1.9783         estimate D2E/DX2                !
 ! R4    R(1,5)                  1.9592         estimate D2E/DX2                !
 ! R5    R(2,8)                  1.6494         estimate D2E/DX2                !
 ! R6    R(3,7)                  1.6382         estimate D2E/DX2                !
 ! R7    R(4,6)                  1.6416         estimate D2E/DX2                !
 ! R8    R(5,9)                  1.6365         estimate D2E/DX2                !
 ! R9    R(6,16)                 1.6488         estimate D2E/DX2                !
 ! R10   R(6,17)                 1.651          estimate D2E/DX2                !
 ! R11   R(6,18)                 1.6636         estimate D2E/DX2                !
 ! R12   R(7,19)                 1.6831         estimate D2E/DX2                !
 ! R13   R(7,20)                 1.6453         estimate D2E/DX2                !
 ! R14   R(7,21)                 1.6369         estimate D2E/DX2                !
 ! R15   R(8,13)                 1.6414         estimate D2E/DX2                !
 ! R16   R(8,14)                 1.6742         estimate D2E/DX2                !
 ! R17   R(8,15)                 1.6395         estimate D2E/DX2                !
 ! R18   R(9,10)                 1.6509         estimate D2E/DX2                !
 ! R19   R(9,11)                 1.6574         estimate D2E/DX2                !
 ! R20   R(9,12)                 1.6499         estimate D2E/DX2                !
 ! R21   R(10,23)                0.9639         estimate D2E/DX2                !
 ! R22   R(11,24)                0.9637         estimate D2E/DX2                !
 ! R23   R(12,22)                0.9636         estimate D2E/DX2                !
 ! R24   R(13,25)                0.9741         estimate D2E/DX2                !
 ! R25   R(14,27)                0.9767         estimate D2E/DX2                !
 ! R26   R(15,26)                0.9633         estimate D2E/DX2                !
 ! R27   R(16,32)                0.9637         estimate D2E/DX2                !
 ! R28   R(17,33)                0.9838         estimate D2E/DX2                !
 ! R29   R(18,31)                0.9639         estimate D2E/DX2                !
 ! R30   R(19,30)                0.9654         estimate D2E/DX2                !
 ! R31   R(20,28)                0.964          estimate D2E/DX2                !
 ! R32   R(21,29)                0.9802         estimate D2E/DX2                !
 ! A1    A(2,1,3)              106.0959         estimate D2E/DX2                !
 ! A2    A(2,1,4)              103.2214         estimate D2E/DX2                !
 ! A3    A(2,1,5)              112.8091         estimate D2E/DX2                !
 ! A4    A(3,1,4)              105.0977         estimate D2E/DX2                !
 ! A5    A(3,1,5)              115.6243         estimate D2E/DX2                !
 ! A6    A(4,1,5)              112.9055         estimate D2E/DX2                !
 ! A7    A(1,2,8)              141.2479         estimate D2E/DX2                !
 ! A8    A(1,3,7)              148.2962         estimate D2E/DX2                !
 ! A9    A(1,4,6)              134.9216         estimate D2E/DX2                !
 ! A10   A(1,5,9)              168.0001         Frozen                          !
 ! A11   A(4,6,16)             109.9952         estimate D2E/DX2                !
 ! A12   A(4,6,17)             109.7479         estimate D2E/DX2                !
 ! A13   A(4,6,18)             111.8422         estimate D2E/DX2                !
 ! A14   A(16,6,17)            114.9972         estimate D2E/DX2                !
 ! A15   A(16,6,18)            108.0658         estimate D2E/DX2                !
 ! A16   A(17,6,18)            101.9869         estimate D2E/DX2                !
 ! A17   A(3,7,19)             103.269          estimate D2E/DX2                !
 ! A18   A(3,7,20)             114.3706         estimate D2E/DX2                !
 ! A19   A(3,7,21)             111.9733         estimate D2E/DX2                !
 ! A20   A(19,7,20)            106.3205         estimate D2E/DX2                !
 ! A21   A(19,7,21)            112.6973         estimate D2E/DX2                !
 ! A22   A(20,7,21)            108.1076         estimate D2E/DX2                !
 ! A23   A(2,8,13)             111.4365         estimate D2E/DX2                !
 ! A24   A(2,8,14)             107.7362         estimate D2E/DX2                !
 ! A25   A(2,8,15)             107.5759         estimate D2E/DX2                !
 ! A26   A(13,8,14)            110.4391         estimate D2E/DX2                !
 ! A27   A(13,8,15)            110.7606         estimate D2E/DX2                !
 ! A28   A(14,8,15)            108.7751         estimate D2E/DX2                !
 ! A29   A(5,9,10)             113.7766         estimate D2E/DX2                !
 ! A30   A(5,9,11)             110.2316         estimate D2E/DX2                !
 ! A31   A(5,9,12)             105.0574         estimate D2E/DX2                !
 ! A32   A(10,9,11)            105.2126         estimate D2E/DX2                !
 ! A33   A(10,9,12)            108.4599         estimate D2E/DX2                !
 ! A34   A(11,9,12)            114.32           estimate D2E/DX2                !
 ! A35   A(9,10,23)            115.8438         estimate D2E/DX2                !
 ! A36   A(9,11,24)            117.3551         estimate D2E/DX2                !
 ! A37   A(9,12,22)            116.8568         estimate D2E/DX2                !
 ! A38   A(8,13,25)            116.8991         estimate D2E/DX2                !
 ! A39   A(8,14,27)            114.056          estimate D2E/DX2                !
 ! A40   A(8,15,26)            117.2166         estimate D2E/DX2                !
 ! A41   A(6,16,32)            116.4907         estimate D2E/DX2                !
 ! A42   A(6,17,33)            117.1859         estimate D2E/DX2                !
 ! A43   A(6,18,31)            116.3076         estimate D2E/DX2                !
 ! A44   A(7,19,30)            115.1373         estimate D2E/DX2                !
 ! A45   A(7,20,28)            116.1676         estimate D2E/DX2                !
 ! A46   A(7,21,29)            116.2372         estimate D2E/DX2                !
 ! D1    D(3,1,2,8)             57.7292         estimate D2E/DX2                !
 ! D2    D(4,1,2,8)            -52.5301         estimate D2E/DX2                !
 ! D3    D(5,1,2,8)           -174.7067         estimate D2E/DX2                !
 ! D4    D(2,1,3,7)            -50.098          estimate D2E/DX2                !
 ! D5    D(4,1,3,7)             58.8315         estimate D2E/DX2                !
 ! D6    D(5,1,3,7)           -175.9641         estimate D2E/DX2                !
 ! D7    D(2,1,4,6)             42.7683         estimate D2E/DX2                !
 ! D8    D(3,1,4,6)            -68.2312         estimate D2E/DX2                !
 ! D9    D(5,1,4,6)            164.8802         estimate D2E/DX2                !
 ! D10   D(3,1,5,9)             15.4377         Frozen                          !
 ! D11   D(2,1,9,10)           158.1568         estimate D2E/DX2                !
 ! D12   D(2,1,9,11)            35.6093         estimate D2E/DX2                !
 ! D13   D(2,1,9,12)           -86.7146         estimate D2E/DX2                !
 ! D14   D(3,1,9,10)           -82.3772         estimate D2E/DX2                !
 ! D15   D(3,1,9,11)           155.0754         estimate D2E/DX2                !
 ! D16   D(3,1,9,12)            32.7515         estimate D2E/DX2                !
 ! D17   D(4,1,9,10)            37.5403         estimate D2E/DX2                !
 ! D18   D(4,1,9,11)           -85.0072         estimate D2E/DX2                !
 ! D19   D(4,1,9,12)           152.6689         estimate D2E/DX2                !
 ! D20   D(1,2,8,13)            93.5308         estimate D2E/DX2                !
 ! D21   D(1,2,8,14)           -27.7655         estimate D2E/DX2                !
 ! D22   D(1,2,8,15)          -144.8802         estimate D2E/DX2                !
 ! D23   D(1,3,7,19)           -61.1012         estimate D2E/DX2                !
 ! D24   D(1,3,7,20)          -176.1751         estimate D2E/DX2                !
 ! D25   D(1,3,7,21)            60.409          estimate D2E/DX2                !
 ! D26   D(1,4,6,16)           160.167          estimate D2E/DX2                !
 ! D27   D(1,4,6,17)            32.6925         estimate D2E/DX2                !
 ! D28   D(1,4,6,18)           -79.742          estimate D2E/DX2                !
 ! D29   D(1,5,9,12)            18.3503         Frozen                          !
 ! D30   D(4,6,16,32)          -14.1998         estimate D2E/DX2                !
 ! D31   D(17,6,16,32)         110.2979         estimate D2E/DX2                !
 ! D32   D(18,6,16,32)        -136.5531         estimate D2E/DX2                !
 ! D33   D(4,6,17,33)           51.0095         estimate D2E/DX2                !
 ! D34   D(16,6,17,33)         -73.6179         estimate D2E/DX2                !
 ! D35   D(18,6,17,33)         169.7166         estimate D2E/DX2                !
 ! D36   D(4,6,18,31)          -96.4424         estimate D2E/DX2                !
 ! D37   D(16,6,18,31)          24.7715         estimate D2E/DX2                !
 ! D38   D(17,6,18,31)         146.349          estimate D2E/DX2                !
 ! D39   D(3,7,19,30)         -162.1837         estimate D2E/DX2                !
 ! D40   D(20,7,19,30)         -41.4662         estimate D2E/DX2                !
 ! D41   D(21,7,19,30)          76.796          estimate D2E/DX2                !
 ! D42   D(3,7,20,28)          -98.427          estimate D2E/DX2                !
 ! D43   D(19,7,20,28)         148.2947         estimate D2E/DX2                !
 ! D44   D(21,7,20,28)          27.0455         estimate D2E/DX2                !
 ! D45   D(3,7,21,29)          -49.8995         estimate D2E/DX2                !
 ! D46   D(19,7,21,29)          66.0156         estimate D2E/DX2                !
 ! D47   D(20,7,21,29)        -176.7753         estimate D2E/DX2                !
 ! D48   D(2,8,13,25)          -58.468          estimate D2E/DX2                !
 ! D49   D(14,8,13,25)          61.2404         estimate D2E/DX2                !
 ! D50   D(15,8,13,25)        -178.1888         estimate D2E/DX2                !
 ! D51   D(2,8,14,27)           80.2918         estimate D2E/DX2                !
 ! D52   D(13,8,14,27)         -41.6247         estimate D2E/DX2                !
 ! D53   D(15,8,14,27)        -163.3756         estimate D2E/DX2                !
 ! D54   D(2,8,15,26)         -174.1994         estimate D2E/DX2                !
 ! D55   D(13,8,15,26)         -52.1897         estimate D2E/DX2                !
 ! D56   D(14,8,15,26)          69.3652         estimate D2E/DX2                !
 ! D57   D(5,9,10,23)          -94.8505         estimate D2E/DX2                !
 ! D58   D(11,9,10,23)          25.9076         estimate D2E/DX2                !
 ! D59   D(12,9,10,23)         148.6398         estimate D2E/DX2                !
 ! D60   D(5,9,11,24)          -43.8205         estimate D2E/DX2                !
 ! D61   D(10,9,11,24)        -166.8798         estimate D2E/DX2                !
 ! D62   D(12,9,11,24)          74.2394         estimate D2E/DX2                !
 ! D63   D(5,9,12,22)         -166.4776         estimate D2E/DX2                !
 ! D64   D(10,9,12,22)         -44.4749         estimate D2E/DX2                !
 ! D65   D(11,9,12,22)          72.5539         estimate D2E/DX2                !
 --------------------------------------------------------------------------------
 Trust Radius=3.00D-01 FncErr=1.00D-07 GrdErr=1.00D-06 EigMax=2.50D+02 EigMin=1.00D-04
 Number of steps in this run=    153 maximum allowed number of steps=    198.
 GradGradGradGradGradGradGradGradGradGradGradGradGradGradGradGradGradGrad

                          Input orientation:                          
 ---------------------------------------------------------------------
 Center     Atomic      Atomic             Coordinates (Angstroms)
 Number     Number       Type             X           Y           Z
 ---------------------------------------------------------------------
      1         40           0        0.657790   -0.125060   -0.071640
      2          8           0       -0.222850   -0.906240    1.477300
      3          8           0        0.103020    1.747480   -0.122990
      4          8           0       -0.268300   -0.978850   -1.597050
      5          8           0        2.592060   -0.436300   -0.082840
      6         14           0       -1.831190   -1.332440   -1.953600
      7         14           0       -1.115500    2.841720   -0.082790
      8         14           0       -1.723760   -1.152910    2.115170
      9         14           0        4.225390   -0.364180   -0.011930
     10          8           0        4.951230   -0.246100   -1.490030
     11          8           0        4.831740   -1.752320    0.660690
     12          8           0        4.557130    1.006730    0.843990
     13          8           0       -2.319240   -2.624000    1.696270
     14          8           0       -2.724220    0.065080    1.550860
     15          8           0       -1.597340   -1.019570    3.744390
     16          8           0       -2.001440   -1.559650   -3.577820
     17          8           0       -2.825090   -0.186760   -1.301450
     18          8           0       -2.344480   -2.714390   -1.182770
     19          8           0       -2.040460    2.439570   -1.430230
     20          8           0       -0.635650    4.400490   -0.299870
     21          8           0       -1.965510    2.760860    1.313830
     22          1           0        5.466050    1.325710    0.819890
     23          1           0        5.241960   -1.076890   -1.882950
     24          1           0        4.385890   -2.097000    1.442400
     25          1           0       -2.405770   -2.809510    0.743920
     26          1           0       -2.381370   -1.224230    4.265350
     27          1           0       -3.060340   -0.083060    0.645890
     28          1           0       -0.527310    4.927280    0.500150
     29          1           0       -2.269090    1.869320    1.585330
     30          1           0       -2.648540    3.126760   -1.730140
     31          1           0       -2.304520   -3.529520   -1.695620
     32          1           0       -1.271140   -1.263050   -4.132230
     33          1           0       -2.610260    0.754610   -1.489930
 ---------------------------------------------------------------------
                    Distance matrix (angstroms):
                    1          2          3          4          5
     1  Zr   0.000000
     2  O    1.945504   0.000000
     3  O    1.953666   3.115983   0.000000
     4  O    1.978251   3.075543   3.121475   0.000000
     5  O    1.959183   3.252476   3.311469   3.281593   0.000000
     6  Si   3.345827   3.813067   4.071635   1.641578   4.885484
     7  Si   3.456366   4.156670   1.638221   4.196128   4.948880
     8  Si   3.392697   1.649380   4.093745   3.991145   4.896027
     9  Si   3.576103   4.722126   4.633074   4.804547   1.636458
    10  O    4.523285   6.000995   5.417407   5.271799   2.753551
    11  O    4.539399   5.189565   5.934943   5.630813   2.702020
    12  O    4.162232   5.187364   4.617668   5.760727   2.608227
    13  O    4.270002   2.719099   5.318542   4.214123   5.663226
    14  O    3.755882   2.684348   3.691278   4.126823   5.584191
    15  O    4.521929   2.653632   5.050190   5.504452   5.704294
    16  O    4.628483   5.398571   5.225104   2.695283   5.880225
    17  O    3.694143   3.874372   3.701875   2.692947   5.558129
    18  O    4.117386   3.853141   5.198238   2.737563   5.546978
    19  O    3.962783   4.790812   2.604299   3.854086   5.616612
    20  O    4.712290   5.611606   2.759598   5.545712   5.818913
    21  O    4.138812   4.063399   2.714813   5.033803   5.739683
    22  H    5.100875   6.146330   5.461593   6.635915   3.489902
    23  H    5.020103   6.417519   6.122355   5.518543   3.266913
    24  H    4.481026   4.760211   5.964348   5.670097   2.881338
    25  H    4.154132   2.987545   5.273682   3.660633   5.594101
    26  H    5.408711   3.540275   5.853271   6.236426   6.653014
    27  H    3.786965   3.069237   3.734823   3.691708   5.710118
    28  H    5.220876   5.922624   3.301022   6.272775   6.232041
    29  H    3.910208   3.450000   2.925766   4.716225   5.632890
    30  H    4.925117   5.695325   3.472237   4.747556   6.547739
    31  H    4.796138   4.613282   6.009671   3.265245   6.012118
    32  H    4.637260   5.717784   5.198616   2.741094   5.657331
    33  H    3.669539   4.154829   3.196280   2.915671   5.519266
                    6          7          8          9         10
     6  Si   0.000000
     7  Si   4.629876   0.000000
     8  Si   4.074145   4.599791   0.000000
     9  Si   6.433488   6.229600   6.367027   0.000000
    10  O    6.884494   6.951271   7.640371   1.650929   0.000000
    11  O    7.169759   7.551664   6.741616   1.657411   2.628416
    12  O    7.355872   6.033642   6.762361   1.649862   2.678161
    13  O    3.902290   5.872660   1.641396   7.131403   8.286534
    14  O    3.877087   3.600906   1.674176   7.136081   8.261742
    15  O    5.711363   5.457933   1.639549   6.960148   8.419096
    16  O    1.648848   5.689656   5.714252   7.274485   7.377256
    17  O    1.650975   3.685040   3.717481   7.169631   7.778833
    18  O    1.663560   5.795749   3.701340   7.075136   7.708064
    19  O    3.813892   1.683113   5.057279   7.009527   7.490002
    20  O    6.085279   1.645340   6.152776   6.812833   7.363458
    21  O    5.239203   1.636949   4.002272   7.060507   8.046411
    22  H    8.246679   6.813950   7.714576   2.255413   2.841013
    23  H    7.078118   7.682017   8.031936   2.245459   0.963910
    24  H    7.125269   7.548672   6.218661   2.267929   3.513486
    25  H    3.128657   5.855309   2.256056   7.107970   8.104755
    26  H    6.244177   6.086107   2.249625   7.917328   9.372735
    27  H    3.135141   3.587160   2.256060   7.320766   8.293009
    28  H    6.848729   2.243958   6.403787   7.130914   7.793528
    29  H    4.792395   2.249212   3.116406   7.051101   8.128091
    30  H    4.538993   2.268308   5.827281   7.898723   8.318073
    31  H    2.262246   6.678899   4.528540   7.449424   7.966745
    32  H    2.250533   5.768130   6.264743   6.927964   6.836176
    33  H    2.275460   2.927521   4.173878   7.082534   7.627421
                   11         12         13         14         15
    11  O    0.000000
    12  O    2.778735   0.000000
    13  O    7.277964   7.822598   0.000000
    14  O    7.822268   7.375936   2.723289   0.000000
    15  O    7.167928   7.098994   2.700024   2.694049   0.000000
    16  O    8.043285   8.315861   5.389792   5.428215   7.353213
    17  O    8.057792   7.779750   3.896453   2.865182   5.259415
    18  O    7.471416   8.098562   2.880569   3.916936   5.263795
    19  O    8.316912   7.124135   5.957555   3.872032   6.240088
    20  O    8.286863   6.308010   7.494165   5.155881   6.830662
    21  O    8.185230   6.770713   5.410000   2.810526   4.509415
    22  H    3.146738   0.963569   8.773767   8.318896   7.996532
    23  H    2.663567   3.499524   8.507415   8.749581   8.856990
    24  H    0.963669   3.165526   6.730598   7.432363   6.500696
    25  H    7.314788   7.940761   0.974101   3.002637   3.586121
    26  H    8.080929   8.051439   2.926327   3.024619   0.963321
    27  H    8.066695   7.697580   2.847614   0.976674   3.552200
    28  H    8.565176   6.429655   7.852614   5.437959   6.858213
    29  H    8.024526   6.920327   4.494969   1.861079   3.668579
    30  H    9.245327   7.939921   6.702236   4.488271   6.947485
    31  H    7.722489   8.608683   3.510712   4.861783   6.032716
    32  H    7.775385   7.992709   6.076357   6.014390   7.887131
    33  H    8.142065   7.542031   4.653125   3.120071   5.618881
                   16         17         18         19         20
    16  O    0.000000
    17  O    2.783000   0.000000
    18  O    2.680926   2.575652   0.000000
    19  O    4.539540   2.744055   5.168846   0.000000
    20  O    6.937839   5.180702   7.370287   2.663909   0.000000
    21  O    6.526587   4.033241   6.029510   2.763822   2.657243
    22  H    9.133924   8.690837   9.018727   7.915265   6.923791
    23  H    7.454696   8.136816   7.792672   8.099635   8.188659
    24  H    8.141826   7.948331   7.250556   8.374392   8.394566
    25  H    4.516976   3.352340   1.930010   5.693261   7.497128
    26  H    7.859527   5.680008   5.648358   6.780802   7.451594
    27  H    4.597968   1.964238   3.283344   3.422586   5.184188
    28  H    7.802766   5.888884   8.033022   3.493521   0.963990
    29  H    6.203837   3.587492   5.355227   3.077509   3.553720
    30  H    5.078888   3.345797   5.874615   0.965369   2.778450
    31  H    2.741336   3.405937   0.963872   5.980819   8.223035
    32  H    0.963680   3.403891   3.458000   4.647801   6.867788
    33  H    3.175806   0.983796   3.492699   1.779698   4.313672
                   21         22         23         24         25
    21  O    0.000000
    22  H    7.584966   0.000000
    23  H    8.768999   3.623265   0.000000
    24  H    7.997226   3.642692   3.582099   0.000000
    25  H    5.616729   8.892208   8.269836   6.864560   0.000000
    26  H    4.976480   8.941778   9.794818   7.384212   3.861888
    27  H    3.119724   8.643740   8.735612   7.754787   2.805637
    28  H    2.724678   6.999565   8.661045   8.623681   7.965297
    29  H    0.980162   7.791906   8.782084   7.748605   4.755849
    30  H    3.141045   8.694424   8.941701   9.318577   6.435776
    31  H    6.981447   9.501727   7.937244   7.527341   2.545589
    32  H    6.806877   8.752994   6.893068   7.985860   5.239825
    33  H    3.507394   8.419513   8.072559   8.104095   4.211277
                   26         27         28         29         30
    26  H    0.000000
    27  H    3.855355   0.000000
    28  H    7.446835   5.616136   0.000000
    29  H    4.094529   2.306602   3.682734   0.000000
    30  H    7.412718   4.014728   3.565906   3.566157   0.000000
    31  H    6.391669   4.234622   8.916129   6.317702   6.665254
    32  H    8.470742   5.236797   7.767394   6.595312   5.190154
    33  H    6.090275   2.337946   5.070530   3.288799   2.384588
                   31         32         33
    31  H    0.000000
    32  H    3.484513   0.000000
    33  H    4.299948   3.584124   0.000000
 Stoichiometry    H12O16Si4Zr
 Framework group  C1[X(H12O16Si4Zr)]
 Deg. of freedom    93
 Full point group                 C1      NOp   1
 Largest Abelian subgroup         C1      NOp   1
 Largest concise Abelian subgroup C1      NOp   1
                         Standard orientation:                         
 ---------------------------------------------------------------------
 Center     Atomic      Atomic             Coordinates (Angstroms)
 Number     Number       Type             X           Y           Z
 ---------------------------------------------------------------------
      1         40           0        0.659223   -0.083009   -0.062283
      2          8           0       -0.206344   -0.887065    1.483444
      3          8           0        0.047887    1.771596   -0.121623
      4          8           0       -0.231316   -0.968258   -1.590926
      5          8           0        2.602122   -0.335079   -0.061363
      6         14           0       -1.780546   -1.370234   -1.955730
      7         14           0       -1.203672    2.828218   -0.091332
      8         14           0       -1.702786   -1.177940    2.113132
      9         14           0        4.232041   -0.212963    0.018931
     10          8           0        4.962697   -0.076256   -1.455185
     11          8           0        4.876465   -1.580360    0.698604
     12          8           0        4.516711    1.169444    0.873307
     13          8           0       -2.250604   -2.667504    1.694477
     14          8           0       -2.736581    0.007610    1.539889
     15          8           0       -1.590162   -1.036972    3.742722
     16          8           0       -1.934145   -1.606354   -3.580339
     17          8           0       -2.812795   -0.253899   -1.312316
     18          8           0       -2.255993   -2.765393   -1.184424
     19          8           0       -2.107920    2.394850   -1.443146
     20          8           0       -0.770331    4.400395   -0.309543
     21          8           0       -2.059090    2.724730    1.300484
     22          1           0        5.415601    1.515966    0.853724
     23          1           0        5.280968   -0.898705   -1.844291
     24          1           0        4.436711   -1.936651    1.478559
     25          1           0       -2.325781   -2.857809    0.742109
     26          1           0       -2.370659   -1.264246    4.259597
     27          1           0       -3.062649   -0.152850    0.633344
     28          1           0       -0.682864    4.932127    0.489762
     29          1           0       -2.336930    1.824979    1.572457
     30          1           0       -2.734895    3.062449   -1.748352
     31          1           0       -2.188136   -3.580127   -1.694966
     32          1           0       -1.209959   -1.288902   -4.131210
     33          1           0       -2.625675    0.693144   -1.501917
 ---------------------------------------------------------------------
 Rotational constants (GHZ):           0.2119416           0.1335590           0.1236702
 General basis read from cards:  (5D, 7F)
 ======================================================================================================
                                       Pseudopotential Parameters
 ======================================================================================================
  Center     Atomic      Valence      Angular      Power
  Number     Number     Electrons     Momentum     of R      Exponent        Coefficient   SO-Coeffient
 ======================================================================================================
    1         40           12
                                      G and up 
                                                     2        1.0000000        0.00000000    0.00000000
                                      S - G
                                                     2        8.6365280      150.24299400    0.00000000
                                                     2        3.7176390       18.78003600    0.00000000
                                      P - G
                                                     2        7.6267280       33.19279100    0.00000000
                                                     2        7.4532070       66.38903900    0.00000000
                                                     2        3.3583890        4.62072600    0.00000000
                                                     2        3.2297380        9.26027000    0.00000000
                                      D - G
                                                     2        5.9380860       13.99338300    0.00000000
                                                     2        5.8255440       20.99588200    0.00000000
                                                     2        2.2050190        2.28516600    0.00000000
                                                     2        2.2062920        3.44126000    0.00000000
                                      F - G
                                                     2        4.8002150       -5.23932000    0.00000000
                                                     2        4.7989920       -6.98742400    0.00000000
    2          8
                                   No pseudopotential on this center.
    3          8
                                   No pseudopotential on this center.
    4          8
                                   No pseudopotential on this center.
    5          8
                                   No pseudopotential on this center.
    6         14
                                   No pseudopotential on this center.
    7         14
                                   No pseudopotential on this center.
    8         14
                                   No pseudopotential on this center.
    9         14
                                   No pseudopotential on this center.
   10          8
                                   No pseudopotential on this center.
   11          8
                                   No pseudopotential on this center.
   12          8
                                   No pseudopotential on this center.
   13          8
                                   No pseudopotential on this center.
   14          8
                                   No pseudopotential on this center.
   15          8
                                   No pseudopotential on this center.
   16          8
                                   No pseudopotential on this center.
   17          8
                                   No pseudopotential on this center.
   18          8
                                   No pseudopotential on this center.
   19          8
                                   No pseudopotential on this center.
   20          8
                                   No pseudopotential on this center.
   21          8
                                   No pseudopotential on this center.
   22          1
                                   No pseudopotential on this center.
   23          1
                                   No pseudopotential on this center.
   24          1
                                   No pseudopotential on this center.
   25          1
                                   No pseudopotential on this center.
   26          1
                                   No pseudopotential on this center.
   27          1
                                   No pseudopotential on this center.
   28          1
                                   No pseudopotential on this center.
   29          1
                                   No pseudopotential on this center.
   30          1
                                   No pseudopotential on this center.
   31          1
                                   No pseudopotential on this center.
   32          1
                                   No pseudopotential on this center.
   33          1
                                   No pseudopotential on this center.
 ======================================================================================================
 There are   570 symmetry adapted cartesian basis functions of A   symmetry.
 There are   524 symmetry adapted basis functions of A   symmetry.
   524 basis functions,  1074 primitive gaussians,   570 cartesian basis functions
   104 alpha electrons      104 beta electrons
       nuclear repulsion energy      2831.1559975545 Hartrees.
 NAtoms=   33 NActive=   33 NUniq=   33 SFac= 1.00D+00 NAtFMM=   60 NAOKFM=F Big=F
 Integral buffers will be    131072 words long.
 Raffenetti 2 integral format.
 Two-electron integral symmetry is turned on.
 Nuclear repulsion after empirical dispersion term =     2831.1152201614 Hartrees.
 One-electron integrals computed using PRISM.
 PrsmSu:  requested number of processors reduced to:   4 ShMem   1 Linda.
   1 Symmetry operations used in ECPInt.
 ECPInt:  NShTT=   13203 NPrTT=   78401 LenC2=   11525 LenP2D=   44616.
 LDataN:  DoStor=T MaxTD1= 8 Len=  415
 Number of processors reduced to  13 by ecpmxn.
 NBasis=   524 RedAO= T EigKep=  3.19D-05  NBF=   524
 NBsUse=   524 1.00D-06 EigRej= -1.00D+00 NBFU=   524
 Defaulting to unpruned grid for atomic number  40.
 ExpMin= 1.01D-02 ExpMax= 1.61D+04 ExpMxC= 2.43D+03 IAcc=3 IRadAn=         5 AccDes= 0.00D+00
 Harris functional with IExCor=  402 and IRadAn=       5 diagonalized for initial guess.
 HarFok:  IExCor=  402 AccDes= 0.00D+00 IRadAn=         5 IDoV= 1 UseB2=F ITyADJ=14
 ICtDFT=  3500011 ScaDFX=  1.000000  1.000000  1.000000  1.000000
 Defaulting to unpruned grid for atomic number  40.
 FoFCou: FMM=F IPFlag=           0 FMFlag=      100000 FMFlg1=           0
         NFxFlg=           0 DoJE=T BraDBF=F KetDBF=T FulRan=T
         wScrn=  0.000000 ICntrl=       500 IOpCl=  0 I1Cent=   200000004 NGrid=           0
         NMat0=    1 NMatS0=      1 NMatT0=    0 NMatD0=    1 NMtDS0=    0 NMtDT0=    0
 Petite list used in FoFCou.
 Requested convergence on RMS density matrix=1.00D-08 within 128 cycles.
 Requested convergence on MAX density matrix=1.00D-06.
 Requested convergence on             energy=1.00D-06.
 No special actions if energy rises.
 Defaulting to unpruned grid for atomic number  40.
 Defaulting to unpruned grid for atomic number  40.
 Defaulting to unpruned grid for atomic number  40.
 Defaulting to unpruned grid for atomic number  40.
 Defaulting to unpruned grid for atomic number  40.
 Defaulting to unpruned grid for atomic number  40.
 Defaulting to unpruned grid for atomic number  40.
 Defaulting to unpruned grid for atomic number  40.
 Defaulting to unpruned grid for atomic number  40.
 Defaulting to unpruned grid for atomic number  40.
 Defaulting to unpruned grid for atomic number  40.
 Defaulting to unpruned grid for atomic number  40.
 Defaulting to unpruned grid for atomic number  40.
 Defaulting to unpruned grid for atomic number  40.
 Defaulting to unpruned grid for atomic number  40.
 Defaulting to unpruned grid for atomic number  40.
 SCF Done:  E(RB3LYP) =  -2416.94683903     A.U. after   14 cycles
            NFock= 14  Conv=0.28D-08     -V/T= 2.0185

 **********************************************************************

            Population analysis using the SCF Density.

 **********************************************************************

 Orbital symmetries:
       Occupied  (A) (A) (A) (A) (A) (A) (A) (A) (A) (A) (A) (A)
                 (A) (A) (A) (A) (A) (A) (A) (A) (A) (A) (A) (A)
                 (A) (A) (A) (A) (A) (A) (A) (A) (A) (A) (A) (A)
                 (A) (A) (A) (A) (A) (A) (A) (A) (A) (A) (A) (A)
                 (A) (A) (A) (A) (A) (A) (A) (A) (A) (A) (A) (A)
                 (A) (A) (A) (A) (A) (A) (A) (A) (A) (A) (A) (A)
                 (A) (A) (A) (A) (A) (A) (A) (A) (A) (A) (A) (A)
                 (A) (A) (A) (A) (A) (A) (A) (A) (A) (A) (A) (A)
                 (A) (A) (A) (A) (A) (A) (A) (A)
       Virtual   (A) (A) (A) (A) (A) (A) (A) (A) (A) (A) (A) (A)
                 (A) (A) (A) (A) (A) (A) (A) (A) (A) (A) (A) (A)
                 (A) (A) (A) (A) (A) (A) (A) (A) (A) (A) (A) (A)
                 (A) (A) (A) (A) (A) (A) (A) (A) (A) (A) (A) (A)
                 (A) (A) (A) (A) (A) (A) (A) (A) (A) (A) (A) (A)
                 (A) (A) (A) (A) (A) (A) (A) (A) (A) (A) (A) (A)
                 (A) (A) (A) (A) (A) (A) (A) (A) (A) (A) (A) (A)
                 (A) (A) (A) (A) (A) (A) (A) (A) (A) (A) (A) (A)
                 (A) (A) (A) (A) (A) (A) (A) (A) (A) (A) (A) (A)
                 (A) (A) (A) (A) (A) (A) (A) (A) (A) (A) (A) (A)
                 (A) (A) (A) (A) (A) (A) (A) (A) (A) (A) (A) (A)
                 (A) (A) (A) (A) (A) (A) (A) (A) (A) (A) (A) (A)
                 (A) (A) (A) (A) (A) (A) (A) (A) (A) (A) (A) (A)
                 (A) (A) (A) (A) (A) (A) (A) (A) (A) (A) (A) (A)
                 (A) (A) (A) (A) (A) (A) (A) (A) (A) (A) (A) (A)
                 (A) (A) (A) (A) (A) (A) (A) (A) (A) (A) (A) (A)
                 (A) (A) (A) (A) (A) (A) (A) (A) (A) (A) (A) (A)
                 (A) (A) (A) (A) (A) (A) (A) (A) (A) (A) (A) (A)
                 (A) (A) (A) (A) (A) (A) (A) (A) (A) (A) (A) (A)
                 (A) (A) (A) (A) (A) (A) (A) (A) (A) (A) (A) (A)
                 (A) (A) (A) (A) (A) (A) (A) (A) (A) (A) (A) (A)
                 (A) (A) (A) (A) (A) (A) (A) (A) (A) (A) (A) (A)
                 (A) (A) (A) (A) (A) (A) (A) (A) (A) (A) (A) (A)
                 (A) (A) (A) (A) (A) (A) (A) (A) (A) (A) (A) (A)
                 (A) (A) (A) (A) (A) (A) (A) (A) (A) (A) (A) (A)
                 (A) (A) (A) (A) (A) (A) (A) (A) (A) (A) (A) (A)
                 (A) (A) (A) (A) (A) (A) (A) (A) (A) (A) (A) (A)
                 (A) (A) (A) (A) (A) (A) (A) (A) (A) (A) (A) (A)
                 (A) (A) (A) (A) (A) (A) (A) (A) (A) (A) (A) (A)
                 (A) (A) (A) (A) (A) (A) (A) (A) (A) (A) (A) (A)
                 (A) (A) (A) (A) (A) (A) (A) (A) (A) (A) (A) (A)
                 (A) (A) (A) (A) (A) (A) (A) (A) (A) (A) (A) (A)
                 (A) (A) (A) (A) (A) (A) (A) (A) (A) (A) (A) (A)
                 (A) (A) (A) (A) (A) (A) (A) (A) (A) (A) (A) (A)
                 (A) (A) (A) (A) (A) (A) (A) (A) (A) (A) (A) (A)
 The electronic state is 1-A.
 Alpha  occ. eigenvalues --  -66.22827 -66.21772 -66.21487 -66.21060 -19.18611
 Alpha  occ. eigenvalues --  -19.18367 -19.17807 -19.17045 -19.16748 -19.16541
 Alpha  occ. eigenvalues --  -19.16438 -19.16204 -19.16177 -19.16040 -19.16016
 Alpha  occ. eigenvalues --  -19.15519 -19.15328 -19.15283 -19.14913 -19.14729
 Alpha  occ. eigenvalues --   -5.36887  -5.35853  -5.35560  -5.35120  -3.72871
 Alpha  occ. eigenvalues --   -3.72844  -3.72797  -3.71844  -3.71797  -3.71762
 Alpha  occ. eigenvalues --   -3.71530  -3.71521  -3.71481  -3.71085  -3.71076
 Alpha  occ. eigenvalues --   -3.71051  -2.13393  -1.29631  -1.29550  -1.29395
 Alpha  occ. eigenvalues --   -1.05701  -1.04792  -1.04140  -1.03517  -1.02585
 Alpha  occ. eigenvalues --   -1.02187  -1.01490  -1.00899  -1.00754  -1.00683
 Alpha  occ. eigenvalues --   -0.99851  -0.99325  -0.97384  -0.96305  -0.95738
 Alpha  occ. eigenvalues --   -0.95419  -0.61011  -0.59175  -0.58971  -0.58510
 Alpha  occ. eigenvalues --   -0.55560  -0.54548  -0.53855  -0.53058  -0.52971
 Alpha  occ. eigenvalues --   -0.52512  -0.52168  -0.51728  -0.48802  -0.47618
 Alpha  occ. eigenvalues --   -0.47221  -0.46749  -0.43395  -0.42672  -0.41881
 Alpha  occ. eigenvalues --   -0.41408  -0.41101  -0.40558  -0.39847  -0.39351
 Alpha  occ. eigenvalues --   -0.38816  -0.38701  -0.38650  -0.38156  -0.38039
 Alpha  occ. eigenvalues --   -0.37639  -0.37504  -0.37209  -0.36538  -0.36424
 Alpha  occ. eigenvalues --   -0.36077  -0.35639  -0.35481  -0.35103  -0.34888
 Alpha  occ. eigenvalues --   -0.34624  -0.34013  -0.33703  -0.33493  -0.33280
 Alpha  occ. eigenvalues --   -0.32822  -0.32166  -0.32069  -0.31324
 Alpha virt. eigenvalues --   -0.04347  -0.03187  -0.03056  -0.02750  -0.02111
 Alpha virt. eigenvalues --   -0.01192  -0.00579  -0.00161   0.00114   0.00301
 Alpha virt. eigenvalues --    0.00735   0.00930   0.01005   0.01932   0.02339
 Alpha virt. eigenvalues --    0.03259   0.03338   0.03847   0.03905   0.04062
 Alpha virt. eigenvalues --    0.04176   0.04679   0.05554   0.05828   0.06151
 Alpha virt. eigenvalues --    0.06453   0.07104   0.07477   0.07711   0.08657
 Alpha virt. eigenvalues --    0.08790   0.09016   0.09171   0.09636   0.09937
 Alpha virt. eigenvalues --    0.10358   0.10616   0.10895   0.11203   0.11672
 Alpha virt. eigenvalues --    0.11869   0.12534   0.13232   0.13349   0.13695
 Alpha virt. eigenvalues --    0.13975   0.14430   0.14846   0.15052   0.15281
 Alpha virt. eigenvalues --    0.15391   0.15738   0.16183   0.16725   0.16884
 Alpha virt. eigenvalues --    0.17369   0.17503   0.17686   0.18137   0.18453
 Alpha virt. eigenvalues --    0.18532   0.18687   0.19186   0.19701   0.19723
 Alpha virt. eigenvalues --    0.20143   0.20310   0.20607   0.20957   0.21193
 Alpha virt. eigenvalues --    0.21738   0.21940   0.22323   0.22392   0.22756
 Alpha virt. eigenvalues --    0.23245   0.23713   0.24022   0.24162   0.24431
 Alpha virt. eigenvalues --    0.24760   0.25080   0.25573   0.25701   0.26104
 Alpha virt. eigenvalues --    0.26575   0.26714   0.26924   0.27245   0.27472
 Alpha virt. eigenvalues --    0.27909   0.28257   0.28502   0.28788   0.29044
 Alpha virt. eigenvalues --    0.29417   0.29713   0.30033   0.30387   0.30504
 Alpha virt. eigenvalues --    0.30762   0.31259   0.31410   0.31572   0.32099
 Alpha virt. eigenvalues --    0.32436   0.32692   0.33119   0.33597   0.34022
 Alpha virt. eigenvalues --    0.34361   0.34590   0.35366   0.35669   0.36313
 Alpha virt. eigenvalues --    0.36878   0.37524   0.37849   0.38287   0.38879
 Alpha virt. eigenvalues --    0.39262   0.39958   0.40067   0.41125   0.41654
 Alpha virt. eigenvalues --    0.42705   0.43107   0.43851   0.44260   0.44796
 Alpha virt. eigenvalues --    0.45355   0.45683   0.45965   0.46734   0.47478
 Alpha virt. eigenvalues --    0.47798   0.48554   0.48771   0.49302   0.49527
 Alpha virt. eigenvalues --    0.49925   0.50853   0.51083   0.51300   0.52889
 Alpha virt. eigenvalues --    0.54021   0.54443   0.55188   0.56719   0.57280
 Alpha virt. eigenvalues --    0.58129   0.58765   0.59324   0.59404   0.60205
 Alpha virt. eigenvalues --    0.61312   0.61727   0.62141   0.63879   0.65853
 Alpha virt. eigenvalues --    0.66974   0.67942   0.68318   0.68963   0.69390
 Alpha virt. eigenvalues --    0.70112   0.70775   0.72926   0.74435   0.75208
 Alpha virt. eigenvalues --    0.75505   0.77319   0.78511   0.78900   0.80611
 Alpha virt. eigenvalues --    0.80962   0.81529   0.82674   0.84109   0.85429
 Alpha virt. eigenvalues --    0.86707   0.87786   0.89758   0.90383   0.91248
 Alpha virt. eigenvalues --    0.94148   0.95680   0.96342   0.96850   0.97453
 Alpha virt. eigenvalues --    0.98164   0.98818   0.99118   0.99755   1.00330
 Alpha virt. eigenvalues --    1.00864   1.01456   1.02162   1.03085   1.04095
 Alpha virt. eigenvalues --    1.04252   1.05553   1.06344   1.06720   1.07919
 Alpha virt. eigenvalues --    1.09742   1.12432   1.15242   1.16166   1.16413
 Alpha virt. eigenvalues --    1.18635   1.19043   1.19914   1.20583   1.20922
 Alpha virt. eigenvalues --    1.21520   1.21721   1.22263   1.22769   1.22904
 Alpha virt. eigenvalues --    1.23432   1.23945   1.24204   1.25148   1.25721
 Alpha virt. eigenvalues --    1.26041   1.27148   1.27458   1.28086   1.28269
 Alpha virt. eigenvalues --    1.28937   1.29752   1.30119   1.30828   1.31349
 Alpha virt. eigenvalues --    1.32319   1.32704   1.32952   1.33503   1.34563
 Alpha virt. eigenvalues --    1.35217   1.35997   1.36546   1.36837   1.37680
 Alpha virt. eigenvalues --    1.39197   1.39750   1.40172   1.41185   1.41497
 Alpha virt. eigenvalues --    1.42698   1.43458   1.44141   1.45261   1.46445
 Alpha virt. eigenvalues --    1.46881   1.48839   1.50732   1.51650   1.53043
 Alpha virt. eigenvalues --    1.56724   1.57263   1.57666   1.59348   1.59568
 Alpha virt. eigenvalues --    1.60123   1.61073   1.61906   1.62565   1.63129
 Alpha virt. eigenvalues --    1.63226   1.63807   1.65092   1.65335   1.66656
 Alpha virt. eigenvalues --    1.67465   1.68028   1.69229   1.69734   1.70033
 Alpha virt. eigenvalues --    1.71185   1.71430   1.71636   1.72498   1.73298
 Alpha virt. eigenvalues --    1.74147   1.75140   1.75433   1.75840   1.76428
 Alpha virt. eigenvalues --    1.77125   1.77326   1.78650   1.78801   1.79677
 Alpha virt. eigenvalues --    1.80563   1.81580   1.82186   1.82627   1.82868
 Alpha virt. eigenvalues --    1.83470   1.84969   1.85018   1.85922   1.86710
 Alpha virt. eigenvalues --    1.87203   1.88085   1.88748   1.89640   1.90461
 Alpha virt. eigenvalues --    1.91232   1.91394   1.92448   1.92775   1.93763
 Alpha virt. eigenvalues --    1.94482   1.95607   1.96162   1.97248   1.98282
 Alpha virt. eigenvalues --    1.98444   2.00458   2.01100   2.02893   2.03643
 Alpha virt. eigenvalues --    2.05846   2.06548   2.07414   2.09772   2.10445
 Alpha virt. eigenvalues --    2.11296   2.12992   2.14243   2.16006   2.16245
 Alpha virt. eigenvalues --    2.17800   2.18611   2.18910   2.20546   2.27527
 Alpha virt. eigenvalues --    2.32324   2.33532   2.35415   2.39474   2.40441
 Alpha virt. eigenvalues --    2.41176   2.41284   2.41712   2.42772   2.43697
 Alpha virt. eigenvalues --    2.44003   2.45877   2.46689   2.47543   2.48962
 Alpha virt. eigenvalues --    2.50231   2.50314   2.51652   2.52922   2.53258
 Alpha virt. eigenvalues --    2.55461   2.58121   2.58931   2.60038   2.60695
 Alpha virt. eigenvalues --    2.61068   2.61815   2.62089   2.62382   2.62773
 Alpha virt. eigenvalues --    2.63158   2.63991   2.64538   2.64958   2.65957
 Alpha virt. eigenvalues --    2.66147   2.66516   2.67233   2.67543   2.69037
 Alpha virt. eigenvalues --    2.69362   2.70275   2.71204   2.71671   2.72215
 Alpha virt. eigenvalues --    2.72696   2.74267   2.75545   2.76705   2.77420
 Alpha virt. eigenvalues --    2.78948   2.80568   2.81431   2.82432   2.83446
 Alpha virt. eigenvalues --    2.83681   2.84710   2.86643   2.87755   2.88134
 Alpha virt. eigenvalues --    3.14488   3.20295   3.35835   3.41127   3.46876
 Alpha virt. eigenvalues --    3.47868   3.48486   3.48600   3.51082   3.51120
 Alpha virt. eigenvalues --    3.53046   3.54094   3.60294   3.61058   3.62063
 Alpha virt. eigenvalues --    3.66186   4.30474   4.58755   7.94660  31.30853
          Condensed to atoms (all electrons):
               1          2          3          4          5          6
     1  Zr  14.955848  -0.111652  -0.007933  -0.111959  -0.192288  -0.592983
     2  O   -0.111652   9.066871   0.021019  -0.043195  -0.059193   0.086840
     3  O   -0.007933   0.021019   8.843775   0.017060  -0.046120  -0.002260
     4  O   -0.111959  -0.043195   0.017060   8.817715  -0.057505  -0.694056
     5  O   -0.192288  -0.059193  -0.046120  -0.057505   9.462314  -0.010036
     6  Si  -0.592983   0.086840  -0.002260  -0.694056  -0.010036  14.021599
     7  Si  -0.597222  -0.029797  -0.884036  -0.008673  -0.036115   0.080368
     8  Si  -0.577144  -1.013650  -0.017075   0.065844  -0.017680  -0.013432
     9  Si  -0.298804  -0.044908  -0.036485  -0.037536  -1.253885   0.034700
    10  O   -0.011246   0.001177  -0.001504   0.001234   0.133681  -0.002164
    11  O   -0.054906   0.003391   0.002909   0.001140   0.310497  -0.000980
    12  O    0.037961   0.000136   0.004415   0.002126   0.155152  -0.002813
    13  O   -0.037165   0.185272   0.001738  -0.015881  -0.000488   0.037220
    14  O   -0.010821   0.266192  -0.016918  -0.008294   0.002412   0.026595
    15  O   -0.083073   0.294340  -0.000743   0.001283   0.000551  -0.000498
    16  O   -0.127544   0.004702  -0.000507   0.345708   0.003246  -0.421700
    17  O   -0.063224  -0.040367   0.008603   0.220305   0.001585  -0.466745
    18  O   -0.020023  -0.014542   0.003799   0.197190  -0.000490  -0.454568
    19  O    0.002021   0.008946   0.263501   0.009709   0.002212  -0.006579
    20  O   -0.147823  -0.000562   0.168784  -0.000873   0.001722   0.008960
    21  O    0.034470   0.010201   0.144578   0.003314   0.000144  -0.010690
    22  H   -0.007589  -0.000017  -0.000020  -0.000009   0.006026   0.000069
    23  H   -0.008227  -0.000013  -0.000004  -0.000052  -0.025335   0.000080
    24  H   -0.005010  -0.000224  -0.000016   0.000003  -0.005680   0.000085
    25  H    0.017252  -0.020012  -0.000114  -0.000223   0.000014   0.002200
    26  H    0.006785   0.000564   0.000014  -0.000012  -0.000004  -0.000093
    27  H    0.001053  -0.019106   0.000781  -0.001753   0.000005   0.009870
    28  H    0.005234  -0.000011  -0.018607  -0.000014  -0.000016  -0.000273
    29  H    0.004419  -0.007093  -0.020381  -0.000147  -0.000080   0.000195
    30  H    0.000866  -0.000013   0.000044  -0.000452  -0.000009  -0.000667
    31  H   -0.000580   0.000183  -0.000019  -0.018464  -0.000009   0.063916
    32  H    0.002072  -0.000023   0.000041   0.010349   0.000001   0.022891
    33  H   -0.015829   0.001007  -0.010104  -0.009402  -0.000107   0.052828
               7          8          9         10         11         12
     1  Zr  -0.597222  -0.577144  -0.298804  -0.011246  -0.054906   0.037961
     2  O   -0.029797  -1.013650  -0.044908   0.001177   0.003391   0.000136
     3  O   -0.884036  -0.017075  -0.036485  -0.001504   0.002909   0.004415
     4  O   -0.008673   0.065844  -0.037536   0.001234   0.001140   0.002126
     5  O   -0.036115  -0.017680  -1.253885   0.133681   0.310497   0.155152
     6  Si   0.080368  -0.013432   0.034700  -0.002164  -0.000980  -0.002813
     7  Si  13.802046   0.179536   0.019069  -0.000431  -0.001073   0.003671
     8  Si   0.179536  13.827559   0.024458  -0.000960   0.000989  -0.000751
     9  Si   0.019069   0.024458  14.295551  -0.083706  -0.180971  -0.199233
    10  O   -0.000431  -0.000960  -0.083706   8.525275   0.021132   0.027854
    11  O   -0.001073   0.000989  -0.180971   0.021132   8.501757  -0.049072
    12  O    0.003671  -0.000751  -0.199233   0.027854  -0.049072   8.596379
    13  O    0.007414  -0.095562   0.000335   0.000000   0.000021   0.000006
    14  O    0.006934  -0.376605  -0.001632  -0.000002   0.000000   0.000012
    15  O   -0.002804  -0.306238  -0.000779  -0.000000  -0.000023  -0.000010
    16  O    0.003986  -0.010141  -0.000913   0.000002  -0.000002  -0.000002
    17  O   -0.003394   0.092673   0.002141  -0.000002   0.000002  -0.000005
    18  O   -0.000718   0.073552   0.004139  -0.000003   0.000000  -0.000001
    19  O   -0.407862  -0.015372   0.001034   0.000006  -0.000002  -0.000019
    20  O   -0.114775   0.009572   0.002940   0.000002  -0.000003  -0.000026
    21  O    0.026977  -0.038679  -0.001571   0.000001   0.000000   0.000017
    22  H   -0.000155   0.000072   0.045594  -0.006797  -0.005044   0.220072
    23  H    0.000064   0.000066   0.082476   0.228225  -0.006456   0.005930
    24  H    0.000051  -0.000104   0.036096   0.007211   0.243975  -0.007516
    25  H   -0.000477   0.057420  -0.000225   0.000000  -0.000000  -0.000000
    26  H   -0.000367   0.046574  -0.000035  -0.000000   0.000000  -0.000000
    27  H    0.001771   0.069722   0.000018   0.000000  -0.000000  -0.000000
    28  H    0.056854  -0.000075  -0.000128  -0.000000  -0.000000  -0.000002
    29  H    0.048070   0.021834  -0.000047   0.000000   0.000000  -0.000000
    30  H    0.040110   0.000078   0.000022  -0.000000   0.000000   0.000000
    31  H    0.000157  -0.001847  -0.000052   0.000000  -0.000000   0.000000
    32  H   -0.000640   0.000048   0.000026  -0.000000   0.000000   0.000000
    33  H    0.020631   0.000105   0.000072  -0.000000   0.000000   0.000000
              13         14         15         16         17         18
     1  Zr  -0.037165  -0.010821  -0.083073  -0.127544  -0.063224  -0.020023
     2  O    0.185272   0.266192   0.294340   0.004702  -0.040367  -0.014542
     3  O    0.001738  -0.016918  -0.000743  -0.000507   0.008603   0.003799
     4  O   -0.015881  -0.008294   0.001283   0.345708   0.220305   0.197190
     5  O   -0.000488   0.002412   0.000551   0.003246   0.001585  -0.000490
     6  Si   0.037220   0.026595  -0.000498  -0.421700  -0.466745  -0.454568
     7  Si   0.007414   0.006934  -0.002804   0.003986  -0.003394  -0.000718
     8  Si  -0.095562  -0.376605  -0.306238  -0.010141   0.092673   0.073552
     9  Si   0.000335  -0.001632  -0.000779  -0.000913   0.002141   0.004139
    10  O    0.000000  -0.000002  -0.000000   0.000002  -0.000002  -0.000003
    11  O    0.000021   0.000000  -0.000023  -0.000002   0.000002   0.000000
    12  O    0.000006   0.000012  -0.000010  -0.000002  -0.000005  -0.000001
    13  O    8.627808   0.087299  -0.090020   0.003741  -0.030859  -0.045662
    14  O    0.087299   8.676251   0.055557   0.003724  -0.035928  -0.026720
    15  O   -0.090020   0.055557   8.777815  -0.000176   0.003563   0.001692
    16  O    0.003741   0.003724  -0.000176   8.901882  -0.091407  -0.114958
    17  O   -0.030859  -0.035928   0.003563  -0.091407   8.936415   0.227661
    18  O   -0.045662  -0.026720   0.001692  -0.114958   0.227661   9.012929
    19  O    0.000168  -0.000439   0.000142  -0.001553  -0.030291   0.000142
    20  O    0.000008  -0.000146   0.000040   0.000068  -0.000922   0.000013
    21  O   -0.000257   0.015585  -0.000627  -0.000217  -0.005473   0.000481
    22  H   -0.000000  -0.000000  -0.000000   0.000000   0.000000  -0.000000
    23  H    0.000000   0.000000  -0.000000  -0.000000   0.000000  -0.000000
    24  H   -0.000000   0.000000   0.000002   0.000000  -0.000000  -0.000000
    25  H    0.218433  -0.012021   0.008890  -0.000052   0.000650   0.015036
    26  H   -0.005075  -0.010072   0.216935   0.000000  -0.000002   0.000007
    27  H   -0.009729   0.219486   0.004656   0.000175   0.018118  -0.000254
    28  H   -0.000000  -0.000005  -0.000001  -0.000000   0.000004  -0.000000
    29  H    0.000800   0.017547  -0.002573  -0.000004  -0.000403   0.000005
    30  H    0.000001  -0.000005   0.000000   0.000115  -0.000432  -0.000007
    31  H    0.002374   0.000165  -0.000018   0.003798  -0.000772   0.218285
    32  H   -0.000008  -0.000006   0.000000   0.233401  -0.003646   0.003888
    33  H    0.000222   0.002064  -0.000034  -0.000060   0.231138   0.002099
              19         20         21         22         23         24
     1  Zr   0.002021  -0.147823   0.034470  -0.007589  -0.008227  -0.005010
     2  O    0.008946  -0.000562   0.010201  -0.000017  -0.000013  -0.000224
     3  O    0.263501   0.168784   0.144578  -0.000020  -0.000004  -0.000016
     4  O    0.009709  -0.000873   0.003314  -0.000009  -0.000052   0.000003
     5  O    0.002212   0.001722   0.000144   0.006026  -0.025335  -0.005680
     6  Si  -0.006579   0.008960  -0.010690   0.000069   0.000080   0.000085
     7  Si  -0.407862  -0.114775   0.026977  -0.000155   0.000064   0.000051
     8  Si  -0.015372   0.009572  -0.038679   0.000072   0.000066  -0.000104
     9  Si   0.001034   0.002940  -0.001571   0.045594   0.082476   0.036096
    10  O    0.000006   0.000002   0.000001  -0.006797   0.228225   0.007211
    11  O   -0.000002  -0.000003   0.000000  -0.005044  -0.006456   0.243975
    12  O   -0.000019  -0.000026   0.000017   0.220072   0.005930  -0.007516
    13  O    0.000168   0.000008  -0.000257  -0.000000   0.000000  -0.000000
    14  O   -0.000439  -0.000146   0.015585  -0.000000   0.000000   0.000000
    15  O    0.000142   0.000040  -0.000627  -0.000000  -0.000000   0.000002
    16  O   -0.001553   0.000068  -0.000217   0.000000  -0.000000   0.000000
    17  O   -0.030291  -0.000922  -0.005473   0.000000   0.000000  -0.000000
    18  O    0.000142   0.000013   0.000481  -0.000000  -0.000000  -0.000000
    19  O    8.871183   0.032739   0.022503  -0.000000   0.000000  -0.000000
    20  O    0.032739   8.659583  -0.050291   0.000000   0.000000  -0.000000
    21  O    0.022503  -0.050291   8.483576  -0.000000   0.000000   0.000000
    22  H   -0.000000   0.000000  -0.000000   0.363093   0.000060   0.000122
    23  H    0.000000   0.000000   0.000000   0.000060   0.351070   0.000014
    24  H   -0.000000  -0.000000   0.000000   0.000122   0.000014   0.364975
    25  H   -0.000024   0.000000  -0.000020   0.000000   0.000000   0.000000
    26  H    0.000001  -0.000000   0.000040  -0.000000  -0.000000  -0.000000
    27  H    0.000058   0.000189  -0.003977  -0.000000  -0.000000   0.000000
    28  H    0.004603   0.229584  -0.002113  -0.000000   0.000000   0.000000
    29  H   -0.008575   0.007651   0.206444   0.000000   0.000000  -0.000000
    30  H    0.224255  -0.001493  -0.007114   0.000000   0.000000  -0.000000
    31  H    0.000004  -0.000000  -0.000000  -0.000000  -0.000000   0.000000
    32  H    0.000100  -0.000000   0.000001  -0.000000  -0.000000  -0.000000
    33  H    0.014930  -0.000096   0.001494  -0.000000  -0.000000  -0.000000
              25         26         27         28         29         30
     1  Zr   0.017252   0.006785   0.001053   0.005234   0.004419   0.000866
     2  O   -0.020012   0.000564  -0.019106  -0.000011  -0.007093  -0.000013
     3  O   -0.000114   0.000014   0.000781  -0.018607  -0.020381   0.000044
     4  O   -0.000223  -0.000012  -0.001753  -0.000014  -0.000147  -0.000452
     5  O    0.000014  -0.000004   0.000005  -0.000016  -0.000080  -0.000009
     6  Si   0.002200  -0.000093   0.009870  -0.000273   0.000195  -0.000667
     7  Si  -0.000477  -0.000367   0.001771   0.056854   0.048070   0.040110
     8  Si   0.057420   0.046574   0.069722  -0.000075   0.021834   0.000078
     9  Si  -0.000225  -0.000035   0.000018  -0.000128  -0.000047   0.000022
    10  O    0.000000  -0.000000   0.000000  -0.000000   0.000000  -0.000000
    11  O   -0.000000   0.000000  -0.000000  -0.000000   0.000000   0.000000
    12  O   -0.000000  -0.000000  -0.000000  -0.000002  -0.000000   0.000000
    13  O    0.218433  -0.005075  -0.009729  -0.000000   0.000800   0.000001
    14  O   -0.012021  -0.010072   0.219486  -0.000005   0.017547  -0.000005
    15  O    0.008890   0.216935   0.004656  -0.000001  -0.002573   0.000000
    16  O   -0.000052   0.000000   0.000175  -0.000000  -0.000004   0.000115
    17  O    0.000650  -0.000002   0.018118   0.000004  -0.000403  -0.000432
    18  O    0.015036   0.000007  -0.000254  -0.000000   0.000005  -0.000007
    19  O   -0.000024   0.000001   0.000058   0.004603  -0.008575   0.224255
    20  O    0.000000  -0.000000   0.000189   0.229584   0.007651  -0.001493
    21  O   -0.000020   0.000040  -0.003977  -0.002113   0.206444  -0.007114
    22  H    0.000000  -0.000000  -0.000000  -0.000000   0.000000   0.000000
    23  H    0.000000  -0.000000  -0.000000   0.000000   0.000000   0.000000
    24  H    0.000000  -0.000000   0.000000   0.000000  -0.000000  -0.000000
    25  H    0.298807  -0.000013   0.000120   0.000000   0.000001   0.000000
    26  H   -0.000013   0.365881   0.000035   0.000000   0.000021  -0.000000
    27  H    0.000120   0.000035   0.283238  -0.000000  -0.001501   0.000010
    28  H    0.000000   0.000000  -0.000000   0.349046  -0.000017  -0.000016
    29  H    0.000001   0.000021  -0.001501  -0.000017   0.285998   0.000156
    30  H    0.000000  -0.000000   0.000010  -0.000016   0.000156   0.334170
    31  H   -0.000505   0.000000   0.000013  -0.000000   0.000000  -0.000000
    32  H   -0.000001   0.000000  -0.000000   0.000000  -0.000000  -0.000000
    33  H    0.000006  -0.000000  -0.002425  -0.000002   0.000097  -0.001156
              31         32         33
     1  Zr  -0.000580   0.002072  -0.015829
     2  O    0.000183  -0.000023   0.001007
     3  O   -0.000019   0.000041  -0.010104
     4  O   -0.018464   0.010349  -0.009402
     5  O   -0.000009   0.000001  -0.000107
     6  Si   0.063916   0.022891   0.052828
     7  Si   0.000157  -0.000640   0.020631
     8  Si  -0.001847   0.000048   0.000105
     9  Si  -0.000052   0.000026   0.000072
    10  O    0.000000  -0.000000  -0.000000
    11  O   -0.000000   0.000000   0.000000
    12  O    0.000000   0.000000   0.000000
    13  O    0.002374  -0.000008   0.000222
    14  O    0.000165  -0.000006   0.002064
    15  O   -0.000018   0.000000  -0.000034
    16  O    0.003798   0.233401  -0.000060
    17  O   -0.000772  -0.003646   0.231138
    18  O    0.218285   0.003888   0.002099
    19  O    0.000004   0.000100   0.014930
    20  O   -0.000000  -0.000000  -0.000096
    21  O   -0.000000   0.000001   0.001494
    22  H   -0.000000  -0.000000  -0.000000
    23  H   -0.000000  -0.000000  -0.000000
    24  H    0.000000  -0.000000  -0.000000
    25  H   -0.000505  -0.000001   0.000006
    26  H    0.000000   0.000000  -0.000000
    27  H    0.000013  -0.000000  -0.002425
    28  H   -0.000000   0.000000  -0.000002
    29  H    0.000000  -0.000000   0.000097
    30  H   -0.000000  -0.000000  -0.001156
    31  H    0.331381   0.000001  -0.000038
    32  H    0.000001   0.349939   0.000156
    33  H   -0.000038   0.000156   0.269214
 Mulliken charges:
               1
     1  Zr   0.015062
     2  O   -0.546465
     3  O   -0.418218
     4  O   -0.684483
     5  O   -0.374522
     6  Si   2.232121
     7  Si   1.790831
     8  Si   2.015213
     9  Si   1.592234
    10  O   -0.838985
    11  O   -0.787280
    12  O   -0.794282
    13  O   -0.842154
    14  O   -0.880207
    15  O   -0.877847
    16  O   -0.735313
    17  O   -0.968985
    18  O   -1.082973
    19  O   -0.987539
    20  O   -0.804848
    21  O   -0.828795
    22  H    0.384521
    23  H    0.372100
    24  H    0.366014
    25  H    0.414857
    26  H    0.378815
    27  H    0.429427
    28  H    0.375955
    29  H    0.447582
    30  H    0.411537
    31  H    0.402027
    32  H    0.381410
    33  H    0.443190
 Sum of Mulliken charges =  -0.00000
 Mulliken charges with hydrogens summed into heavy atoms:
               1
     1  Zr   0.015062
     2  O   -0.546465
     3  O   -0.418218
     4  O   -0.684483
     5  O   -0.374522
     6  Si   2.232121
     7  Si   1.790831
     8  Si   2.015213
     9  Si   1.592234
    10  O   -0.466885
    11  O   -0.421266
    12  O   -0.409761
    13  O   -0.427297
    14  O   -0.450780
    15  O   -0.499032
    16  O   -0.353904
    17  O   -0.525795
    18  O   -0.680947
    19  O   -0.576003
    20  O   -0.428893
    21  O   -0.381213
 Electronic spatial extent (au):  <R**2>=           9894.5278
 Charge=              0.0000 electrons
 Dipole moment (field-independent basis, Debye):
    X=              1.0303    Y=             -0.8241    Z=             -2.4219  Tot=              2.7580
 Quadrupole moment (field-independent basis, Debye-Ang):
   XX=           -160.1912   YY=           -155.0390   ZZ=           -157.8338
   XY=             -5.4132   XZ=              2.0271   YZ=              5.6473
 Traceless Quadrupole moment (field-independent basis, Debye-Ang):
   XX=             -2.5032   YY=              2.6490   ZZ=             -0.1458
   XY=             -5.4132   XZ=              2.0271   YZ=              5.6473
 Octapole moment (field-independent basis, Debye-Ang**2):
  XXX=             73.6057  YYY=              6.4778  ZZZ=            -18.5380  XYY=             -2.7071
  XXY=             21.4242  XXZ=             18.6694  XZZ=              5.1662  YZZ=            -16.9899
  YYZ=            -14.7627  XYZ=             29.0694
 Hexadecapole moment (field-independent basis, Debye-Ang**3):
 XXXX=          -6020.0718 YYYY=          -2846.4052 ZZZZ=          -2265.3404 XXXY=             57.4604
 XXXZ=             -8.7434 YYYX=             -2.9580 YYYZ=            226.3826 ZZZX=           -182.6790
 ZZZY=            -60.5525 XXYY=          -1496.9176 XXZZ=          -1366.8511 YYZZ=           -927.5416
 XXYZ=            -15.7944 YYXZ=            116.6426 ZZXY=            -60.9491
 N-N= 2.831115220161D+03 E-N=-1.137480268278D+04  KE= 2.373153120079D+03
 PrsmSu:  requested number of processors reduced to:   2 ShMem   1 Linda.
 PrsmSu:  requested number of processors reduced to:  10 ShMem   1 Linda.
   1 Symmetry operations used in ECPInt.
 ECPInt:  NShTT=   13203 NPrTT=   78401 LenC2=   11525 LenP2D=   44616.
 LDataN:  DoStor=T MaxTD1= 9 Len=  602
 Number of processors reduced to  14 by ecpmxn.
 Calling FoFJK, ICntrl=      2127 FMM=F ISym2X=0 I1Cent= 0 IOpClX= 0 NMat=1 NMatS=1 NMatT=0.
 CoulSu:  requested number of processors reduced to:  10 ShMem   1 Linda.
 Defaulting to unpruned grid for atomic number  40.
 Defaulting to unpruned grid for atomic number  40.
 Defaulting to unpruned grid for atomic number  40.
 Defaulting to unpruned grid for atomic number  40.
 Defaulting to unpruned grid for atomic number  40.
 Defaulting to unpruned grid for atomic number  40.
 Defaulting to unpruned grid for atomic number  40.
 Defaulting to unpruned grid for atomic number  40.
 Defaulting to unpruned grid for atomic number  40.
 Defaulting to unpruned grid for atomic number  40.
 Defaulting to unpruned grid for atomic number  40.
 Defaulting to unpruned grid for atomic number  40.
 Defaulting to unpruned grid for atomic number  40.
 Defaulting to unpruned grid for atomic number  40.
 Defaulting to unpruned grid for atomic number  40.
 Defaulting to unpruned grid for atomic number  40.
 ***** Axes restored to original set *****
 -------------------------------------------------------------------
 Center     Atomic                   Forces (Hartrees/Bohr)
 Number     Number              X              Y              Z
 -------------------------------------------------------------------
      1       40           0.000514011   -0.000162201   -0.000017513
      2        8           0.000026388    0.000003118   -0.000062250
      3        8          -0.000017626    0.000151077    0.000000130
      4        8           0.000049654   -0.000006298    0.000077357
      5        8          -0.000361590   -0.000273269   -0.000098326
      6       14          -0.000078563    0.000014316   -0.000030507
      7       14          -0.000010090    0.000016343   -0.000019852
      8       14          -0.000066479   -0.000000583    0.000054081
      9       14          -0.000218649    0.000697055    0.000204754
     10        8          -0.000001405   -0.000090480   -0.000052117
     11        8          -0.000004855   -0.000163690   -0.000024126
     12        8           0.000015915   -0.000158409   -0.000061618
     13        8           0.000018593    0.000005691   -0.000005194
     14        8           0.000046325   -0.000034960   -0.000005387
     15        8           0.000009976   -0.000007449   -0.000032520
     16        8           0.000016017   -0.000004294    0.000014155
     17        8           0.000028530   -0.000013110   -0.000005185
     18        8           0.000012234    0.000004933    0.000009502
     19        8           0.000007690   -0.000005036    0.000009634
     20        8           0.000010261   -0.000014761    0.000010604
     21        8           0.000002200   -0.000001139    0.000003618
     22        1           0.000000012   -0.000047483   -0.000023882
     23        1           0.000010998    0.000002086    0.000005181
     24        1           0.000031713    0.000028955    0.000045364
     25        1          -0.000005322    0.000002714   -0.000003175
     26        1          -0.000002715    0.000005027    0.000007976
     27        1          -0.000000306    0.000013403   -0.000010849
     28        1          -0.000003887    0.000011993   -0.000001114
     29        1          -0.000027448    0.000019250    0.000017882
     30        1           0.000000524    0.000002182   -0.000002336
     31        1          -0.000002749   -0.000005879   -0.000004289
     32        1          -0.000007159    0.000003819   -0.000005648
     33        1           0.000007804    0.000007077    0.000005649
 -------------------------------------------------------------------
 Cartesian Forces:  Max     0.000697055 RMS     0.000110884

 GradGradGradGradGradGradGradGradGradGradGradGradGradGradGradGradGradGrad
 Berny optimization.
 FormGI is forming the generalized inverse of G from B-inverse, IUseBI=4.
 Internal  Forces:  Max     0.000519447 RMS     0.000072562
 Search for a local minimum.
 Step number   1 out of a maximum of  153
 All quantities printed in internal units (Hartrees-Bohrs-Radians)
 Mixed Optimization -- En-DIIS/RFO-DIIS
 Second derivative matrix not updated -- first step.
 ITU=  0
     Eigenvalues ---    0.00230   0.00230   0.00230   0.02263   0.03240
     Eigenvalues ---    0.03358   0.03498   0.03580   0.03665   0.03665
     Eigenvalues ---    0.03680   0.03686   0.03693   0.03739   0.03789
     Eigenvalues ---    0.03792   0.03816   0.03834   0.03850   0.05882
     Eigenvalues ---    0.06818   0.07091   0.11077   0.11224   0.11833
     Eigenvalues ---    0.11884   0.12177   0.12218   0.12239   0.12725
     Eigenvalues ---    0.12895   0.13099   0.13313   0.16000   0.16000
     Eigenvalues ---    0.16000   0.16000   0.16000   0.16000   0.16000
     Eigenvalues ---    0.16000   0.16000   0.16000   0.16000   0.16000
     Eigenvalues ---    0.18226   0.18803   0.19173   0.19742   0.20203
     Eigenvalues ---    0.20203   0.20208   0.20515   0.20653   0.20795
     Eigenvalues ---    0.20797   0.20989   0.21175   0.21186   0.25000
     Eigenvalues ---    0.25000   0.25000   0.38002   0.39187   0.40659
     Eigenvalues ---    0.41546   0.42502   0.42509   0.42670   0.42743
     Eigenvalues ---    0.42824   0.43363   0.43951   0.43980   0.44273
     Eigenvalues ---    0.44485   0.44689   0.44760   0.50655   0.51353
     Eigenvalues ---    0.52036   0.52548   0.54334   0.54624   0.54641
     Eigenvalues ---    0.54649   0.54689   0.54692   0.54713   0.54765
     Eigenvalues --- 1000.000001000.000001000.000001000.000001000.00000
     Eigenvalues --- 1000.000001000.000001000.000001000.000001000.00000
     Eigenvalues --- 1000.000001000.000001000.000001000.000001000.00000
     Eigenvalues --- 1000.000001000.000001000.000001000.000001000.00000
     Eigenvalues --- 1000.000001000.000001000.000001000.000001000.00000
     Eigenvalues --- 1000.000001000.000001000.000001000.000001000.00000
     Eigenvalues --- 1000.000001000.000001000.000001000.000001000.00000
     Eigenvalues --- 1000.000001000.000001000.000001000.000001000.00000
     Eigenvalues --- 1000.000001000.000001000.000001000.000001000.00000
     Eigenvalues --- 1000.000001000.000001000.000001000.000001000.00000
     Eigenvalues --- 1000.000001000.000001000.00000
 RFO step:  Lambda=-3.22522698D-06 EMin= 2.30000000D-03
 Linear search not attempted -- first point.
 Iteration  1 RMS(Cart)=  0.00466087 RMS(Int)=  0.00000636
 Iteration  2 RMS(Cart)=  0.00001100 RMS(Int)=  0.00000008
 Iteration  3 RMS(Cart)=  0.00000000 RMS(Int)=  0.00000008
 Iteration  1 RMS(Cart)=  0.00000003 RMS(Int)=  0.00000000
 Variable       Old X    -DE/DX   Delta X   Delta X   Delta X     New X
                                 (Linear)    (Quad)   (Total)
    R1        3.67647  -0.00005   0.00000  -0.00025  -0.00025   3.67622
    R2        3.69189   0.00018   0.00000   0.00089   0.00089   3.69278
    R3        3.73835  -0.00006   0.00000  -0.00031  -0.00031   3.73804
    R4        3.70232  -0.00052   0.00000  -0.00258  -0.00258   3.69974
    R5        3.11688   0.00000   0.00000   0.00001   0.00001   3.11688
    R6        3.09579   0.00004   0.00000   0.00008   0.00008   3.09587
    R7        3.10213   0.00002   0.00000   0.00006   0.00006   3.10219
    R8        3.09246  -0.00015   0.00000  -0.00033  -0.00033   3.09212
    R9        3.11587  -0.00001   0.00000  -0.00002  -0.00002   3.11585
   R10        3.11989  -0.00003   0.00000  -0.00006  -0.00006   3.11983
   R11        3.14367  -0.00000   0.00000  -0.00000  -0.00000   3.14367
   R12        3.18062  -0.00001   0.00000  -0.00003  -0.00003   3.18060
   R13        3.10924  -0.00000   0.00000  -0.00001  -0.00001   3.10924
   R14        3.09339   0.00003   0.00000   0.00007   0.00007   3.09346
   R15        3.10179  -0.00001   0.00000  -0.00002  -0.00002   3.10177
   R16        3.16373  -0.00004   0.00000  -0.00010  -0.00010   3.16364
   R17        3.09830  -0.00002   0.00000  -0.00005  -0.00005   3.09824
   R18        3.11980   0.00004   0.00000   0.00010   0.00010   3.11990
   R19        3.13205   0.00013   0.00000   0.00031   0.00031   3.13237
   R20        3.11779  -0.00021   0.00000  -0.00050  -0.00050   3.11729
   R21        1.82153  -0.00000   0.00000  -0.00000  -0.00000   1.82152
   R22        1.82107   0.00001   0.00000   0.00002   0.00002   1.82109
   R23        1.82088  -0.00002   0.00000  -0.00003  -0.00003   1.82085
   R24        1.84078   0.00000   0.00000   0.00001   0.00001   1.84079
   R25        1.84565   0.00001   0.00000   0.00002   0.00002   1.84566
   R26        1.82041   0.00001   0.00000   0.00001   0.00001   1.82042
   R27        1.82109  -0.00000   0.00000  -0.00000  -0.00000   1.82109
   R28        1.85910   0.00001   0.00000   0.00001   0.00001   1.85912
   R29        1.82145   0.00001   0.00000   0.00001   0.00001   1.82147
   R30        1.82428   0.00000   0.00000   0.00000   0.00000   1.82429
   R31        1.82168   0.00001   0.00000   0.00001   0.00001   1.82169
   R32        1.85224  -0.00000   0.00000  -0.00001  -0.00001   1.85223
    A1        1.85172   0.00008   0.00000   0.00048   0.00048   1.85221
    A2        1.80155  -0.00011   0.00000  -0.00033  -0.00033   1.80123
    A3        1.96889   0.00000   0.00000   0.00010   0.00010   1.96899
    A4        1.83430   0.00005   0.00000   0.00002   0.00002   1.83432
    A5        2.01802  -0.00006   0.00000  -0.00032  -0.00032   2.01770
    A6        1.97057   0.00003   0.00000   0.00006   0.00006   1.97063
    A7        2.46524  -0.00003   0.00000  -0.00013  -0.00013   2.46511
    A8        2.58826   0.00011   0.00000   0.00044   0.00044   2.58870
    A9        2.35483  -0.00005   0.00000  -0.00020  -0.00020   2.35463
[...]
     4  O   -0.112969  -0.042879   0.017008   8.817995  -0.057525  -0.693311
     5  O   -0.196010  -0.059511  -0.046360  -0.057525   9.460166  -0.010057
     6  Si  -0.589287   0.086860  -0.002422  -0.693311  -0.010057  14.016879
     7  Si  -0.596331  -0.029585  -0.883668  -0.008655  -0.036182   0.080306
     8  Si  -0.576096  -1.010961  -0.016966   0.065957  -0.017666  -0.014871
     9  Si  -0.294875  -0.044526  -0.036515  -0.037424  -1.244756   0.034431
    10  O   -0.011740   0.001181  -0.001500   0.001215   0.132142  -0.002117
    11  O   -0.054415   0.003350   0.002886   0.001091   0.305097  -0.000974
    12  O    0.036611   0.000098   0.004382   0.002121   0.152931  -0.002807
    13  O   -0.037633   0.184680   0.001729  -0.015881  -0.000499   0.037474
    14  O   -0.012046   0.266293  -0.016975  -0.008243   0.002429   0.026743
    15  O   -0.083033   0.294438  -0.000754   0.001281   0.000546  -0.000523
    16  O   -0.127565   0.004687  -0.000522   0.344862   0.003249  -0.419811
    17  O   -0.063941  -0.040133   0.008572   0.220300   0.001588  -0.466703
    18  O   -0.021115  -0.014405   0.003791   0.197252  -0.000492  -0.454487
    19  O    0.001448   0.008951   0.263060   0.009700   0.002213  -0.006365
    20  O   -0.147969  -0.000562   0.168526  -0.000865   0.001732   0.008928
    21  O    0.034414   0.010242   0.144275   0.003305   0.000153  -0.010628
    22  H   -0.007542  -0.000017  -0.000020  -0.000009   0.006128   0.000069
    23  H   -0.008220  -0.000013  -0.000004  -0.000051  -0.025304   0.000080
    24  H   -0.005124  -0.000216  -0.000015   0.000004  -0.006235   0.000084
    25  H    0.017368  -0.020022  -0.000114  -0.000228   0.000015   0.002169
    26  H    0.006781   0.000572   0.000015  -0.000012  -0.000004  -0.000097
    27  H    0.001199  -0.019120   0.000781  -0.001777   0.000005   0.009891
    28  H    0.005241  -0.000011  -0.018566  -0.000014  -0.000016  -0.000274
    29  H    0.004355  -0.007080  -0.020349  -0.000148  -0.000080   0.000184
    30  H    0.000852  -0.000013   0.000043  -0.000450  -0.000009  -0.000680
    31  H   -0.000525   0.000182  -0.000019  -0.018478  -0.000009   0.063911
    32  H    0.002065  -0.000023   0.000041   0.010285   0.000001   0.022946
    33  H   -0.015703   0.000996  -0.010097  -0.009407  -0.000108   0.052780
               7          8          9         10         11         12
     1  Zr  -0.596331  -0.576096  -0.294875  -0.011740  -0.054415   0.036611
     2  O   -0.029585  -1.010961  -0.044526   0.001181   0.003350   0.000098
     3  O   -0.883668  -0.016966  -0.036515  -0.001500   0.002886   0.004382
     4  O   -0.008655   0.065957  -0.037424   0.001215   0.001091   0.002121
     5  O   -0.036182  -0.017666  -1.244756   0.132142   0.305097   0.152931
     6  Si   0.080306  -0.014871   0.034431  -0.002117  -0.000974  -0.002807
     7  Si  13.800080   0.179411   0.018987  -0.000437  -0.001057   0.003706
     8  Si   0.179411  13.822376   0.024567  -0.000954   0.000958  -0.000733
     9  Si   0.018987   0.024567  14.272843  -0.082095  -0.172606  -0.192857
    10  O   -0.000437  -0.000954  -0.082095   8.525055   0.022637   0.026587
    11  O   -0.001057   0.000958  -0.172606   0.022637   8.498205  -0.050778
    12  O    0.003706  -0.000733  -0.192857   0.026587  -0.050778   8.594793
    13  O    0.007474  -0.094720   0.000349   0.000000   0.000021   0.000006
    14  O    0.006915  -0.375707  -0.001633  -0.000002   0.000000   0.000013
    15  O   -0.002805  -0.306721  -0.000788  -0.000000  -0.000023  -0.000010
    16  O    0.003987  -0.010102  -0.000913   0.000003  -0.000002  -0.000002
    17  O   -0.003493   0.092696   0.002132  -0.000002   0.000002  -0.000005
    18  O   -0.000662   0.073687   0.004152  -0.000003   0.000000  -0.000001
    19  O   -0.406741  -0.015271   0.001055   0.000006  -0.000002  -0.000019
    20  O   -0.114029   0.009599   0.002959   0.000002  -0.000003  -0.000026
    21  O    0.026718  -0.038708  -0.001576   0.000001   0.000000   0.000018
    22  H   -0.000156   0.000072   0.045417  -0.006811  -0.005103   0.220275
    23  H    0.000064   0.000067   0.082523   0.228257  -0.006485   0.005892
    24  H    0.000052  -0.000102   0.036963   0.007305   0.244156  -0.007639
    25  H   -0.000479   0.057474  -0.000226   0.000000  -0.000000  -0.000000
    26  H   -0.000366   0.046598  -0.000035  -0.000000   0.000000  -0.000000
    27  H    0.001807   0.069675   0.000017   0.000000  -0.000000  -0.000000
    28  H    0.056816  -0.000076  -0.000128  -0.000000  -0.000000  -0.000002
    29  H    0.048079   0.021779  -0.000047   0.000000   0.000000  -0.000000
    30  H    0.040177   0.000076   0.000022  -0.000000   0.000000   0.000000
    31  H    0.000156  -0.001846  -0.000052   0.000000  -0.000000   0.000000
    32  H   -0.000641   0.000050   0.000026  -0.000000   0.000000   0.000000
    33  H    0.020580   0.000079   0.000072  -0.000000   0.000000   0.000000
              13         14         15         16         17         18
     1  Zr  -0.037633  -0.012046  -0.083033  -0.127565  -0.063941  -0.021115
     2  O    0.184680   0.266293   0.294438   0.004687  -0.040133  -0.014405
     3  O    0.001729  -0.016975  -0.000754  -0.000522   0.008572   0.003791
     4  O   -0.015881  -0.008243   0.001281   0.344862   0.220300   0.197252
     5  O   -0.000499   0.002429   0.000546   0.003249   0.001588  -0.000492
     6  Si   0.037474   0.026743  -0.000523  -0.419811  -0.466703  -0.454487
     7  Si   0.007474   0.006915  -0.002805   0.003987  -0.003493  -0.000662
     8  Si  -0.094720  -0.375707  -0.306721  -0.010102   0.092696   0.073687
     9  Si   0.000349  -0.001633  -0.000788  -0.000913   0.002132   0.004152
    10  O    0.000000  -0.000002  -0.000000   0.000003  -0.000002  -0.000003
    11  O    0.000021   0.000000  -0.000023  -0.000002   0.000002   0.000000
    12  O    0.000006   0.000013  -0.000010  -0.000002  -0.000005  -0.000001
    13  O    8.628199   0.087233  -0.090422   0.003736  -0.030875  -0.045615
    14  O    0.087233   8.676854   0.055723   0.003726  -0.035891  -0.026742
    15  O   -0.090422   0.055723   8.778649  -0.000176   0.003576   0.001691
    16  O    0.003736   0.003726  -0.000176   8.900943  -0.091471  -0.115040
    17  O   -0.030875  -0.035891   0.003576  -0.091471   8.936481   0.227857
    18  O   -0.045615  -0.026742   0.001691  -0.115040   0.227857   9.013423
    19  O    0.000168  -0.000449   0.000140  -0.001560  -0.030356   0.000150
    20  O    0.000008  -0.000150   0.000040   0.000068  -0.000930   0.000013
    21  O   -0.000268   0.015864  -0.000612  -0.000216  -0.005478   0.000479
    22  H   -0.000000  -0.000000  -0.000000   0.000000   0.000000  -0.000000
    23  H    0.000000   0.000000  -0.000000  -0.000000   0.000000  -0.000000
    24  H   -0.000000   0.000000   0.000002   0.000000  -0.000000  -0.000000
    25  H    0.218318  -0.012012   0.008906  -0.000051   0.000648   0.015010
    26  H   -0.005070  -0.010079   0.216905   0.000000  -0.000002   0.000007
    27  H   -0.009730   0.219339   0.004641   0.000178   0.018141  -0.000252
    28  H   -0.000000  -0.000005  -0.000001  -0.000000   0.000004  -0.000000
    29  H    0.000800   0.017558  -0.002572  -0.000004  -0.000406   0.000005
    30  H    0.000001  -0.000005   0.000000   0.000115  -0.000435  -0.000007
    31  H    0.002371   0.000166  -0.000018   0.003791  -0.000789   0.218247
    32  H   -0.000008  -0.000006   0.000000   0.233441  -0.003677   0.003926
    33  H    0.000221   0.002060  -0.000034  -0.000060   0.231220   0.002105
              19         20         21         22         23         24
     1  Zr   0.001448  -0.147969   0.034414  -0.007542  -0.008220  -0.005124
     2  O    0.008951  -0.000562   0.010242  -0.000017  -0.000013  -0.000216
     3  O    0.263060   0.168526   0.144275  -0.000020  -0.000004  -0.000015
     4  O    0.009700  -0.000865   0.003305  -0.000009  -0.000051   0.000004
     5  O    0.002213   0.001732   0.000153   0.006128  -0.025304  -0.006235
     6  Si  -0.006365   0.008928  -0.010628   0.000069   0.000080   0.000084
     7  Si  -0.406741  -0.114029   0.026718  -0.000156   0.000064   0.000052
     8  Si  -0.015271   0.009599  -0.038708   0.000072   0.000067  -0.000102
     9  Si   0.001055   0.002959  -0.001576   0.045417   0.082523   0.036963
    10  O    0.000006   0.000002   0.000001  -0.006811   0.228257   0.007305
    11  O   -0.000002  -0.000003   0.000000  -0.005103  -0.006485   0.244156
    12  O   -0.000019  -0.000026   0.000018   0.220275   0.005892  -0.007639
    13  O    0.000168   0.000008  -0.000268  -0.000000   0.000000  -0.000000
    14  O   -0.000449  -0.000150   0.015864  -0.000000   0.000000   0.000000
    15  O    0.000140   0.000040  -0.000612  -0.000000  -0.000000   0.000002
    16  O   -0.001560   0.000068  -0.000216   0.000000  -0.000000   0.000000
    17  O   -0.030356  -0.000930  -0.005478   0.000000   0.000000  -0.000000
    18  O    0.000150   0.000013   0.000479  -0.000000  -0.000000  -0.000000
    19  O    8.871017   0.032417   0.022513  -0.000000   0.000000  -0.000000
    20  O    0.032417   8.659463  -0.050064   0.000000   0.000000  -0.000000
    21  O    0.022513  -0.050064   8.483718  -0.000000   0.000000   0.000000
    22  H   -0.000000   0.000000  -0.000000   0.362927   0.000062   0.000129
    23  H    0.000000   0.000000   0.000000   0.000062   0.350815   0.000012
    24  H   -0.000000  -0.000000   0.000000   0.000129   0.000012   0.364888
    25  H   -0.000024   0.000000  -0.000020   0.000000   0.000000   0.000000
    26  H    0.000001  -0.000000   0.000041  -0.000000  -0.000000  -0.000000
    27  H    0.000060   0.000190  -0.004002  -0.000000  -0.000000   0.000000
    28  H    0.004574   0.229523  -0.002079  -0.000000   0.000000   0.000000
    29  H   -0.008580   0.007657   0.206482   0.000000   0.000000  -0.000000
    30  H    0.224229  -0.001480  -0.007133   0.000000   0.000000  -0.000000
    31  H    0.000004  -0.000000  -0.000000  -0.000000  -0.000000   0.000000
    32  H    0.000100  -0.000000   0.000001  -0.000000  -0.000000  -0.000000
    33  H    0.014935  -0.000093   0.001491  -0.000000  -0.000000  -0.000000
              25         26         27         28         29         30
     1  Zr   0.017368   0.006781   0.001199   0.005241   0.004355   0.000852
     2  O   -0.020022   0.000572  -0.019120  -0.000011  -0.007080  -0.000013
     3  O   -0.000114   0.000015   0.000781  -0.018566  -0.020349   0.000043
     4  O   -0.000228  -0.000012  -0.001777  -0.000014  -0.000148  -0.000450
     5  O    0.000015  -0.000004   0.000005  -0.000016  -0.000080  -0.000009
     6  Si   0.002169  -0.000097   0.009891  -0.000274   0.000184  -0.000680
     7  Si  -0.000479  -0.000366   0.001807   0.056816   0.048079   0.040177
     8  Si   0.057474   0.046598   0.069675  -0.000076   0.021779   0.000076
     9  Si  -0.000226  -0.000035   0.000017  -0.000128  -0.000047   0.000022
    10  O    0.000000  -0.000000   0.000000  -0.000000   0.000000  -0.000000
    11  O   -0.000000   0.000000  -0.000000  -0.000000   0.000000   0.000000
    12  O   -0.000000  -0.000000  -0.000000  -0.000002  -0.000000   0.000000
    13  O    0.218318  -0.005070  -0.009730  -0.000000   0.000800   0.000001
    14  O   -0.012012  -0.010079   0.219339  -0.000005   0.017558  -0.000005
    15  O    0.008906   0.216905   0.004641  -0.000001  -0.002572   0.000000
    16  O   -0.000051   0.000000   0.000178  -0.000000  -0.000004   0.000115
    17  O    0.000648  -0.000002   0.018141   0.000004  -0.000406  -0.000435
    18  O    0.015010   0.000007  -0.000252  -0.000000   0.000005  -0.000007
    19  O   -0.000024   0.000001   0.000060   0.004574  -0.008580   0.224229
    20  O    0.000000  -0.000000   0.000190   0.229523   0.007657  -0.001480
    21  O   -0.000020   0.000041  -0.004002  -0.002079   0.206482  -0.007133
    22  H    0.000000  -0.000000  -0.000000  -0.000000   0.000000   0.000000
    23  H    0.000000  -0.000000  -0.000000   0.000000   0.000000   0.000000
    24  H    0.000000  -0.000000   0.000000   0.000000  -0.000000  -0.000000
    25  H    0.298876  -0.000013   0.000119   0.000000   0.000001   0.000000
    26  H   -0.000013   0.365905   0.000035   0.000000   0.000021  -0.000000
    27  H    0.000119   0.000035   0.283194  -0.000000  -0.001492   0.000010
    28  H    0.000000   0.000000  -0.000000   0.349082  -0.000016  -0.000016
    29  H    0.000001   0.000021  -0.001492  -0.000016   0.286014   0.000156
    30  H    0.000000  -0.000000   0.000010  -0.000016   0.000156   0.334261
    31  H   -0.000505   0.000000   0.000013  -0.000000   0.000000  -0.000000
    32  H   -0.000001   0.000000  -0.000000   0.000000  -0.000000  -0.000000
    33  H    0.000006  -0.000000  -0.002431  -0.000002   0.000096  -0.001157
              31         32         33
     1  Zr  -0.000525   0.002065  -0.015703
     2  O    0.000182  -0.000023   0.000996
     3  O   -0.000019   0.000041  -0.010097
     4  O   -0.018478   0.010285  -0.009407
     5  O   -0.000009   0.000001  -0.000108
     6  Si   0.063911   0.022946   0.052780
     7  Si   0.000156  -0.000641   0.020580
     8  Si  -0.001846   0.000050   0.000079
     9  Si  -0.000052   0.000026   0.000072
    10  O    0.000000  -0.000000  -0.000000
    11  O   -0.000000   0.000000   0.000000
    12  O    0.000000   0.000000   0.000000
    13  O    0.002371  -0.000008   0.000221
    14  O    0.000166  -0.000006   0.002060
    15  O   -0.000018   0.000000  -0.000034
    16  O    0.003791   0.233441  -0.000060
    17  O   -0.000789  -0.003677   0.231220
    18  O    0.218247   0.003926   0.002105
    19  O    0.000004   0.000100   0.014935
    20  O   -0.000000  -0.000000  -0.000093
    21  O   -0.000000   0.000001   0.001491
    22  H   -0.000000  -0.000000  -0.000000
    23  H   -0.000000  -0.000000  -0.000000
    24  H    0.000000  -0.000000  -0.000000
    25  H   -0.000505  -0.000001   0.000006
    26  H    0.000000   0.000000  -0.000000
    27  H    0.000013  -0.000000  -0.002431
    28  H   -0.000000   0.000000  -0.000002
    29  H    0.000000  -0.000000   0.000096
    30  H   -0.000000  -0.000000  -0.001157
    31  H    0.331379   0.000001  -0.000038
    32  H    0.000001   0.349961   0.000157
    33  H   -0.000038   0.000157   0.269043
 Mulliken charges:
               1
     1  Zr   0.013959
     2  O   -0.546994
     3  O   -0.417861
     4  O   -0.684049
     5  O   -0.367570
     6  Si   2.231681
     7  Si   1.789974
     8  Si   2.016382
     9  Si   1.584534
    10  O   -0.838728
    11  O   -0.786953
    12  O   -0.792554
    13  O   -0.842068
    14  O   -0.880970
    15  O   -0.878047
    16  O   -0.735290
    17  O   -0.968627
    18  O   -1.082974
    19  O   -0.987372
    20  O   -0.804955
    21  O   -0.828930
    22  H    0.384579
    23  H    0.372306
    24  H    0.365736
    25  H    0.414783
    26  H    0.378797
    27  H    0.429510
    28  H    0.375967
    29  H    0.447587
    30  H    0.411442
    31  H    0.402059
    32  H    0.381355
    33  H    0.443290
 Sum of Mulliken charges =  -0.00000
 Mulliken charges with hydrogens summed into heavy atoms:
               1
     1  Zr   0.013959
     2  O   -0.546994
     3  O   -0.417861
     4  O   -0.684049
     5  O   -0.367570
     6  Si   2.231681
     7  Si   1.789974
     8  Si   2.016382
     9  Si   1.584534
    10  O   -0.466421
    11  O   -0.421217
    12  O   -0.407975
    13  O   -0.427284
    14  O   -0.451461
    15  O   -0.499249
    16  O   -0.353935
    17  O   -0.525337
    18  O   -0.680915
    19  O   -0.575931
    20  O   -0.428988
    21  O   -0.381343
 Electronic spatial extent (au):  <R**2>=           9892.4948
 Charge=             -0.0000 electrons
 Dipole moment (field-independent basis, Debye):
    X=              1.0536    Y=             -0.8062    Z=             -2.3976  Tot=              2.7402
 Quadrupole moment (field-independent basis, Debye-Ang):
   XX=           -159.9205   YY=           -155.1274   ZZ=           -157.7870
   XY=             -5.3726   XZ=              2.1763   YZ=              5.6492
 Traceless Quadrupole moment (field-independent basis, Debye-Ang):
   XX=             -2.3088   YY=              2.4842   ZZ=             -0.1754
   XY=             -5.3726   XZ=              2.1763   YZ=              5.6492
 Octapole moment (field-independent basis, Debye-Ang**2):
  XXX=             75.2466  YYY=              6.6852  ZZZ=            -18.2919  XYY=             -3.0835
  XXY=             21.2838  XXZ=             19.4441  XZZ=              5.3519  YZZ=            -17.0195
  YYZ=            -14.9562  XYZ=             28.8006
 Hexadecapole moment (field-independent basis, Debye-Ang**3):
 XXXX=          -6007.4068 YYYY=          -2847.3540 ZZZZ=          -2265.4076 XXXY=             56.6996
 XXXZ=             -5.7478 YYYX=             -2.2696 YYYZ=            226.2905 ZZZX=           -181.3295
 ZZZY=            -60.2995 XXYY=          -1496.4143 XXZZ=          -1364.7997 YYZZ=           -927.7410
 XXYZ=            -16.2493 YYXZ=            117.0034 ZZXY=            -61.6234
 N-N= 2.831238871576D+03 E-N=-1.137505896475D+04  KE= 2.373155014374D+03
 1\1\GINC-GRA1031\FOpt\RB3LYP\Gen\H12O16Si4Zr1\SARASHS\12-Aug-2020\0\\#
 n B3LYP/Gen Pseudo=cards EmpiricalDispersion=GD3 Opt=modredundant\\Tit
 le\\0,1\Zr,0.6571059079,-0.1278409605,-0.0713042965\O,-0.22252751,-0.9
 097884972,1.4778809873\O,0.1034215028,1.7455471005,-0.1232405778\O,-0.
 2687464871,-0.9826071413,-1.5962617157\O,2.5904498323,-0.4366069416,-0
 .0830860353\Si,-1.8320852922,-1.3331091694,-1.9540224433\Si,-1.1138457
 003,2.841055618,-0.0824124345\Si,-1.7241783885,-1.1546268584,2.1148461
 146\Si,4.2234755084,-0.3625522901,-0.0128106046\O,4.9469299583,-0.2477
 818129,-1.4923762147\O,4.832098391,-1.7497599069,0.6603868498\O,4.5558
 404816,1.0084443938,0.8421125845\O,-2.3210237288,-2.6250555667,1.69556
 64734\O,-2.7226281156,0.0645513831,1.5497324528\O,-1.5985338021,-1.021
 3117467,3.7440934034\O,-2.0020206293,-1.5593538208,-3.5783701835\O,-2.
 8240108607,-0.1858197748,-1.3017194745\O,-2.3482586802,-2.7143739178,-
 1.1839615537\O,-2.0392510997,2.440229726,-1.4299729657\O,-0.632134098,
 4.3993708967,-0.2987101947\O,-1.9641250314,2.7610950301,1.3141841638\H
 ,5.465052782,1.3265161329,0.8167784549\H,5.2411378399,-1.0790470026,-1
 .8816839155\H,4.3990095178,-2.0844894852,1.453536168\H,-2.4086878275,-
 2.8098784715,0.7431922911\H,-2.3831890253,-1.224368092,4.2647386606\H,
 -3.0582223114,-0.0826819367,0.6443846209\H,-0.5257605178,4.9263644942,
 0.5014426813\H,-2.2684938142,1.8699240507,1.5858760162\H,-2.6474689467
 ,3.1276715616,-1.729031977\H,-2.3100678318,-3.5293580335,-1.6971858097
 \H,-1.2719262248,-1.2621518758,-4.132718088\H,-2.6084457987,0.75537291
 51,-1.4903334381\\Version=ES64L-G16RevB.01\State=1-A\HF=-2416.946842\R
 MSD=2.218e-09\RMSF=2.899e-05\Dipole=0.3993855,-0.326588,-0.9466222\Qua
 drupole=-1.9293121,2.0560273,-0.1267152,-3.862522,1.7410768,4.1794216\
 PG=C01 [X(H12O16Si4Zr1)]\\@


 I MET A TRAVELLER FROM AN ANTIQUE LAND
 WHO SAID... TWO VAST AND TRUNKLESS LEGS OF STONE
 STAND IN THE DESERT..... NEAR THEM,  ON THE SAND,
 HALF SUNK,  A SHATTERED VISAGE LIES,  WHOSE FROWN,
 AND WRINKLED LIP,  AND SNEER OF COLD COMMAND
 TELL THAT ITS SCULPTOR WELL THOSE PASSIONS READ
 WHICH YET SURVIVE,  STAMPED ON THESE LIFELESS THINGS
 THE HAND THAT MOCKED THEM,  AND THE HEART THAT FED-
 AND ON THE PEDESTAL THESE WORDS APPEAR 
 MY NAME IS OZYMANDIAS, KING OF KINGS--   
 LOOK ON MY WORKS YE MIGHTY AND DESPAIR. 
 NOTHING BESIDE REMAINS,  ROUND THE DECAY 
 OF THAT COLOSSAL WRECK,  BOUNDLESS AND BARE
 THE LONE AND LEVEL SANDS STRETCH FAR AWAY.
                                    SHELLEY
 Job cpu time:       0 days 13 hours 46 minutes 19.4 seconds.
 Elapsed time:       0 days  1 hours  1 minutes 52.0 seconds.
 File lengths (MBytes):  RWF=    167 Int=      0 D2E=      0 Chk=     21 Scr=      1
 Normal termination of Gaussian 16 at Wed Aug 12 20:44:55 2020.
