 Entering Gaussian System, Link 0=g16
 Initial command:
 /opt/software/gaussian/g16.b01/l1.exe "/localscratch/sarashs.37192509.0/Gau-2051.inp" -scrdir="/localscratch/sarashs.37192509.0/"
 Entering Link 1 = /opt/software/gaussian/g16.b01/l1.exe PID=      2054.
  
 Copyright (c) 1988-2017, Gaussian, Inc.  All Rights Reserved.
  
 This is part of the Gaussian(R) 16 program.  It is based on
 the Gaussian(R) 09 system (copyright 2009, Gaussian, Inc.),
 the Gaussian(R) 03 system (copyright 2003, Gaussian, Inc.),
 the Gaussian(R) 98 system (copyright 1998, Gaussian, Inc.),
 the Gaussian(R) 94 system (copyright 1995, Gaussian, Inc.),
 the Gaussian 92(TM) system (copyright 1992, Gaussian, Inc.),
 the Gaussian 90(TM) system (copyright 1990, Gaussian, Inc.),
 the Gaussian 88(TM) system (copyright 1988, Gaussian, Inc.),
 the Gaussian 86(TM) system (copyright 1986, Carnegie Mellon
 University), and the Gaussian 82(TM) system (copyright 1983,
 Carnegie Mellon University). Gaussian is a federally registered
 trademark of Gaussian, Inc.
  
 This software contains proprietary and confidential information,
 including trade secrets, belonging to Gaussian, Inc.
  
 This software is provided under written license and may be
 used, copied, transmitted, or stored only in accord with that
 written license.
  
 The following legend is applicable only to US Government
 contracts under FAR:
  
                    RESTRICTED RIGHTS LEGEND
  
 Use, reproduction and disclosure by the US Government is
 subject to restrictions as set forth in subparagraphs (a)
 and (c) of the Commercial Computer Software - Restricted
 Rights clause in FAR 52.227-19.
  
 Gaussian, Inc.
 340 Quinnipiac St., Bldg. 40, Wallingford CT 06492
  
  
 ---------------------------------------------------------------
 Warning -- This program may not be used in any manner that
 competes with the business of Gaussian, Inc. or will provide
 assistance to any competitor of Gaussian, Inc.  The licensee
 of this program is prohibited from giving any competitor of
 Gaussian, Inc. access to this program.  By using this program,
 the user acknowledges that Gaussian, Inc. is engaged in the
 business of creating and licensing software in the field of
 computational chemistry and represents and warrants to the
 licensee that it is not a competitor of Gaussian, Inc. and that
 it will not use this program in any manner prohibited above.
 ---------------------------------------------------------------
  

 Cite this work as:
 Gaussian 16, Revision B.01,
 M. J. Frisch, G. W. Trucks, H. B. Schlegel, G. E. Scuseria, 
 M. A. Robb, J. R. Cheeseman, G. Scalmani, V. Barone, 
 G. A. Petersson, H. Nakatsuji, X. Li, M. Caricato, A. V. Marenich, 
 J. Bloino, B. G. Janesko, R. Gomperts, B. Mennucci, H. P. Hratchian, 
 J. V. Ortiz, A. F. Izmaylov, J. L. Sonnenberg, D. Williams-Young, 
 F. Ding, F. Lipparini, F. Egidi, J. Goings, B. Peng, A. Petrone, 
 T. Henderson, D. Ranasinghe, V. G. Zakrzewski, J. Gao, N. Rega, 
 G. Zheng, W. Liang, M. Hada, M. Ehara, K. Toyota, R. Fukuda, 
 J. Hasegawa, M. Ishida, T. Nakajima, Y. Honda, O. Kitao, H. Nakai, 
 T. Vreven, K. Throssell, J. A. Montgomery, Jr., J. E. Peralta, 
 F. Ogliaro, M. J. Bearpark, J. J. Heyd, E. N. Brothers, K. N. Kudin, 
 V. N. Staroverov, T. A. Keith, R. Kobayashi, J. Normand, 
 K. Raghavachari, A. P. Rendell, J. C. Burant, S. S. Iyengar, 
 J. Tomasi, M. Cossi, J. M. Millam, M. Klene, C. Adamo, R. Cammi, 
 J. W. Ochterski, R. L. Martin, K. Morokuma, O. Farkas, 
 J. B. Foresman, and D. J. Fox, Gaussian, Inc., Wallingford CT, 2016.
 
 ******************************************
 Gaussian 16:  ES64L-G16RevB.01 20-Dec-2017
                12-Aug-2020 
 ******************************************
 %NProcShared=16
 Will use up to   16 processors via shared memory.
 ------------------------------------------------------------------
 #n B3LYP/Gen Pseudo=cards EmpiricalDispersion=GD3 Opt=modredundant
 ------------------------------------------------------------------
 1/18=120,19=15,26=3,38=1/1,3;
 2/9=110,12=2,17=6,18=5,40=1/2;
 3/5=7,11=2,16=1,17=8,25=1,30=1,71=1,74=-5,124=31/1,2,3;
 4//1;
 5/5=2,38=5/2;
 6/7=2,8=2,9=2,10=2,28=1/1;
 7//1,2,3,16;
 1/18=20,19=15,26=3/3(2);
 2/9=110/2;
 99//99;
 2/9=110/2;
 3/5=7,6=1,11=2,16=1,17=8,25=1,30=1,71=1,74=-5,82=7,124=31/1,2,3;
 4/5=5,16=3,69=1/1;
 5/5=2,38=5/2;
 7//1,2,3,16;
 1/18=20,19=15,26=3/3(-5);
 2/9=110/2;
 6/7=2,8=2,9=2,10=2,19=2,28=1/1;
 99/9=1/99;
 -----
 Title
 -----
 Symbolic Z-matrix:
 Charge =  0 Multiplicity = 1
 Zr                    0.65779  -0.12506  -0.07164 
 O                    -0.22285  -0.90624   1.4773 
 O                     0.10302   1.74748  -0.12299 
 O                    -0.2683   -0.97885  -1.59705 
 O                     2.59206  -0.4363   -0.08284 
 Si                   -1.83119  -1.33244  -1.9536 
 Si                   -1.1155    2.84172  -0.08279 
 Si                   -1.72376  -1.15291   2.11517 
 Si                    4.21562  -0.64133  -0.07875 
 O                     4.89122  -0.63408  -1.5851 
 O                     4.60526  -2.11783   0.56555 
 O                     4.80811   0.64625   0.76573 
 O                    -2.31924  -2.624     1.69627 
 O                    -2.72422   0.06508   1.55086 
 O                    -1.59734  -1.01957   3.74439 
 O                    -2.00144  -1.55965  -3.57782 
 O                    -2.82509  -0.18676  -1.30145 
 O                    -2.34448  -2.71439  -1.18277 
 O                    -2.04046   2.43957  -1.43023 
 O                    -0.63565   4.40049  -0.29987 
 O                    -1.96551   2.76086   1.31383 
 H                     5.75614   0.80757   0.70507 
 H                     5.02151  -1.49844  -1.99134 
 H                     4.13925  -2.38938   1.36414 
 H                    -2.40577  -2.80951   0.74392 
 H                    -2.38137  -1.22423   4.26535 
 H                    -3.06034  -0.08306   0.64589 
 H                    -0.52731   4.92728   0.50015 
 H                    -2.26909   1.86932   1.58533 
 H                    -2.64854   3.12676  -1.73014 
 H                    -2.30452  -3.52952  -1.69562 
 H                    -1.27114  -1.26305  -4.13223 
 H                    -2.61026   0.75461  -1.48993 
 
 The following ModRedundant input section has been read:
 A       1       5       9 F                                                   
 D       1       5       9      12 F                                           
 D       3       1       5       9 F                                           
 

 GradGradGradGradGradGradGradGradGradGradGradGradGradGradGradGradGradGrad
 Berny optimization.
 Initialization pass.
                           ----------------------------
                           !    Initial Parameters    !
                           ! (Angstroms and Degrees)  !
 --------------------------                            --------------------------
 ! Name  Definition              Value          Derivative Info.                !
 --------------------------------------------------------------------------------
 ! R1    R(1,2)                  1.9455         estimate D2E/DX2                !
 ! R2    R(1,3)                  1.9537         estimate D2E/DX2                !
 ! R3    R(1,4)                  1.9783         estimate D2E/DX2                !
 ! R4    R(1,5)                  1.9592         estimate D2E/DX2                !
 ! R5    R(2,8)                  1.6494         estimate D2E/DX2                !
 ! R6    R(3,7)                  1.6382         estimate D2E/DX2                !
 ! R7    R(4,6)                  1.6416         estimate D2E/DX2                !
 ! R8    R(5,9)                  1.6365         estimate D2E/DX2                !
 ! R9    R(6,16)                 1.6488         estimate D2E/DX2                !
 ! R10   R(6,17)                 1.651          estimate D2E/DX2                !
 ! R11   R(6,18)                 1.6636         estimate D2E/DX2                !
 ! R12   R(7,19)                 1.6831         estimate D2E/DX2                !
 ! R13   R(7,20)                 1.6453         estimate D2E/DX2                !
 ! R14   R(7,21)                 1.6369         estimate D2E/DX2                !
 ! R15   R(8,13)                 1.6414         estimate D2E/DX2                !
 ! R16   R(8,14)                 1.6742         estimate D2E/DX2                !
 ! R17   R(8,15)                 1.6395         estimate D2E/DX2                !
 ! R18   R(9,10)                 1.6509         estimate D2E/DX2                !
 ! R19   R(9,11)                 1.6574         estimate D2E/DX2                !
 ! R20   R(9,12)                 1.6499         estimate D2E/DX2                !
 ! R21   R(10,23)                0.9639         estimate D2E/DX2                !
 ! R22   R(11,24)                0.9637         estimate D2E/DX2                !
 ! R23   R(12,22)                0.9636         estimate D2E/DX2                !
 ! R24   R(13,25)                0.9741         estimate D2E/DX2                !
 ! R25   R(14,27)                0.9767         estimate D2E/DX2                !
 ! R26   R(15,26)                0.9633         estimate D2E/DX2                !
 ! R27   R(16,32)                0.9637         estimate D2E/DX2                !
 ! R28   R(17,33)                0.9838         estimate D2E/DX2                !
 ! R29   R(18,31)                0.9639         estimate D2E/DX2                !
 ! R30   R(19,30)                0.9654         estimate D2E/DX2                !
 ! R31   R(20,28)                0.964          estimate D2E/DX2                !
 ! R32   R(21,29)                0.9802         estimate D2E/DX2                !
 ! A1    A(2,1,3)              106.0959         estimate D2E/DX2                !
 ! A2    A(2,1,4)              103.2214         estimate D2E/DX2                !
 ! A3    A(2,1,5)              112.8091         estimate D2E/DX2                !
 ! A4    A(3,1,4)              105.0977         estimate D2E/DX2                !
 ! A5    A(3,1,5)              115.6243         estimate D2E/DX2                !
 ! A6    A(4,1,5)              112.9055         estimate D2E/DX2                !
 ! A7    A(1,2,8)              141.2479         estimate D2E/DX2                !
 ! A8    A(1,3,7)              148.2962         estimate D2E/DX2                !
 ! A9    A(1,4,6)              134.9216         estimate D2E/DX2                !
 ! A10   A(1,5,9)              178.0003         Frozen                          !
 ! A11   A(4,6,16)             109.9952         estimate D2E/DX2                !
 ! A12   A(4,6,17)             109.7479         estimate D2E/DX2                !
 ! A13   A(4,6,18)             111.8422         estimate D2E/DX2                !
 ! A14   A(16,6,17)            114.9972         estimate D2E/DX2                !
 ! A15   A(16,6,18)            108.0658         estimate D2E/DX2                !
 ! A16   A(17,6,18)            101.9869         estimate D2E/DX2                !
 ! A17   A(3,7,19)             103.269          estimate D2E/DX2                !
 ! A18   A(3,7,20)             114.3706         estimate D2E/DX2                !
 ! A19   A(3,7,21)             111.9733         estimate D2E/DX2                !
 ! A20   A(19,7,20)            106.3205         estimate D2E/DX2                !
 ! A21   A(19,7,21)            112.6973         estimate D2E/DX2                !
 ! A22   A(20,7,21)            108.1076         estimate D2E/DX2                !
 ! A23   A(2,8,13)             111.4365         estimate D2E/DX2                !
 ! A24   A(2,8,14)             107.7362         estimate D2E/DX2                !
 ! A25   A(2,8,15)             107.5759         estimate D2E/DX2                !
 ! A26   A(13,8,14)            110.4391         estimate D2E/DX2                !
 ! A27   A(13,8,15)            110.7606         estimate D2E/DX2                !
 ! A28   A(14,8,15)            108.7751         estimate D2E/DX2                !
 ! A29   A(5,9,10)             113.7763         estimate D2E/DX2                !
 ! A30   A(5,9,11)             110.232          estimate D2E/DX2                !
 ! A31   A(5,9,12)             105.0573         estimate D2E/DX2                !
 ! A32   A(10,9,11)            105.2127         estimate D2E/DX2                !
 ! A33   A(10,9,12)            108.4597         estimate D2E/DX2                !
 ! A34   A(11,9,12)            114.32           estimate D2E/DX2                !
 ! A35   A(9,10,23)            115.8436         estimate D2E/DX2                !
 ! A36   A(9,11,24)            117.3546         estimate D2E/DX2                !
 ! A37   A(9,12,22)            116.8565         estimate D2E/DX2                !
 ! A38   A(8,13,25)            116.8991         estimate D2E/DX2                !
 ! A39   A(8,14,27)            114.056          estimate D2E/DX2                !
 ! A40   A(8,15,26)            117.2166         estimate D2E/DX2                !
 ! A41   A(6,16,32)            116.4907         estimate D2E/DX2                !
 ! A42   A(6,17,33)            117.1859         estimate D2E/DX2                !
 ! A43   A(6,18,31)            116.3076         estimate D2E/DX2                !
 ! A44   A(7,19,30)            115.1373         estimate D2E/DX2                !
 ! A45   A(7,20,28)            116.1676         estimate D2E/DX2                !
 ! A46   A(7,21,29)            116.2372         estimate D2E/DX2                !
 ! D1    D(3,1,2,8)             57.7292         estimate D2E/DX2                !
 ! D2    D(4,1,2,8)            -52.5301         estimate D2E/DX2                !
 ! D3    D(5,1,2,8)           -174.7067         estimate D2E/DX2                !
 ! D4    D(2,1,3,7)            -50.098          estimate D2E/DX2                !
 ! D5    D(4,1,3,7)             58.8315         estimate D2E/DX2                !
 ! D6    D(5,1,3,7)           -175.9641         estimate D2E/DX2                !
 ! D7    D(2,1,4,6)             42.7683         estimate D2E/DX2                !
 ! D8    D(3,1,4,6)            -68.2312         estimate D2E/DX2                !
 ! D9    D(5,1,4,6)            164.8802         estimate D2E/DX2                !
 ! D10   D(3,1,5,9)             15.44           Frozen                          !
 ! D11   D(2,1,9,10)           153.7902         estimate D2E/DX2                !
 ! D12   D(2,1,9,11)            35.1588         estimate D2E/DX2                !
 ! D13   D(2,1,9,12)           -88.2953         estimate D2E/DX2                !
 ! D14   D(3,1,9,10)           -84.329          estimate D2E/DX2                !
 ! D15   D(3,1,9,11)           157.0396         estimate D2E/DX2                !
 ! D16   D(3,1,9,12)            33.5855         estimate D2E/DX2                !
 ! D17   D(4,1,9,10)            36.5973         estimate D2E/DX2                !
 ! D18   D(4,1,9,11)           -82.0341         estimate D2E/DX2                !
 ! D19   D(4,1,9,12)           154.5118         estimate D2E/DX2                !
 ! D20   D(1,2,8,13)            93.5308         estimate D2E/DX2                !
 ! D21   D(1,2,8,14)           -27.7655         estimate D2E/DX2                !
 ! D22   D(1,2,8,15)          -144.8802         estimate D2E/DX2                !
 ! D23   D(1,3,7,19)           -61.1012         estimate D2E/DX2                !
 ! D24   D(1,3,7,20)          -176.1751         estimate D2E/DX2                !
 ! D25   D(1,3,7,21)            60.409          estimate D2E/DX2                !
 ! D26   D(1,4,6,16)           160.167          estimate D2E/DX2                !
 ! D27   D(1,4,6,17)            32.6925         estimate D2E/DX2                !
 ! D28   D(1,4,6,18)           -79.742          estimate D2E/DX2                !
 ! D29   D(1,5,9,12)            18.3478         Frozen                          !
 ! D30   D(4,6,16,32)          -14.1998         estimate D2E/DX2                !
 ! D31   D(17,6,16,32)         110.2979         estimate D2E/DX2                !
 ! D32   D(18,6,16,32)        -136.5531         estimate D2E/DX2                !
 ! D33   D(4,6,17,33)           51.0095         estimate D2E/DX2                !
 ! D34   D(16,6,17,33)         -73.6179         estimate D2E/DX2                !
 ! D35   D(18,6,17,33)         169.7166         estimate D2E/DX2                !
 ! D36   D(4,6,18,31)          -96.4424         estimate D2E/DX2                !
 ! D37   D(16,6,18,31)          24.7715         estimate D2E/DX2                !
 ! D38   D(17,6,18,31)         146.349          estimate D2E/DX2                !
 ! D39   D(3,7,19,30)         -162.1837         estimate D2E/DX2                !
 ! D40   D(20,7,19,30)         -41.4662         estimate D2E/DX2                !
 ! D41   D(21,7,19,30)          76.796          estimate D2E/DX2                !
 ! D42   D(3,7,20,28)          -98.427          estimate D2E/DX2                !
 ! D43   D(19,7,20,28)         148.2947         estimate D2E/DX2                !
 ! D44   D(21,7,20,28)          27.0455         estimate D2E/DX2                !
 ! D45   D(3,7,21,29)          -49.8995         estimate D2E/DX2                !
 ! D46   D(19,7,21,29)          66.0156         estimate D2E/DX2                !
 ! D47   D(20,7,21,29)        -176.7753         estimate D2E/DX2                !
 ! D48   D(2,8,13,25)          -58.468          estimate D2E/DX2                !
 ! D49   D(14,8,13,25)          61.2404         estimate D2E/DX2                !
 ! D50   D(15,8,13,25)        -178.1888         estimate D2E/DX2                !
 ! D51   D(2,8,14,27)           80.2918         estimate D2E/DX2                !
 ! D52   D(13,8,14,27)         -41.6247         estimate D2E/DX2                !
 ! D53   D(15,8,14,27)        -163.3756         estimate D2E/DX2                !
 ! D54   D(2,8,15,26)         -174.1994         estimate D2E/DX2                !
 ! D55   D(13,8,15,26)         -52.1897         estimate D2E/DX2                !
 ! D56   D(14,8,15,26)          69.3652         estimate D2E/DX2                !
 ! D57   D(5,9,10,23)          -94.8512         estimate D2E/DX2                !
 ! D58   D(11,9,10,23)          25.9073         estimate D2E/DX2                !
 ! D59   D(12,9,10,23)         148.6395         estimate D2E/DX2                !
 ! D60   D(5,9,11,24)          -43.8202         estimate D2E/DX2                !
 ! D61   D(10,9,11,24)        -166.8794         estimate D2E/DX2                !
 ! D62   D(12,9,11,24)          74.2399         estimate D2E/DX2                !
 ! D63   D(5,9,12,22)         -166.4767         estimate D2E/DX2                !
 ! D64   D(10,9,12,22)         -44.4745         estimate D2E/DX2                !
 ! D65   D(11,9,12,22)          72.5544         estimate D2E/DX2                !
 --------------------------------------------------------------------------------
 Trust Radius=3.00D-01 FncErr=1.00D-07 GrdErr=1.00D-06 EigMax=2.50D+02 EigMin=1.00D-04
 Number of steps in this run=    153 maximum allowed number of steps=    198.
 GradGradGradGradGradGradGradGradGradGradGradGradGradGradGradGradGradGrad

                          Input orientation:                          
 ---------------------------------------------------------------------
 Center     Atomic      Atomic             Coordinates (Angstroms)
 Number     Number       Type             X           Y           Z
 ---------------------------------------------------------------------
      1         40           0        0.657790   -0.125060   -0.071640
      2          8           0       -0.222850   -0.906240    1.477300
      3          8           0        0.103020    1.747480   -0.122990
      4          8           0       -0.268300   -0.978850   -1.597050
      5          8           0        2.592060   -0.436300   -0.082840
      6         14           0       -1.831190   -1.332440   -1.953600
      7         14           0       -1.115500    2.841720   -0.082790
      8         14           0       -1.723760   -1.152910    2.115170
      9         14           0        4.215620   -0.641330   -0.078750
     10          8           0        4.891220   -0.634080   -1.585100
     11          8           0        4.605260   -2.117830    0.565550
     12          8           0        4.808110    0.646250    0.765730
     13          8           0       -2.319240   -2.624000    1.696270
     14          8           0       -2.724220    0.065080    1.550860
     15          8           0       -1.597340   -1.019570    3.744390
     16          8           0       -2.001440   -1.559650   -3.577820
     17          8           0       -2.825090   -0.186760   -1.301450
     18          8           0       -2.344480   -2.714390   -1.182770
     19          8           0       -2.040460    2.439570   -1.430230
     20          8           0       -0.635650    4.400490   -0.299870
     21          8           0       -1.965510    2.760860    1.313830
     22          1           0        5.756140    0.807570    0.705070
     23          1           0        5.021510   -1.498440   -1.991340
     24          1           0        4.139250   -2.389380    1.364140
     25          1           0       -2.405770   -2.809510    0.743920
     26          1           0       -2.381370   -1.224230    4.265350
     27          1           0       -3.060340   -0.083060    0.645890
     28          1           0       -0.527310    4.927280    0.500150
     29          1           0       -2.269090    1.869320    1.585330
     30          1           0       -2.648540    3.126760   -1.730140
     31          1           0       -2.304520   -3.529520   -1.695620
     32          1           0       -1.271140   -1.263050   -4.132230
     33          1           0       -2.610260    0.754610   -1.489930
 ---------------------------------------------------------------------
                    Distance matrix (angstroms):
                    1          2          3          4          5
     1  Zr   0.000000
     2  O    1.945504   0.000000
     3  O    1.953666   3.115983   0.000000
     4  O    1.978251   3.075543   3.121475   0.000000
     5  O    1.959183   3.252476   3.311469   3.281593   0.000000
     6  Si   3.345827   3.813067   4.071635   1.641578   4.885484
     7  Si   3.456366   4.156670   1.638221   4.196128   4.948880
     8  Si   3.392697   1.649380   4.093745   3.991145   4.896027
     9  Si   3.595099   4.710784   4.756243   4.746019   1.636460
    10  O    4.524554   5.967083   5.544047   5.171040   2.753550
    11  O    4.467624   5.060621   5.973682   5.452128   2.702023
    12  O    4.303634   5.312920   4.913288   5.830405   2.608230
    13  O    4.270002   2.719099   5.318542   4.214123   5.663226
    14  O    3.755882   2.684348   3.691278   4.126823   5.584191
    15  O    4.521929   2.653632   5.050190   5.504452   5.704294
    16  O    4.628483   5.398571   5.225104   2.695283   5.880225
    17  O    3.694143   3.874372   3.701875   2.692947   5.558129
    18  O    4.117386   3.853141   5.198238   2.737563   5.546978
    19  O    3.962783   4.790812   2.604299   3.854086   5.616612
    20  O    4.712290   5.611606   2.759598   5.545712   5.818913
    21  O    4.138812   4.063399   2.714813   5.033803   5.739683
    22  H    5.240825   6.267520   5.790240   6.692154   3.489902
    23  H    4.961197   6.315495   6.182093   5.329871   3.266916
    24  H    4.394220   4.608734   5.967941   5.494064   2.881331
    25  H    4.154132   2.987545   5.273682   3.660633   5.594101
    26  H    5.408711   3.540275   5.853271   6.236426   6.653014
    27  H    3.786965   3.069237   3.734823   3.691708   5.710118
    28  H    5.220876   5.922624   3.301022   6.272775   6.232041
    29  H    3.910208   3.450000   2.925766   4.716225   5.632890
    30  H    4.925117   5.695325   3.472237   4.747556   6.547739
    31  H    4.796138   4.613282   6.009671   3.265245   6.012118
    32  H    4.637260   5.717784   5.198616   2.741094   5.657331
    33  H    3.669539   4.154829   3.196280   2.915671   5.519266
                    6          7          8          9         10
     6  Si   0.000000
     7  Si   4.629876   0.000000
     8  Si   4.074145   4.599791   0.000000
     9  Si   6.368407   6.368084   6.352262   0.000000
    10  O    6.768626   7.100620   7.597312   1.650933   0.000000
    11  O    6.956353   7.598985   6.587024   1.657406   2.628418
    12  O    7.442464   6.374106   6.908205   1.649865   2.678162
    13  O    3.902290   5.872660   1.641396   7.055925   8.168103
    14  O    3.877087   3.600906   1.674176   7.163520   8.265470
    15  O    5.711363   5.457933   1.639549   6.967781   8.405562
    16  O    1.648848   5.689656   5.714252   7.192957   7.234388
    17  O    1.650975   3.685040   3.717481   7.160533   7.734468
    18  O    1.663560   5.795749   3.701340   6.967880   7.539557
    19  O    3.813892   1.683113   5.057279   7.103308   7.584161
    20  O    6.085279   1.645340   6.152776   7.000262   7.585842
    21  O    5.239203   1.636949   4.002272   7.191700   8.181941
    22  H    8.319600   7.209572   7.860074   2.255413   2.841007
    23  H    6.854814   7.755156   7.904523   2.245461   0.963911
    24  H    6.911633   7.554496   6.038857   2.267916   3.513482
    25  H    3.128657   5.855309   2.256056   7.015739   7.962593
    26  H    6.244177   6.086107   2.249625   7.920306   9.352358
    27  H    3.135141   3.587160   2.256060   7.333237   8.276971
    28  H    6.848729   2.243958   6.403787   7.337570   8.039743
    29  H    4.792395   2.249212   3.116406   7.150104   8.221233
    30  H    4.538993   2.268308   5.827281   8.002642   8.426917
    31  H    2.262246   6.678899   4.528540   7.312191   7.757220
    32  H    2.250533   5.768130   6.264743   6.849947   6.697623
    33  H    2.275460   2.927521   4.173878   7.108637   7.629529
                   11         12         13         14         15
    11  O    0.000000
    12  O    2.778733   0.000000
    13  O    7.034446   7.896807   0.000000
    14  O    7.710850   7.595405   2.723289   0.000000
    15  O    7.055738   7.257903   2.700024   2.694049   0.000000
    16  O    7.818412   8.372717   5.389792   5.428215   7.353213
    17  O    7.900938   7.951911   3.896453   2.865182   5.259415
    18  O    7.191063   8.139416   2.880569   3.916936   5.263795
    19  O    8.301724   7.412230   5.957555   3.872032   6.240088
    20  O    8.408602   6.698085   7.494165   5.155881   6.830662
    21  O    8.218063   7.117157   5.410000   2.810526   4.509415
    22  H    3.146737   0.963569   8.830057   8.554716   8.163919
    23  H    2.663568   3.499524   8.291680   8.659567   8.771379
    24  H    0.963665   3.165520   6.471279   7.291533   6.360066
    25  H    7.047324   7.998926   0.974101   3.002637   3.586121
    26  H    7.956132   8.211861   2.926327   3.024619   0.963321
    27  H    7.931467   7.903085   2.847614   0.976674   3.552200
    28  H    8.716715   6.845762   7.852614   5.437959   6.858213
    29  H    8.012116   7.228721   4.494969   1.861079   3.668579
    30  H    9.240862   8.245237   6.702236   4.488271   6.947485
    31  H    7.406134   8.607253   3.510712   4.861783   6.032716
    32  H    7.571781   8.036960   6.076357   6.014390   7.887131
    33  H    8.033657   7.754480   4.653125   3.120071   5.618881
                   16         17         18         19         20
    16  O    0.000000
    17  O    2.783000   0.000000
    18  O    2.680926   2.575652   0.000000
    19  O    4.539540   2.744055   5.168846   0.000000
    20  O    6.937839   5.180702   7.370287   2.663909   0.000000
    21  O    6.526587   4.033241   6.029510   2.763822   2.657243
    22  H    9.172073   8.868614   9.032618   8.246812   7.400943
    23  H    7.200173   7.985336   7.509336   8.105195   8.346371
    24  H    7.925875   7.775534   6.973603   8.325628   8.465869
    25  H    4.516976   3.352340   1.930010   5.693261   7.497128
    26  H    7.859527   5.680008   5.648358   6.780802   7.451594
    27  H    4.597968   1.964238   3.283344   3.422586   5.184188
    28  H    7.802766   5.888884   8.033022   3.493521   0.963990
    29  H    6.203837   3.587492   5.355227   3.077509   3.553720
    30  H    5.078888   3.345797   5.874615   0.965369   2.778450
    31  H    2.741336   3.405937   0.963872   5.980819   8.223035
    32  H    0.963680   3.403891   3.458000   4.647801   6.867788
    33  H    3.175806   0.983796   3.492699   1.779698   4.313672
                   21         22         23         24         25
    21  O    0.000000
    22  H    7.988104   0.000000
    23  H    8.825204   3.623257   0.000000
    24  H    7.987215   3.642691   3.582095   0.000000
    25  H    5.616729   8.927573   8.022783   6.587751   0.000000
    26  H    4.976480   9.111689   9.696597   7.231395   3.861888
    27  H    3.119724   8.861549   8.618270   7.594017   2.805637
    28  H    2.724678   7.516365   8.847983   8.721054   7.965297
    29  H    0.980162   8.142880   8.791315   7.697550   4.755849
    30  H    3.141045   9.052488   8.960489   9.277740   6.435776
    31  H    6.981447   9.462975   7.608117   7.223865   2.545589
    32  H    6.806877   8.778929   6.651035   7.794294   5.239825
    33  H    3.507394   8.649710   7.973178   7.974100   4.211277
                   26         27         28         29         30
    26  H    0.000000
    27  H    3.855355   0.000000
    28  H    7.446835   5.616136   0.000000
    29  H    4.094529   2.306602   3.682734   0.000000
    30  H    7.412718   4.014728   3.565906   3.566157   0.000000
    31  H    6.391669   4.234622   8.916129   6.317702   6.665254
    32  H    8.470742   5.236797   7.767394   6.595312   5.190154
    33  H    6.090275   2.337946   5.070530   3.288799   2.384588
                   31         32         33
    31  H    0.000000
    32  H    3.484513   0.000000
    33  H    4.299948   3.584124   0.000000
 Stoichiometry    H12O16Si4Zr
 Framework group  C1[X(H12O16Si4Zr)]
 Deg. of freedom    93
 Full point group                 C1      NOp   1
 Largest Abelian subgroup         C1      NOp   1
 Largest concise Abelian subgroup C1      NOp   1
                         Standard orientation:                         
 ---------------------------------------------------------------------
 Center     Atomic      Atomic             Coordinates (Angstroms)
 Number     Number       Type             X           Y           Z
 ---------------------------------------------------------------------
      1         40           0        0.660247    0.030589   -0.037588
      2          8           0       -0.161128   -0.837280    1.497707
      3          8           0       -0.100097    1.828587   -0.114367
      4          8           0       -0.130076   -0.929210   -1.576305
      5          8           0        2.617009   -0.061179   -0.005032
      6         14           0       -1.635074   -1.458032   -1.963742
      7         14           0       -1.434418    2.779016   -0.108234
      8         14           0       -1.638575   -1.248145    2.104992
      9         14           0        4.252833   -0.082284    0.035375
     10          8           0        4.956517   -0.006283   -1.456145
     11          8           0        4.791519   -1.502502    0.698545
     12          8           0        4.678090    1.267779    0.883043
     13          8           0       -2.055606   -2.778857    1.684058
     14          8           0       -2.756792   -0.153112    1.510554
     15          8           0       -1.564026   -1.093660    3.735543
     16          8           0       -1.742730   -1.710696   -3.589556
     17          8           0       -2.765576   -0.428307   -1.341368
     18          8           0       -2.006803   -2.885250   -1.194132
     19          8           0       -2.278295    2.268962   -1.472267
     20          8           0       -1.128030    4.380811   -0.326231
     21          8           0       -2.300666    2.609734    1.270375
     22          1           0        5.603106    1.534409    0.841574
     23          1           0        5.192042   -0.852434   -1.853236
     24          1           0        4.341403   -1.820927    1.488895
     25          1           0       -2.099648   -2.977464    0.731437
     26          1           0       -2.331439   -1.382713    4.241026
     27          1           0       -3.054030   -0.342432    0.599675
     28          1           0       -1.097288    4.920255    0.472100
     29          1           0       -2.508105    1.691013    1.541737
     30          1           0       -2.952936    2.881963   -1.790116
     31          1           0       -1.864184   -3.693151   -1.700100
     32          1           0       -1.038282   -1.336490   -4.130298
     33          1           0       -2.653740    0.530342   -1.531996
 ---------------------------------------------------------------------
 Rotational constants (GHZ):           0.2111131           0.1333154           0.1231825
 General basis read from cards:  (5D, 7F)
 ======================================================================================================
                                       Pseudopotential Parameters
 ======================================================================================================
  Center     Atomic      Valence      Angular      Power
  Number     Number     Electrons     Momentum     of R      Exponent        Coefficient   SO-Coeffient
 ======================================================================================================
    1         40           12
                                      G and up 
                                                     2        1.0000000        0.00000000    0.00000000
                                      S - G
                                                     2        8.6365280      150.24299400    0.00000000
                                                     2        3.7176390       18.78003600    0.00000000
                                      P - G
                                                     2        7.6267280       33.19279100    0.00000000
                                                     2        7.4532070       66.38903900    0.00000000
                                                     2        3.3583890        4.62072600    0.00000000
                                                     2        3.2297380        9.26027000    0.00000000
                                      D - G
                                                     2        5.9380860       13.99338300    0.00000000
                                                     2        5.8255440       20.99588200    0.00000000
                                                     2        2.2050190        2.28516600    0.00000000
                                                     2        2.2062920        3.44126000    0.00000000
                                      F - G
                                                     2        4.8002150       -5.23932000    0.00000000
                                                     2        4.7989920       -6.98742400    0.00000000
    2          8
                                   No pseudopotential on this center.
    3          8
                                   No pseudopotential on this center.
    4          8
                                   No pseudopotential on this center.
    5          8
                                   No pseudopotential on this center.
    6         14
                                   No pseudopotential on this center.
    7         14
                                   No pseudopotential on this center.
    8         14
                                   No pseudopotential on this center.
    9         14
                                   No pseudopotential on this center.
   10          8
                                   No pseudopotential on this center.
   11          8
                                   No pseudopotential on this center.
   12          8
                                   No pseudopotential on this center.
   13          8
                                   No pseudopotential on this center.
   14          8
                                   No pseudopotential on this center.
   15          8
                                   No pseudopotential on this center.
   16          8
                                   No pseudopotential on this center.
   17          8
                                   No pseudopotential on this center.
   18          8
                                   No pseudopotential on this center.
   19          8
                                   No pseudopotential on this center.
   20          8
                                   No pseudopotential on this center.
   21          8
                                   No pseudopotential on this center.
   22          1
                                   No pseudopotential on this center.
   23          1
                                   No pseudopotential on this center.
   24          1
                                   No pseudopotential on this center.
   25          1
                                   No pseudopotential on this center.
   26          1
                                   No pseudopotential on this center.
   27          1
                                   No pseudopotential on this center.
   28          1
                                   No pseudopotential on this center.
   29          1
                                   No pseudopotential on this center.
   30          1
                                   No pseudopotential on this center.
   31          1
                                   No pseudopotential on this center.
   32          1
                                   No pseudopotential on this center.
   33          1
                                   No pseudopotential on this center.
 ======================================================================================================
 There are   570 symmetry adapted cartesian basis functions of A   symmetry.
 There are   524 symmetry adapted basis functions of A   symmetry.
   524 basis functions,  1074 primitive gaussians,   570 cartesian basis functions
   104 alpha electrons      104 beta electrons
       nuclear repulsion energy      2829.0586491659 Hartrees.
 NAtoms=   33 NActive=   33 NUniq=   33 SFac= 1.00D+00 NAtFMM=   60 NAOKFM=F Big=F
 Integral buffers will be    131072 words long.
 Raffenetti 2 integral format.
 Two-electron integral symmetry is turned on.
 Nuclear repulsion after empirical dispersion term =     2829.0178875145 Hartrees.
 One-electron integrals computed using PRISM.
 PrsmSu:  requested number of processors reduced to:   4 ShMem   1 Linda.
   1 Symmetry operations used in ECPInt.
 ECPInt:  NShTT=   13203 NPrTT=   78401 LenC2=   11523 LenP2D=   44606.
 LDataN:  DoStor=T MaxTD1= 8 Len=  415
 Number of processors reduced to  13 by ecpmxn.
 NBasis=   524 RedAO= T EigKep=  3.25D-05  NBF=   524
 NBsUse=   524 1.00D-06 EigRej= -1.00D+00 NBFU=   524
 Defaulting to unpruned grid for atomic number  40.
 ExpMin= 1.01D-02 ExpMax= 1.61D+04 ExpMxC= 2.43D+03 IAcc=3 IRadAn=         5 AccDes= 0.00D+00
 Harris functional with IExCor=  402 and IRadAn=       5 diagonalized for initial guess.
 HarFok:  IExCor=  402 AccDes= 0.00D+00 IRadAn=         5 IDoV= 1 UseB2=F ITyADJ=14
 ICtDFT=  3500011 ScaDFX=  1.000000  1.000000  1.000000  1.000000
 Defaulting to unpruned grid for atomic number  40.
 FoFCou: FMM=F IPFlag=           0 FMFlag=      100000 FMFlg1=           0
         NFxFlg=           0 DoJE=T BraDBF=F KetDBF=T FulRan=T
         wScrn=  0.000000 ICntrl=       500 IOpCl=  0 I1Cent=   200000004 NGrid=           0
         NMat0=    1 NMatS0=      1 NMatT0=    0 NMatD0=    1 NMtDS0=    0 NMtDT0=    0
 Petite list used in FoFCou.
 Requested convergence on RMS density matrix=1.00D-08 within 128 cycles.
 Requested convergence on MAX density matrix=1.00D-06.
 Requested convergence on             energy=1.00D-06.
 No special actions if energy rises.
 Defaulting to unpruned grid for atomic number  40.
 Defaulting to unpruned grid for atomic number  40.
 Defaulting to unpruned grid for atomic number  40.
 Defaulting to unpruned grid for atomic number  40.
 Defaulting to unpruned grid for atomic number  40.
 Defaulting to unpruned grid for atomic number  40.
 Defaulting to unpruned grid for atomic number  40.
 Defaulting to unpruned grid for atomic number  40.
 Defaulting to unpruned grid for atomic number  40.
 Defaulting to unpruned grid for atomic number  40.
 Defaulting to unpruned grid for atomic number  40.
 Defaulting to unpruned grid for atomic number  40.
 Defaulting to unpruned grid for atomic number  40.
 Defaulting to unpruned grid for atomic number  40.
 Defaulting to unpruned grid for atomic number  40.
 Defaulting to unpruned grid for atomic number  40.
 SCF Done:  E(RB3LYP) =  -2416.94667707     A.U. after   14 cycles
            NFock= 14  Conv=0.26D-08     -V/T= 2.0185

 **********************************************************************

            Population analysis using the SCF Density.

 **********************************************************************

 Orbital symmetries:
       Occupied  (A) (A) (A) (A) (A) (A) (A) (A) (A) (A) (A) (A)
                 (A) (A) (A) (A) (A) (A) (A) (A) (A) (A) (A) (A)
                 (A) (A) (A) (A) (A) (A) (A) (A) (A) (A) (A) (A)
                 (A) (A) (A) (A) (A) (A) (A) (A) (A) (A) (A) (A)
                 (A) (A) (A) (A) (A) (A) (A) (A) (A) (A) (A) (A)
                 (A) (A) (A) (A) (A) (A) (A) (A) (A) (A) (A) (A)
                 (A) (A) (A) (A) (A) (A) (A) (A) (A) (A) (A) (A)
                 (A) (A) (A) (A) (A) (A) (A) (A) (A) (A) (A) (A)
                 (A) (A) (A) (A) (A) (A) (A) (A)
       Virtual   (A) (A) (A) (A) (A) (A) (A) (A) (A) (A) (A) (A)
                 (A) (A) (A) (A) (A) (A) (A) (A) (A) (A) (A) (A)
                 (A) (A) (A) (A) (A) (A) (A) (A) (A) (A) (A) (A)
                 (A) (A) (A) (A) (A) (A) (A) (A) (A) (A) (A) (A)
                 (A) (A) (A) (A) (A) (A) (A) (A) (A) (A) (A) (A)
                 (A) (A) (A) (A) (A) (A) (A) (A) (A) (A) (A) (A)
                 (A) (A) (A) (A) (A) (A) (A) (A) (A) (A) (A) (A)
                 (A) (A) (A) (A) (A) (A) (A) (A) (A) (A) (A) (A)
                 (A) (A) (A) (A) (A) (A) (A) (A) (A) (A) (A) (A)
                 (A) (A) (A) (A) (A) (A) (A) (A) (A) (A) (A) (A)
                 (A) (A) (A) (A) (A) (A) (A) (A) (A) (A) (A) (A)
                 (A) (A) (A) (A) (A) (A) (A) (A) (A) (A) (A) (A)
                 (A) (A) (A) (A) (A) (A) (A) (A) (A) (A) (A) (A)
                 (A) (A) (A) (A) (A) (A) (A) (A) (A) (A) (A) (A)
                 (A) (A) (A) (A) (A) (A) (A) (A) (A) (A) (A) (A)
                 (A) (A) (A) (A) (A) (A) (A) (A) (A) (A) (A) (A)
                 (A) (A) (A) (A) (A) (A) (A) (A) (A) (A) (A) (A)
                 (A) (A) (A) (A) (A) (A) (A) (A) (A) (A) (A) (A)
                 (A) (A) (A) (A) (A) (A) (A) (A) (A) (A) (A) (A)
                 (A) (A) (A) (A) (A) (A) (A) (A) (A) (A) (A) (A)
                 (A) (A) (A) (A) (A) (A) (A) (A) (A) (A) (A) (A)
                 (A) (A) (A) (A) (A) (A) (A) (A) (A) (A) (A) (A)
                 (A) (A) (A) (A) (A) (A) (A) (A) (A) (A) (A) (A)
                 (A) (A) (A) (A) (A) (A) (A) (A) (A) (A) (A) (A)
                 (A) (A) (A) (A) (A) (A) (A) (A) (A) (A) (A) (A)
                 (A) (A) (A) (A) (A) (A) (A) (A) (A) (A) (A) (A)
                 (A) (A) (A) (A) (A) (A) (A) (A) (A) (A) (A) (A)
                 (A) (A) (A) (A) (A) (A) (A) (A) (A) (A) (A) (A)
                 (A) (A) (A) (A) (A) (A) (A) (A) (A) (A) (A) (A)
                 (A) (A) (A) (A) (A) (A) (A) (A) (A) (A) (A) (A)
                 (A) (A) (A) (A) (A) (A) (A) (A) (A) (A) (A) (A)
                 (A) (A) (A) (A) (A) (A) (A) (A) (A) (A) (A) (A)
                 (A) (A) (A) (A) (A) (A) (A) (A) (A) (A) (A) (A)
                 (A) (A) (A) (A) (A) (A) (A) (A) (A) (A) (A) (A)
                 (A) (A) (A) (A) (A) (A) (A) (A) (A) (A) (A) (A)
 The electronic state is 1-A.
 Alpha  occ. eigenvalues --  -66.22886 -66.21813 -66.21486 -66.21121 -19.18668
 Alpha  occ. eigenvalues --  -19.18406 -19.17860 -19.17098 -19.16787 -19.16573
 Alpha  occ. eigenvalues --  -19.16446 -19.16258 -19.16117 -19.16091 -19.16068
 Alpha  occ. eigenvalues --  -19.15559 -19.15365 -19.15334 -19.14955 -19.14789
 Alpha  occ. eigenvalues --   -5.36947  -5.35894  -5.35556  -5.35181  -3.72930
 Alpha  occ. eigenvalues --   -3.72904  -3.72857  -3.71885  -3.71838  -3.71803
 Alpha  occ. eigenvalues --   -3.71527  -3.71518  -3.71475  -3.71146  -3.71137
 Alpha  occ. eigenvalues --   -3.71111  -2.13463  -1.29694  -1.29616  -1.29465
 Alpha  occ. eigenvalues --   -1.05756  -1.04834  -1.04131  -1.03572  -1.02640
 Alpha  occ. eigenvalues --   -1.02233  -1.01536  -1.00884  -1.00734  -1.00731
 Alpha  occ. eigenvalues --   -0.99900  -0.99379  -0.97429  -0.96368  -0.95778
 Alpha  occ. eigenvalues --   -0.95466  -0.61066  -0.59212  -0.58975  -0.58567
 Alpha  occ. eigenvalues --   -0.55613  -0.54591  -0.53852  -0.53103  -0.52944
 Alpha  occ. eigenvalues --   -0.52566  -0.52221  -0.51779  -0.48866  -0.47629
 Alpha  occ. eigenvalues --   -0.47254  -0.46821  -0.43445  -0.42727  -0.41933
 Alpha  occ. eigenvalues --   -0.41450  -0.41102  -0.40644  -0.39890  -0.39413
 Alpha  occ. eigenvalues --   -0.38866  -0.38782  -0.38641  -0.38191  -0.38097
 Alpha  occ. eigenvalues --   -0.37678  -0.37555  -0.37271  -0.36558  -0.36464
 Alpha  occ. eigenvalues --   -0.36070  -0.35678  -0.35514  -0.35148  -0.34866
 Alpha  occ. eigenvalues --   -0.34671  -0.34049  -0.33727  -0.33533  -0.33334
 Alpha  occ. eigenvalues --   -0.32849  -0.32162  -0.32100  -0.31383
 Alpha virt. eigenvalues --   -0.04410  -0.03261  -0.03105  -0.02740  -0.02158
 Alpha virt. eigenvalues --   -0.01245  -0.00636  -0.00249   0.00065   0.00331
 Alpha virt. eigenvalues --    0.00681   0.00929   0.00967   0.01895   0.02321
 Alpha virt. eigenvalues --    0.03244   0.03406   0.03794   0.03830   0.04051
 Alpha virt. eigenvalues --    0.04250   0.04580   0.05510   0.05774   0.06085
 Alpha virt. eigenvalues --    0.06413   0.07112   0.07526   0.07715   0.08641
 Alpha virt. eigenvalues --    0.08772   0.08946   0.09131   0.09533   0.09874
 Alpha virt. eigenvalues --    0.10321   0.10493   0.10952   0.11134   0.11615
 Alpha virt. eigenvalues --    0.12011   0.12488   0.13109   0.13362   0.13794
 Alpha virt. eigenvalues --    0.13890   0.14447   0.14747   0.14991   0.15285
 Alpha virt. eigenvalues --    0.15445   0.15744   0.16142   0.16760   0.16798
 Alpha virt. eigenvalues --    0.17306   0.17531   0.17690   0.18072   0.18459
 Alpha virt. eigenvalues --    0.18542   0.18630   0.19139   0.19655   0.19784
 Alpha virt. eigenvalues --    0.20147   0.20301   0.20642   0.20945   0.21178
 Alpha virt. eigenvalues --    0.21654   0.21949   0.22260   0.22358   0.22655
 Alpha virt. eigenvalues --    0.22912   0.23625   0.23940   0.24174   0.24413
 Alpha virt. eigenvalues --    0.24507   0.25057   0.25434   0.25512   0.26000
 Alpha virt. eigenvalues --    0.26468   0.26740   0.26997   0.27295   0.27520
 Alpha virt. eigenvalues --    0.27878   0.28187   0.28417   0.28747   0.29049
 Alpha virt. eigenvalues --    0.29361   0.29643   0.29792   0.30235   0.30418
 Alpha virt. eigenvalues --    0.30742   0.30960   0.31426   0.31577   0.31999
 Alpha virt. eigenvalues --    0.32532   0.32710   0.33303   0.33614   0.33960
 Alpha virt. eigenvalues --    0.34190   0.34523   0.35414   0.35741   0.36464
 Alpha virt. eigenvalues --    0.36736   0.37187   0.37681   0.37943   0.39004
 Alpha virt. eigenvalues --    0.39144   0.39835   0.40455   0.41106   0.41998
 Alpha virt. eigenvalues --    0.42722   0.43177   0.43679   0.43997   0.44185
 Alpha virt. eigenvalues --    0.45041   0.45967   0.46242   0.46839   0.47354
 Alpha virt. eigenvalues --    0.47468   0.48019   0.48666   0.49182   0.49574
 Alpha virt. eigenvalues --    0.50013   0.51138   0.51233   0.51392   0.52363
 Alpha virt. eigenvalues --    0.53619   0.54633   0.55185   0.56603   0.57285
 Alpha virt. eigenvalues --    0.57830   0.58783   0.59359   0.59733   0.60040
 Alpha virt. eigenvalues --    0.61651   0.61886   0.62127   0.63446   0.65817
 Alpha virt. eigenvalues --    0.66830   0.67295   0.68499   0.69101   0.69441
 Alpha virt. eigenvalues --    0.70247   0.71245   0.72998   0.74217   0.75531
 Alpha virt. eigenvalues --    0.75553   0.77109   0.78189   0.78758   0.80423
 Alpha virt. eigenvalues --    0.81271   0.81481   0.83000   0.84056   0.85445
 Alpha virt. eigenvalues --    0.86352   0.88577   0.89385   0.90075   0.91353
 Alpha virt. eigenvalues --    0.93390   0.95595   0.96450   0.96781   0.97438
 Alpha virt. eigenvalues --    0.98220   0.98660   0.98929   0.99711   1.00272
 Alpha virt. eigenvalues --    1.01037   1.01378   1.02424   1.02795   1.04162
 Alpha virt. eigenvalues --    1.04253   1.05454   1.06338   1.06742   1.07711
 Alpha virt. eigenvalues --    1.09577   1.12557   1.15265   1.16084   1.16374
 Alpha virt. eigenvalues --    1.18583   1.18941   1.20083   1.20331   1.20554
 Alpha virt. eigenvalues --    1.21568   1.21834   1.22434   1.22637   1.22870
 Alpha virt. eigenvalues --    1.23305   1.23942   1.24208   1.24945   1.25846
 Alpha virt. eigenvalues --    1.26011   1.27070   1.27348   1.27876   1.28074
 Alpha virt. eigenvalues --    1.28941   1.29573   1.30097   1.30713   1.31290
 Alpha virt. eigenvalues --    1.31963   1.32746   1.32877   1.33600   1.34880
 Alpha virt. eigenvalues --    1.35241   1.35928   1.36769   1.36807   1.37681
 Alpha virt. eigenvalues --    1.39250   1.39692   1.40249   1.41023   1.41526
 Alpha virt. eigenvalues --    1.42355   1.42821   1.43972   1.45289   1.46394
 Alpha virt. eigenvalues --    1.47008   1.48759   1.49879   1.52038   1.53643
 Alpha virt. eigenvalues --    1.56545   1.57365   1.57520   1.58916   1.59469
 Alpha virt. eigenvalues --    1.60224   1.60879   1.61807   1.62731   1.63149
 Alpha virt. eigenvalues --    1.63232   1.63847   1.64778   1.65252   1.66686
 Alpha virt. eigenvalues --    1.67716   1.68142   1.69229   1.69554   1.70300
 Alpha virt. eigenvalues --    1.70382   1.71325   1.71887   1.72221   1.73254
 Alpha virt. eigenvalues --    1.74349   1.74666   1.75472   1.75678   1.76332
 Alpha virt. eigenvalues --    1.77079   1.77251   1.78590   1.78691   1.79781
 Alpha virt. eigenvalues --    1.80531   1.81512   1.82033   1.82450   1.82666
 Alpha virt. eigenvalues --    1.84400   1.84792   1.85258   1.86097   1.86734
 Alpha virt. eigenvalues --    1.87412   1.88270   1.88427   1.89413   1.90325
 Alpha virt. eigenvalues --    1.91276   1.91620   1.92289   1.92774   1.93003
 Alpha virt. eigenvalues --    1.94020   1.96293   1.96618   1.97319   1.97745
 Alpha virt. eigenvalues --    1.98565   2.00061   2.01022   2.02937   2.03617
 Alpha virt. eigenvalues --    2.05664   2.06494   2.07479   2.09655   2.10723
 Alpha virt. eigenvalues --    2.11606   2.12877   2.14044   2.15218   2.16081
 Alpha virt. eigenvalues --    2.17584   2.18500   2.18852   2.20055   2.29741
 Alpha virt. eigenvalues --    2.31933   2.33650   2.35045   2.39469   2.40485
 Alpha virt. eigenvalues --    2.41053   2.41148   2.41745   2.42830   2.43575
 Alpha virt. eigenvalues --    2.43966   2.45956   2.46698   2.47158   2.49258
 Alpha virt. eigenvalues --    2.50190   2.50492   2.51618   2.52801   2.54004
 Alpha virt. eigenvalues --    2.55530   2.56459   2.58644   2.59987   2.60706
 Alpha virt. eigenvalues --    2.60928   2.61859   2.62209   2.62363   2.62748
 Alpha virt. eigenvalues --    2.63211   2.63731   2.64229   2.64879   2.65588
 Alpha virt. eigenvalues --    2.65956   2.66227   2.67003   2.67505   2.68444
 Alpha virt. eigenvalues --    2.69321   2.70221   2.71172   2.71548   2.72327
 Alpha virt. eigenvalues --    2.72583   2.74148   2.75506   2.76599   2.77300
 Alpha virt. eigenvalues --    2.78976   2.80614   2.81358   2.82396   2.83368
 Alpha virt. eigenvalues --    2.83609   2.84708   2.86575   2.87671   2.88105
 Alpha virt. eigenvalues --    3.13714   3.20369   3.35890   3.40779   3.47227
 Alpha virt. eigenvalues --    3.47872   3.48304   3.48603   3.51023   3.51136
 Alpha virt. eigenvalues --    3.53106   3.54442   3.60247   3.61020   3.62056
 Alpha virt. eigenvalues --    3.66136   4.25672   4.57695   8.01158  31.33983
          Condensed to atoms (all electrons):
               1          2          3          4          5          6
     1  Zr  14.712072  -0.082096  -0.029211  -0.045132  -0.187211  -0.621686
     2  O   -0.082096   9.076956   0.024592  -0.045316  -0.059683   0.081381
     3  O   -0.029211   0.024592   8.893007   0.017092  -0.058635   0.002991
     4  O   -0.045132  -0.045316   0.017092   8.834932  -0.049831  -0.752123
     5  O   -0.187211  -0.059683  -0.058635  -0.049831   9.522224  -0.015423
     6  Si  -0.621686   0.081381   0.002991  -0.752123  -0.015423  14.151646
     7  Si  -0.550985  -0.034950  -0.912616  -0.013533  -0.041068   0.071437
     8  Si  -0.561449  -1.051316  -0.009282   0.048933  -0.025591   0.006020
     9  Si  -0.269579  -0.052113  -0.051568  -0.043643  -1.296673   0.026071
    10  O   -0.003736   0.001564  -0.000421   0.001848   0.141430  -0.001452
    11  O   -0.033272   0.002877   0.002507   0.000692   0.288106  -0.001542
    12  O    0.020852   0.000455   0.003772   0.002180   0.176849  -0.002459
    13  O   -0.033493   0.184372   0.001960  -0.016286   0.000089   0.040284
    14  O    0.001829   0.276075  -0.014934  -0.006489   0.003784   0.019887
    15  O   -0.085480   0.295822  -0.000818   0.001368   0.000375  -0.001088
    16  O   -0.129272   0.004745  -0.000563   0.344329   0.003023  -0.415048
    17  O   -0.010414  -0.041718   0.009215   0.225914   0.001887  -0.509599
    18  O   -0.002696  -0.014826   0.003938   0.196623  -0.000122  -0.466637
    19  O    0.002855   0.008876   0.262413   0.008872   0.002534  -0.004051
    20  O   -0.153838  -0.000494   0.180702  -0.000853   0.002404   0.008614
    21  O    0.032071   0.010086   0.145231   0.003092   0.000178  -0.007911
    22  H   -0.003113  -0.000014  -0.000023  -0.000008   0.005786   0.000031
    23  H   -0.009050  -0.000012   0.000001  -0.000022  -0.025172   0.000036
    24  H   -0.004412  -0.000332  -0.000024   0.000004  -0.006167   0.000130
    25  H    0.016806  -0.020021  -0.000121  -0.000102  -0.000003   0.001525
    26  H    0.005723   0.000574   0.000015  -0.000013  -0.000004   0.000030
    27  H   -0.006808  -0.018950   0.000645  -0.001858  -0.000011   0.012722
    28  H    0.005565  -0.000011  -0.019092  -0.000013  -0.000017  -0.000249
    29  H    0.005518  -0.007224  -0.020771  -0.000165  -0.000101   0.000279
    30  H    0.001766  -0.000017   0.000009  -0.000454  -0.000011  -0.000944
    31  H   -0.001885   0.000205  -0.000017  -0.018616  -0.000008   0.064778
    32  H    0.001843  -0.000021   0.000044   0.010243   0.000005   0.023155
    33  H   -0.016164   0.000976  -0.010221  -0.008741  -0.000114   0.051825
               7          8          9         10         11         12
     1  Zr  -0.550985  -0.561449  -0.269579  -0.003736  -0.033272   0.020852
     2  O   -0.034950  -1.051316  -0.052113   0.001564   0.002877   0.000455
     3  O   -0.912616  -0.009282  -0.051568  -0.000421   0.002507   0.003772
     4  O   -0.013533   0.048933  -0.043643   0.001848   0.000692   0.002180
     5  O   -0.041068  -0.025591  -1.296673   0.141430   0.288106   0.176849
     6  Si   0.071437   0.006020   0.026071  -0.001452  -0.001542  -0.002459
     7  Si  13.825681   0.174216   0.019940  -0.000954  -0.001469   0.002744
     8  Si   0.174216  13.891690   0.022598  -0.000926   0.000348  -0.000549
     9  Si   0.019940   0.022598  14.371676  -0.112944  -0.162552  -0.192364
    10  O   -0.000954  -0.000926  -0.112944   8.525734   0.035472   0.016728
    11  O   -0.001469   0.000348  -0.162552   0.035472   8.458649  -0.044624
    12  O    0.002744  -0.000549  -0.192364   0.016728  -0.044624   8.606614
    13  O    0.007191  -0.100725   0.000537   0.000001   0.000033   0.000001
    14  O    0.001393  -0.399519  -0.002022  -0.000004  -0.000003   0.000005
    15  O   -0.003173  -0.304229  -0.001157  -0.000001  -0.000022   0.000004
    16  O    0.004238  -0.010335  -0.000683  -0.000004   0.000002  -0.000003
    17  O   -0.008915   0.081642   0.001158  -0.000004   0.000002  -0.000004
    18  O   -0.001048   0.070828   0.004025  -0.000006   0.000009  -0.000001
    19  O   -0.408253  -0.013604   0.000897   0.000003  -0.000004  -0.000010
    20  O   -0.128509   0.009350   0.002371   0.000000  -0.000002  -0.000020
    21  O    0.026205  -0.035564  -0.001244   0.000001  -0.000001   0.000004
    22  H   -0.000096   0.000036   0.041345  -0.006997  -0.004971   0.220806
    23  H    0.000071   0.000081   0.084795   0.227749  -0.007404   0.006084
    24  H    0.000042  -0.000180   0.033291   0.006816   0.247818  -0.007650
    25  H   -0.000473   0.057927  -0.000260  -0.000000  -0.000000  -0.000000
    26  H   -0.000340   0.047323  -0.000019   0.000000   0.000000  -0.000000
    27  H    0.002622   0.073030   0.000078   0.000000  -0.000000  -0.000000
    28  H    0.057502  -0.000086  -0.000104  -0.000000  -0.000000  -0.000001
    29  H    0.047797   0.021498  -0.000025   0.000000   0.000000  -0.000000
    30  H    0.039591  -0.000034   0.000018   0.000000   0.000000   0.000000
    31  H    0.000168  -0.001559  -0.000047   0.000000  -0.000000   0.000000
    32  H   -0.000580   0.000040   0.000081  -0.000000   0.000000   0.000000
    33  H    0.020842   0.000244   0.000070  -0.000000   0.000000   0.000000
              13         14         15         16         17         18
     1  Zr  -0.033493   0.001829  -0.085480  -0.129272  -0.010414  -0.002696
     2  O    0.184372   0.276075   0.295822   0.004745  -0.041718  -0.014826
     3  O    0.001960  -0.014934  -0.000818  -0.000563   0.009215   0.003938
     4  O   -0.016286  -0.006489   0.001368   0.344329   0.225914   0.196623
     5  O    0.000089   0.003784   0.000375   0.003023   0.001887  -0.000122
     6  Si   0.040284   0.019887  -0.001088  -0.415048  -0.509599  -0.466637
     7  Si   0.007191   0.001393  -0.003173   0.004238  -0.008915  -0.001048
     8  Si  -0.100725  -0.399519  -0.304229  -0.010335   0.081642   0.070828
     9  Si   0.000537  -0.002022  -0.001157  -0.000683   0.001158   0.004025
    10  O    0.000001  -0.000004  -0.000001  -0.000004  -0.000004  -0.000006
    11  O    0.000033  -0.000003  -0.000022   0.000002   0.000002   0.000009
    12  O    0.000001   0.000005   0.000004  -0.000003  -0.000004  -0.000001
    13  O    8.624829   0.088859  -0.088425   0.003811  -0.030772  -0.046145
    14  O    0.088859   8.682339   0.055281   0.003833  -0.035845  -0.026297
    15  O   -0.088425   0.055281   8.777676  -0.000180   0.003423   0.001789
    16  O    0.003811   0.003833  -0.000180   8.898069  -0.091232  -0.113961
    17  O   -0.030772  -0.035845   0.003423  -0.091232   8.938454   0.229078
    18  O   -0.046145  -0.026297   0.001789  -0.113961   0.229078   9.011664
    19  O    0.000140  -0.000372   0.000152  -0.001486  -0.030958   0.000072
    20  O    0.000008   0.000131   0.000042   0.000071  -0.000792   0.000010
    21  O   -0.000257   0.014468  -0.000581  -0.000219  -0.005271   0.000493
    22  H    0.000000  -0.000000  -0.000000   0.000000   0.000000  -0.000000
    23  H    0.000000   0.000000  -0.000000  -0.000000   0.000000  -0.000000
    24  H   -0.000001   0.000000   0.000004   0.000000  -0.000000  -0.000000
    25  H    0.218952  -0.012216   0.008800  -0.000059   0.000689   0.015400
    26  H   -0.004963  -0.010038   0.216948   0.000000  -0.000000   0.000008
    27  H   -0.009730   0.219765   0.004745   0.000156   0.018572  -0.000257
    28  H    0.000000  -0.000005  -0.000001  -0.000000   0.000004  -0.000000
    29  H    0.000803   0.017448  -0.002574  -0.000004  -0.000426   0.000004
    30  H    0.000001  -0.000025   0.000000   0.000115  -0.000520  -0.000006
    31  H    0.002397   0.000162  -0.000018   0.003809  -0.000847   0.218596
    32  H   -0.000008  -0.000006   0.000000   0.233302  -0.003672   0.003885
    33  H    0.000198   0.002018  -0.000032   0.000145   0.231927   0.002020
              19         20         21         22         23         24
     1  Zr   0.002855  -0.153838   0.032071  -0.003113  -0.009050  -0.004412
     2  O    0.008876  -0.000494   0.010086  -0.000014  -0.000012  -0.000332
     3  O    0.262413   0.180702   0.145231  -0.000023   0.000001  -0.000024
     4  O    0.008872  -0.000853   0.003092  -0.000008  -0.000022   0.000004
     5  O    0.002534   0.002404   0.000178   0.005786  -0.025172  -0.006167
     6  Si  -0.004051   0.008614  -0.007911   0.000031   0.000036   0.000130
     7  Si  -0.408253  -0.128509   0.026205  -0.000096   0.000071   0.000042
     8  Si  -0.013604   0.009350  -0.035564   0.000036   0.000081  -0.000180
     9  Si   0.000897   0.002371  -0.001244   0.041345   0.084795   0.033291
    10  O    0.000003   0.000000   0.000001  -0.006997   0.227749   0.006816
    11  O   -0.000004  -0.000002  -0.000001  -0.004971  -0.007404   0.247818
    12  O   -0.000010  -0.000020   0.000004   0.220806   0.006084  -0.007650
    13  O    0.000140   0.000008  -0.000257   0.000000   0.000000  -0.000001
    14  O   -0.000372   0.000131   0.014468  -0.000000   0.000000   0.000000
    15  O    0.000152   0.000042  -0.000581  -0.000000  -0.000000   0.000004
    16  O   -0.001486   0.000071  -0.000219   0.000000  -0.000000   0.000000
    17  O   -0.030958  -0.000792  -0.005271   0.000000   0.000000  -0.000000
    18  O    0.000072   0.000010   0.000493  -0.000000  -0.000000  -0.000000
    19  O    8.867085   0.034657   0.020526   0.000000   0.000000  -0.000000
    20  O    0.034657   8.666200  -0.049462   0.000000  -0.000000  -0.000000
    21  O    0.020526  -0.049462   8.478236  -0.000000   0.000000   0.000000
    22  H    0.000000   0.000000  -0.000000   0.364888   0.000066   0.000124
    23  H    0.000000  -0.000000   0.000000   0.000066   0.351354   0.000019
    24  H   -0.000000  -0.000000   0.000000   0.000124   0.000019   0.364276
    25  H   -0.000024   0.000000  -0.000022   0.000000   0.000000   0.000000
    26  H    0.000001  -0.000000   0.000043  -0.000000  -0.000000  -0.000000
    27  H    0.000132   0.000181  -0.003824  -0.000000  -0.000000   0.000000
    28  H    0.004524   0.229646  -0.002198  -0.000000   0.000000  -0.000000
    29  H   -0.008576   0.007587   0.206592   0.000000   0.000000  -0.000000
    30  H    0.224366  -0.001556  -0.007059   0.000000   0.000000  -0.000000
    31  H    0.000005  -0.000000  -0.000000  -0.000000  -0.000000   0.000000
    32  H    0.000106  -0.000000   0.000001  -0.000000   0.000000   0.000000
    33  H    0.015142  -0.000128   0.001536  -0.000000  -0.000000  -0.000000
              25         26         27         28         29         30
     1  Zr   0.016806   0.005723  -0.006808   0.005565   0.005518   0.001766
     2  O   -0.020021   0.000574  -0.018950  -0.000011  -0.007224  -0.000017
     3  O   -0.000121   0.000015   0.000645  -0.019092  -0.020771   0.000009
     4  O   -0.000102  -0.000013  -0.001858  -0.000013  -0.000165  -0.000454
     5  O   -0.000003  -0.000004  -0.000011  -0.000017  -0.000101  -0.000011
     6  Si   0.001525   0.000030   0.012722  -0.000249   0.000279  -0.000944
     7  Si  -0.000473  -0.000340   0.002622   0.057502   0.047797   0.039591
     8  Si   0.057927   0.047323   0.073030  -0.000086   0.021498  -0.000034
     9  Si  -0.000260  -0.000019   0.000078  -0.000104  -0.000025   0.000018
    10  O   -0.000000   0.000000   0.000000  -0.000000   0.000000   0.000000
    11  O   -0.000000   0.000000  -0.000000  -0.000000   0.000000   0.000000
    12  O   -0.000000  -0.000000  -0.000000  -0.000001  -0.000000   0.000000
    13  O    0.218952  -0.004963  -0.009730   0.000000   0.000803   0.000001
    14  O   -0.012216  -0.010038   0.219765  -0.000005   0.017448  -0.000025
    15  O    0.008800   0.216948   0.004745  -0.000001  -0.002574   0.000000
    16  O   -0.000059   0.000000   0.000156  -0.000000  -0.000004   0.000115
    17  O    0.000689  -0.000000   0.018572   0.000004  -0.000426  -0.000520
    18  O    0.015400   0.000008  -0.000257  -0.000000   0.000004  -0.000006
    19  O   -0.000024   0.000001   0.000132   0.004524  -0.008576   0.224366
    20  O    0.000000  -0.000000   0.000181   0.229646   0.007587  -0.001556
    21  O   -0.000022   0.000043  -0.003824  -0.002198   0.206592  -0.007059
    22  H    0.000000  -0.000000  -0.000000  -0.000000   0.000000   0.000000
    23  H    0.000000  -0.000000  -0.000000   0.000000   0.000000   0.000000
    24  H    0.000000  -0.000000   0.000000  -0.000000  -0.000000  -0.000000
    25  H    0.298508  -0.000014   0.000135   0.000000   0.000001   0.000000
    26  H   -0.000014   0.365575   0.000033   0.000000   0.000022  -0.000000
    27  H    0.000135   0.000033   0.282929  -0.000000  -0.001513   0.000012
    28  H    0.000000   0.000000  -0.000000   0.348682  -0.000016  -0.000016
    29  H    0.000001   0.000022  -0.001513  -0.000016   0.286099   0.000156
    30  H    0.000000  -0.000000   0.000012  -0.000016   0.000156   0.333928
    31  H   -0.000529   0.000000   0.000013  -0.000000   0.000000  -0.000000
    32  H   -0.000001   0.000000  -0.000000   0.000000  -0.000000  -0.000000
    33  H    0.000008  -0.000000  -0.002475  -0.000002   0.000091  -0.001142
              31         32         33
     1  Zr  -0.001885   0.001843  -0.016164
     2  O    0.000205  -0.000021   0.000976
     3  O   -0.000017   0.000044  -0.010221
     4  O   -0.018616   0.010243  -0.008741
     5  O   -0.000008   0.000005  -0.000114
     6  Si   0.064778   0.023155   0.051825
     7  Si   0.000168  -0.000580   0.020842
     8  Si  -0.001559   0.000040   0.000244
     9  Si  -0.000047   0.000081   0.000070
    10  O    0.000000  -0.000000  -0.000000
    11  O   -0.000000   0.000000   0.000000
    12  O    0.000000   0.000000   0.000000
    13  O    0.002397  -0.000008   0.000198
    14  O    0.000162  -0.000006   0.002018
    15  O   -0.000018   0.000000  -0.000032
    16  O    0.003809   0.233302   0.000145
    17  O   -0.000847  -0.003672   0.231927
    18  O    0.218596   0.003885   0.002020
    19  O    0.000005   0.000106   0.015142
    20  O   -0.000000  -0.000000  -0.000128
    21  O   -0.000000   0.000001   0.001536
    22  H   -0.000000  -0.000000  -0.000000
    23  H   -0.000000   0.000000  -0.000000
    24  H    0.000000   0.000000  -0.000000
    25  H   -0.000529  -0.000001   0.000008
    26  H    0.000000   0.000000  -0.000000
    27  H    0.000013  -0.000000  -0.002475
    28  H   -0.000000   0.000000  -0.000002
    29  H    0.000000  -0.000000   0.000091
    30  H   -0.000000  -0.000000  -0.001142
    31  H    0.331366   0.000003  -0.000038
    32  H    0.000003   0.349911   0.000154
    33  H   -0.000038   0.000154   0.268924
 Mulliken charges:
               1
     1  Zr   0.034082
     2  O   -0.540445
     3  O   -0.419817
     4  O   -0.692923
     5  O   -0.382830
     6  Si   2.237372
     7  Si   1.805283
     8  Si   2.009143
     9  Si   1.578044
    10  O   -0.829895
    11  O   -0.780646
    12  O   -0.809412
    13  O   -0.843660
    14  O   -0.879503
    15  O   -0.878650
    16  O   -0.736599
    17  O   -0.970974
    18  O   -1.086438
    19  O   -0.986021
    20  O   -0.806321
    21  O   -0.825149
    22  H    0.382140
    23  H    0.371403
    24  H    0.366243
    25  H    0.415094
    26  H    0.379096
    27  H    0.429655
    28  H    0.375889
    29  H    0.447499
    30  H    0.411824
    31  H    0.402063
    32  H    0.381514
    33  H    0.442939
 Sum of Mulliken charges =  -0.00000
 Mulliken charges with hydrogens summed into heavy atoms:
               1
     1  Zr   0.034082
     2  O   -0.540445
     3  O   -0.419817
     4  O   -0.692923
     5  O   -0.382830
     6  Si   2.237372
     7  Si   1.805283
     8  Si   2.009143
     9  Si   1.578044
    10  O   -0.458492
    11  O   -0.414403
    12  O   -0.427272
    13  O   -0.428565
    14  O   -0.449848
    15  O   -0.499554
    16  O   -0.355086
    17  O   -0.528036
    18  O   -0.684375
    19  O   -0.574198
    20  O   -0.430432
    21  O   -0.377649
 Electronic spatial extent (au):  <R**2>=           9925.2849
 Charge=             -0.0000 electrons
 Dipole moment (field-independent basis, Debye):
    X=              0.9027    Y=             -0.9344    Z=             -2.4548  Tot=              2.7774
 Quadrupole moment (field-independent basis, Debye-Ang):
   XX=           -160.0722   YY=           -156.3005   ZZ=           -157.9090
   XY=             -6.7132   XZ=              1.4584   YZ=              5.3853
 Traceless Quadrupole moment (field-independent basis, Debye-Ang):
   XX=             -1.9783   YY=              1.7934   ZZ=              0.1849
   XY=             -6.7132   XZ=              1.4584   YZ=              5.3853
 Octapole moment (field-independent basis, Debye-Ang**2):
  XXX=             70.9896  YYY=              6.1801  ZZZ=            -18.4377  XYY=             -4.5647
  XXY=             23.4589  XXZ=             16.9835  XZZ=              4.6633  YZZ=            -16.2198
  YYZ=            -11.7698  XYZ=             30.9968
 Hexadecapole moment (field-independent basis, Debye-Ang**3):
 XXXX=          -5956.1294 YYYY=          -2873.4872 ZZZZ=          -2275.9650 XXXY=             57.0949
 XXXZ=             35.2208 YYYX=            -27.6671 YYYZ=            245.2094 ZZZX=           -178.9708
 ZZZY=            -75.5976 XXYY=          -1527.8503 XXZZ=          -1373.7474 YYZZ=           -933.1276
 XXYZ=            -36.1734 YYXZ=             77.5921 ZZXY=            -60.7481
 N-N= 2.829017887515D+03 E-N=-1.137052401292D+04  KE= 2.373150655010D+03
 PrsmSu:  requested number of processors reduced to:   2 ShMem   1 Linda.
 PrsmSu:  requested number of processors reduced to:  10 ShMem   1 Linda.
   1 Symmetry operations used in ECPInt.
 ECPInt:  NShTT=   13203 NPrTT=   78401 LenC2=   11523 LenP2D=   44606.
 LDataN:  DoStor=T MaxTD1= 9 Len=  602
 Number of processors reduced to  14 by ecpmxn.
 Calling FoFJK, ICntrl=      2127 FMM=F ISym2X=0 I1Cent= 0 IOpClX= 0 NMat=1 NMatS=1 NMatT=0.
 CoulSu:  requested number of processors reduced to:  10 ShMem   1 Linda.
 Defaulting to unpruned grid for atomic number  40.
 Defaulting to unpruned grid for atomic number  40.
 Defaulting to unpruned grid for atomic number  40.
 Defaulting to unpruned grid for atomic number  40.
 Defaulting to unpruned grid for atomic number  40.
 Defaulting to unpruned grid for atomic number  40.
 Defaulting to unpruned grid for atomic number  40.
 Defaulting to unpruned grid for atomic number  40.
 Defaulting to unpruned grid for atomic number  40.
 Defaulting to unpruned grid for atomic number  40.
 Defaulting to unpruned grid for atomic number  40.
 Defaulting to unpruned grid for atomic number  40.
 Defaulting to unpruned grid for atomic number  40.
 Defaulting to unpruned grid for atomic number  40.
 Defaulting to unpruned grid for atomic number  40.
 Defaulting to unpruned grid for atomic number  40.
 ***** Axes restored to original set *****
 -------------------------------------------------------------------
 Center     Atomic                   Forces (Hartrees/Bohr)
 Number     Number              X              Y              Z
 -------------------------------------------------------------------
      1       40           0.001316973   -0.000344650   -0.000101004
      2        8           0.000206681   -0.000120649   -0.000175775
      3        8          -0.000088050    0.000488674    0.000037494
      4        8           0.000117538    0.000021557    0.000304312
      5        8          -0.001225251   -0.001013116   -0.000331150
      6       14          -0.000259289    0.000024259   -0.000128119
      7       14          -0.000016037    0.000026366   -0.000055559
      8       14          -0.000256619    0.000031498    0.000164872
      9       14          -0.000054832    0.002413931    0.000693595
     10        8          -0.000088002   -0.000312339   -0.000175044
     11        8          -0.000147248   -0.000548368   -0.000067760
     12        8          -0.000065841   -0.000562276   -0.000215423
     13        8           0.000081359    0.000006811   -0.000024358
     14        8           0.000101696   -0.000037337   -0.000034713
     15        8           0.000042712   -0.000024182   -0.000091453
     16        8           0.000055845   -0.000013161    0.000057591
     17        8           0.000090137   -0.000056422   -0.000021221
     18        8           0.000068218    0.000011084    0.000031414
     19        8           0.000028089   -0.000024283    0.000031721
     20        8           0.000030461   -0.000047340    0.000026031
     21        8           0.000015722   -0.000014108    0.000015936
     22        1          -0.000038126   -0.000117259   -0.000078854
     23        1           0.000073053    0.000015651    0.000004945
     24        1           0.000141283    0.000041735    0.000178291
     25        1          -0.000021528   -0.000009440    0.000002316
     26        1          -0.000008508    0.000008735    0.000022084
     27        1          -0.000016722    0.000018962   -0.000017541
     28        1          -0.000022144    0.000037716   -0.000002644
     29        1           0.000004911    0.000050826    0.000024969
     30        1          -0.000000755    0.000006467   -0.000009259
     31        1          -0.000022814   -0.000013662   -0.000012083
     32        1          -0.000017314    0.000012807   -0.000027201
     33        1          -0.000025599    0.000041513   -0.000026411
 -------------------------------------------------------------------
 Cartesian Forces:  Max     0.002413931 RMS     0.000354225

 GradGradGradGradGradGradGradGradGradGradGradGradGradGradGradGradGradGrad
 Berny optimization.
 FormGI is forming the generalized inverse of G from B-inverse, IUseBI=4.
 Internal  Forces:  Max     0.001458311 RMS     0.000218365
 Search for a local minimum.
 Step number   1 out of a maximum of  153
 All quantities printed in internal units (Hartrees-Bohrs-Radians)
 Mixed Optimization -- En-DIIS/RFO-DIIS
 Second derivative matrix not updated -- first step.
 ITU=  0
     Eigenvalues ---    0.00230   0.00230   0.00230   0.02224   0.03240
     Eigenvalues ---    0.03358   0.03498   0.03580   0.03665   0.03665
     Eigenvalues ---    0.03680   0.03686   0.03693   0.03739   0.03789
     Eigenvalues ---    0.03792   0.03816   0.03834   0.03850   0.06172
     Eigenvalues ---    0.06893   0.07286   0.11077   0.11224   0.11833
     Eigenvalues ---    0.11884   0.12177   0.12221   0.12239   0.12761
     Eigenvalues ---    0.12895   0.13099   0.13313   0.16000   0.16000
     Eigenvalues ---    0.16000   0.16000   0.16000   0.16000   0.16000
     Eigenvalues ---    0.16000   0.16000   0.16000   0.16000   0.16000
     Eigenvalues ---    0.18686   0.19173   0.19182   0.19451   0.20203
     Eigenvalues ---    0.20203   0.20208   0.20466   0.20515   0.20653
     Eigenvalues ---    0.20795   0.20989   0.21175   0.21186   0.25000
     Eigenvalues ---    0.25000   0.25000   0.38002   0.39187   0.40659
     Eigenvalues ---    0.41547   0.42502   0.42508   0.42670   0.42743
     Eigenvalues ---    0.42824   0.43363   0.43951   0.43980   0.44273
     Eigenvalues ---    0.44485   0.44689   0.44768   0.50655   0.51353
     Eigenvalues ---    0.52036   0.52548   0.54334   0.54624   0.54641
     Eigenvalues ---    0.54649   0.54689   0.54692   0.54713   0.54765
     Eigenvalues --- 1000.000001000.000001000.000001000.000001000.00000
     Eigenvalues --- 1000.000001000.000001000.000001000.000001000.00000
     Eigenvalues --- 1000.000001000.000001000.000001000.000001000.00000
     Eigenvalues --- 1000.000001000.000001000.000001000.000001000.00000
     Eigenvalues --- 1000.000001000.000001000.000001000.000001000.00000
     Eigenvalues --- 1000.000001000.000001000.000001000.000001000.00000
     Eigenvalues --- 1000.000001000.000001000.000001000.000001000.00000
     Eigenvalues --- 1000.000001000.000001000.000001000.000001000.00000
     Eigenvalues --- 1000.000001000.000001000.000001000.000001000.00000
     Eigenvalues --- 1000.000001000.000001000.000001000.000001000.00000
     Eigenvalues --- 1000.000001000.000001000.00000
 RFO step:  Lambda=-3.27185764D-05 EMin= 2.30000000D-03
 Linear search not attempted -- first point.
 Iteration  1 RMS(Cart)=  0.02703974 RMS(Int)=  0.00020209
 Iteration  2 RMS(Cart)=  0.00034757 RMS(Int)=  0.00000085
 Iteration  3 RMS(Cart)=  0.00000004 RMS(Int)=  0.00000085
 Iteration  1 RMS(Cart)=  0.00000034 RMS(Int)=  0.00000004
 Variable       Old X    -DE/DX   Delta X   Delta X   Delta X     New X
                                 (Linear)    (Quad)   (Total)
    R1        3.67647  -0.00013   0.00000  -0.00063  -0.00063   3.67584
    R2        3.69189   0.00051   0.00000   0.00251   0.00251   3.69440
    R3        3.73835  -0.00015   0.00000  -0.00079  -0.00079   3.73756
    R4        3.70232  -0.00137   0.00000  -0.00680  -0.00680   3.69552
    R5        3.11688   0.00008   0.00000   0.00019   0.00019   3.11706
    R6        3.09579  -0.00001   0.00000  -0.00001  -0.00001   3.09578
    R7        3.10213   0.00013   0.00000   0.00030   0.00030   3.10243
    R8        3.09246  -0.00029   0.00000  -0.00066  -0.00066   3.09180
    R9        3.11587  -0.00003   0.00000  -0.00008  -0.00008   3.11579
   R10        3.11989  -0.00007   0.00000  -0.00016  -0.00016   3.11973
   R11        3.14367  -0.00000   0.00000  -0.00001  -0.00001   3.14366
   R12        3.18062  -0.00003   0.00000  -0.00008  -0.00008   3.18054
   R13        3.10924  -0.00001   0.00000  -0.00002  -0.00002   3.10922
   R14        3.09339   0.00002   0.00000   0.00005   0.00005   3.09344
   R15        3.10179  -0.00001   0.00000  -0.00003  -0.00003   3.10176
   R16        3.16373  -0.00005   0.00000  -0.00012  -0.00012   3.16362
   R17        3.09830  -0.00007   0.00000  -0.00015  -0.00015   3.09814
   R18        3.11981   0.00015   0.00000   0.00035   0.00035   3.12016
   R19        3.13204   0.00049   0.00000   0.00119   0.00119   3.13323
   R20        3.11779  -0.00072   0.00000  -0.00168  -0.00168   3.11611
   R21        1.82153  -0.00001   0.00000  -0.00001  -0.00001   1.82152
   R22        1.82106   0.00007   0.00000   0.00012   0.00012   1.82119
   R23        1.82088  -0.00005   0.00000  -0.00010  -0.00010   1.82079
   R24        1.84078   0.00000   0.00000   0.00000   0.00000   1.84079
   R25        1.84565   0.00002   0.00000   0.00004   0.00004   1.84568
   R26        1.82041   0.00002   0.00000   0.00003   0.00003   1.82045
   R27        1.82109   0.00001   0.00000   0.00001   0.00001   1.82111
   R28        1.85910   0.00004   0.00000   0.00008   0.00008   1.85918
   R29        1.82145   0.00002   0.00000   0.00003   0.00003   1.82149
   R30        1.82428   0.00001   0.00000   0.00001   0.00001   1.82430
   R31        1.82168   0.00002   0.00000   0.00003   0.00003   1.82171
   R32        1.85224  -0.00004   0.00000  -0.00008  -0.00008   1.85216
    A1        1.85172   0.00032   0.00000   0.00182   0.00182   1.85355
    A2        1.80155  -0.00030   0.00000  -0.00081  -0.00081   1.80074
    A3        1.96889  -0.00008   0.00000  -0.00036  -0.00036   1.96853
    A4        1.83430   0.00017   0.00000   0.00046   0.00046   1.83477
    A5        2.01802  -0.00020   0.00000  -0.00117  -0.00117   2.01686
    A6        1.97057   0.00010   0.00000   0.00020   0.00020   1.97077
    A7        2.46524  -0.00012   0.00000  -0.00049  -0.00049   2.46475
    A8        2.58826   0.00021   0.00000   0.00085   0.00085   2.58911
    A9        2.35483   0.00020   0.00000   0.00079   0.00079   2.35562
[...]
 Alpha virt. eigenvalues --    3.13830   3.20294   3.35823   3.40962   3.47208
 Alpha virt. eigenvalues --    3.47816   3.48396   3.48627   3.51074   3.51112
 Alpha virt. eigenvalues --    3.53157   3.54331   3.60278   3.61024   3.62101
 Alpha virt. eigenvalues --    3.66130   4.26036   4.56835   8.02435  31.34195
          Condensed to atoms (all electrons):
               1          2          3          4          5          6
     1  Zr  14.712476  -0.085214  -0.028655  -0.046234  -0.197822  -0.609555
     2  O   -0.085214   9.071563   0.024524  -0.044445  -0.060413   0.080354
     3  O   -0.028655   0.024524   8.894667   0.017011  -0.059405   0.002532
     4  O   -0.046234  -0.044445   0.017011   8.839066  -0.049933  -0.759312
     5  O   -0.197822  -0.060413  -0.059405  -0.049933   9.521531  -0.015971
     6  Si  -0.609555   0.080354   0.002532  -0.759312  -0.015971  14.152655
     7  Si  -0.549209  -0.034317  -0.912504  -0.013534  -0.041311   0.072011
     8  Si  -0.562415  -1.039795  -0.009170   0.049782  -0.025228   0.002140
     9  Si  -0.253812  -0.051339  -0.051275  -0.043511  -1.274143   0.024852
    10  O   -0.004821   0.001577  -0.000443   0.001809   0.135303  -0.001259
    11  O   -0.031204   0.002724   0.002407   0.000494   0.268271  -0.001514
    12  O    0.014642   0.000373   0.003777   0.002197   0.169087  -0.002430
    13  O   -0.034553   0.181889   0.001942  -0.016310   0.000043   0.040914
    14  O   -0.001541   0.275463  -0.014795  -0.006938   0.003835   0.020837
    15  O   -0.084875   0.295722  -0.000910   0.001406   0.000342  -0.001269
    16  O   -0.128554   0.004668  -0.000559   0.343411   0.003017  -0.411457
    17  O   -0.010006  -0.040510   0.009073   0.227046   0.001978  -0.510899
    18  O   -0.006302  -0.014312   0.003919   0.198024  -0.000106  -0.467593
    19  O    0.002325   0.008893   0.261475   0.008831   0.002533  -0.003818
    20  O   -0.153968  -0.000495   0.179810  -0.000866   0.002420   0.008543
    21  O    0.031296   0.010133   0.145659   0.003091   0.000205  -0.007859
    22  H   -0.002853  -0.000014  -0.000024  -0.000008   0.006043   0.000031
    23  H   -0.009217  -0.000012   0.000001  -0.000018  -0.024759   0.000041
    24  H   -0.004963  -0.000290  -0.000020   0.000010  -0.008129   0.000129
    25  H    0.017076  -0.020005  -0.000120  -0.000089  -0.000000   0.001386
    26  H    0.005618   0.000619   0.000016  -0.000013  -0.000004   0.000027
    27  H   -0.006543  -0.018798   0.000616  -0.001988  -0.000012   0.012971
    28  H    0.005659  -0.000011  -0.019012  -0.000013  -0.000018  -0.000255
    29  H    0.005469  -0.007155  -0.020669  -0.000160  -0.000100   0.000267
    30  H    0.001718  -0.000017   0.000035  -0.000458  -0.000012  -0.000926
    31  H   -0.001710   0.000211  -0.000017  -0.018645  -0.000008   0.064630
    32  H    0.001828  -0.000020   0.000043   0.010059   0.000006   0.023120
    33  H   -0.016319   0.000910  -0.010184  -0.008673  -0.000117   0.051837
               7          8          9         10         11         12
     1  Zr  -0.549209  -0.562415  -0.253812  -0.004821  -0.031204   0.014642
     2  O   -0.034317  -1.039795  -0.051339   0.001577   0.002724   0.000373
     3  O   -0.912504  -0.009170  -0.051275  -0.000443   0.002407   0.003777
     4  O   -0.013534   0.049782  -0.043511   0.001809   0.000494   0.002197
     5  O   -0.041311  -0.025228  -1.274143   0.135303   0.268271   0.169087
     6  Si   0.072011   0.002140   0.024852  -0.001259  -0.001514  -0.002430
     7  Si  13.824335   0.174331   0.019433  -0.000931  -0.001419   0.002907
     8  Si   0.174331  13.871637   0.023371  -0.000894   0.000207  -0.000447
     9  Si   0.019433   0.023371  14.303524  -0.109129  -0.134340  -0.168835
    10  O   -0.000931  -0.000894  -0.109129   8.527189   0.041088   0.012199
    11  O   -0.001419   0.000207  -0.134340   0.041088   8.447651  -0.049835
    12  O    0.002907  -0.000447  -0.168835   0.012199  -0.049835   8.600987
    13  O    0.007352  -0.098306   0.000598   0.000001   0.000033   0.000001
    14  O    0.000786  -0.395347  -0.002103  -0.000004  -0.000002   0.000005
    15  O   -0.003153  -0.306220  -0.001201  -0.000001  -0.000023   0.000003
    16  O    0.004093  -0.010265  -0.000689  -0.000003   0.000002  -0.000003
    17  O   -0.009672   0.081642   0.001126  -0.000004   0.000002  -0.000004
    18  O   -0.000894   0.071397   0.004071  -0.000006   0.000006  -0.000001
    19  O   -0.408489  -0.013426   0.000927   0.000003  -0.000004  -0.000010
    20  O   -0.126465   0.009408   0.002416   0.000001  -0.000002  -0.000021
    21  O    0.024553  -0.035415  -0.001259   0.000001  -0.000001   0.000004
    22  H   -0.000098   0.000034   0.040586  -0.006962  -0.005113   0.221636
    23  H    0.000071   0.000082   0.084644   0.227915  -0.007359   0.005842
    24  H    0.000045  -0.000162   0.036522   0.007157   0.248529  -0.008011
    25  H   -0.000478   0.058172  -0.000264  -0.000000  -0.000000  -0.000000
    26  H   -0.000336   0.047578  -0.000019   0.000000   0.000000  -0.000000
    27  H    0.002789   0.072539   0.000079   0.000000  -0.000000  -0.000000
    28  H    0.057324  -0.000092  -0.000104  -0.000000  -0.000000  -0.000001
    29  H    0.047639   0.021259  -0.000022   0.000000   0.000000  -0.000000
    30  H    0.039761  -0.000037   0.000018  -0.000000   0.000000   0.000000
    31  H    0.000163  -0.001582  -0.000046   0.000000  -0.000000   0.000000
    32  H   -0.000576   0.000050   0.000079  -0.000000   0.000000   0.000000
    33  H    0.020867   0.000183   0.000071  -0.000000   0.000000   0.000000
              13         14         15         16         17         18
     1  Zr  -0.034553  -0.001541  -0.084875  -0.128554  -0.010006  -0.006302
     2  O    0.181889   0.275463   0.295722   0.004668  -0.040510  -0.014312
     3  O    0.001942  -0.014795  -0.000910  -0.000559   0.009073   0.003919
     4  O   -0.016310  -0.006938   0.001406   0.343411   0.227046   0.198024
     5  O    0.000043   0.003835   0.000342   0.003017   0.001978  -0.000106
     6  Si   0.040914   0.020837  -0.001269  -0.411457  -0.510899  -0.467593
     7  Si   0.007352   0.000786  -0.003153   0.004093  -0.009672  -0.000894
     8  Si  -0.098306  -0.395347  -0.306220  -0.010265   0.081642   0.071397
     9  Si   0.000598  -0.002103  -0.001201  -0.000689   0.001126   0.004071
    10  O    0.000001  -0.000004  -0.000001  -0.000003  -0.000004  -0.000006
    11  O    0.000033  -0.000002  -0.000023   0.000002   0.000002   0.000006
    12  O    0.000001   0.000005   0.000003  -0.000003  -0.000004  -0.000001
    13  O    8.628142   0.088734  -0.090275   0.003789  -0.030814  -0.046123
    14  O    0.088734   8.684849   0.056062   0.003839  -0.036195  -0.026564
    15  O   -0.090275   0.056062   8.781002  -0.000181   0.003503   0.001806
    16  O    0.003789   0.003839  -0.000181   8.894347  -0.091617  -0.112778
    17  O   -0.030814  -0.036195   0.003503  -0.091617   8.935634   0.229074
    18  O   -0.046123  -0.026564   0.001806  -0.112778   0.229074   9.012021
    19  O    0.000137  -0.000168   0.000148  -0.001509  -0.031006   0.000106
    20  O    0.000009   0.000120   0.000040   0.000072  -0.000809   0.000010
    21  O   -0.000281   0.015181  -0.000565  -0.000216  -0.005164   0.000487
    22  H    0.000000  -0.000000  -0.000000   0.000000   0.000000  -0.000000
    23  H    0.000000   0.000000  -0.000000  -0.000000   0.000000  -0.000000
    24  H   -0.000001   0.000000   0.000003   0.000000  -0.000000  -0.000000
    25  H    0.218495  -0.012194   0.008848  -0.000054   0.000704   0.015346
    26  H   -0.004955  -0.010101   0.216788   0.000000  -0.000002   0.000007
    27  H   -0.009677   0.219603   0.004692   0.000166   0.018664  -0.000265
    28  H    0.000000  -0.000005  -0.000001  -0.000000   0.000004  -0.000000
    29  H    0.000800   0.017335  -0.002574  -0.000004  -0.000430   0.000003
    30  H    0.000001  -0.000033   0.000000   0.000113  -0.000531  -0.000006
    31  H    0.002421   0.000167  -0.000019   0.003846  -0.000901   0.218571
    32  H   -0.000008  -0.000006   0.000000   0.233609  -0.003728   0.003966
    33  H    0.000193   0.002013  -0.000031   0.000088   0.232406   0.002050
              19         20         21         22         23         24
     1  Zr   0.002325  -0.153968   0.031296  -0.002853  -0.009217  -0.004963
     2  O    0.008893  -0.000495   0.010133  -0.000014  -0.000012  -0.000290
     3  O    0.261475   0.179810   0.145659  -0.000024   0.000001  -0.000020
     4  O    0.008831  -0.000866   0.003091  -0.000008  -0.000018   0.000010
     5  O    0.002533   0.002420   0.000205   0.006043  -0.024759  -0.008129
     6  Si  -0.003818   0.008543  -0.007859   0.000031   0.000041   0.000129
     7  Si  -0.408489  -0.126465   0.024553  -0.000098   0.000071   0.000045
     8  Si  -0.013426   0.009408  -0.035415   0.000034   0.000082  -0.000162
     9  Si   0.000927   0.002416  -0.001259   0.040586   0.084644   0.036522
    10  O    0.000003   0.000001   0.000001  -0.006962   0.227915   0.007157
    11  O   -0.000004  -0.000002  -0.000001  -0.005113  -0.007359   0.248529
    12  O   -0.000010  -0.000021   0.000004   0.221636   0.005842  -0.008011
    13  O    0.000137   0.000009  -0.000281   0.000000   0.000000  -0.000001
    14  O   -0.000168   0.000120   0.015181  -0.000000   0.000000   0.000000
    15  O    0.000148   0.000040  -0.000565  -0.000000  -0.000000   0.000003
    16  O   -0.001509   0.000072  -0.000216   0.000000  -0.000000   0.000000
    17  O   -0.031006  -0.000809  -0.005164   0.000000   0.000000  -0.000000
    18  O    0.000106   0.000010   0.000487  -0.000000  -0.000000  -0.000000
    19  O    8.869133   0.034155   0.021179   0.000000   0.000000  -0.000000
    20  O    0.034155   8.666328  -0.049190   0.000000  -0.000000  -0.000000
    21  O    0.021179  -0.049190   8.479059  -0.000000   0.000000   0.000000
    22  H    0.000000   0.000000  -0.000000   0.364281   0.000074   0.000148
    23  H    0.000000  -0.000000   0.000000   0.000074   0.350269   0.000010
    24  H   -0.000000  -0.000000   0.000000   0.000148   0.000010   0.363499
    25  H   -0.000024   0.000000  -0.000022   0.000000   0.000000   0.000000
    26  H    0.000001  -0.000000   0.000044  -0.000000  -0.000000  -0.000000
    27  H    0.000124   0.000183  -0.003899  -0.000000  -0.000000   0.000000
    28  H    0.004436   0.229440  -0.002067  -0.000000   0.000000   0.000000
    29  H   -0.008625   0.007614   0.206752   0.000000   0.000000  -0.000000
    30  H    0.223990  -0.001493  -0.007069   0.000000   0.000000  -0.000000
    31  H    0.000005  -0.000000  -0.000000  -0.000000  -0.000000   0.000000
    32  H    0.000105  -0.000000   0.000001  -0.000000   0.000000   0.000000
    33  H    0.015114  -0.000118   0.001526  -0.000000  -0.000000  -0.000000
              25         26         27         28         29         30
     1  Zr   0.017076   0.005618  -0.006543   0.005659   0.005469   0.001718
     2  O   -0.020005   0.000619  -0.018798  -0.000011  -0.007155  -0.000017
     3  O   -0.000120   0.000016   0.000616  -0.019012  -0.020669   0.000035
     4  O   -0.000089  -0.000013  -0.001988  -0.000013  -0.000160  -0.000458
     5  O   -0.000000  -0.000004  -0.000012  -0.000018  -0.000100  -0.000012
     6  Si   0.001386   0.000027   0.012971  -0.000255   0.000267  -0.000926
     7  Si  -0.000478  -0.000336   0.002789   0.057324   0.047639   0.039761
     8  Si   0.058172   0.047578   0.072539  -0.000092   0.021259  -0.000037
     9  Si  -0.000264  -0.000019   0.000079  -0.000104  -0.000022   0.000018
    10  O   -0.000000   0.000000   0.000000  -0.000000   0.000000  -0.000000
    11  O   -0.000000   0.000000  -0.000000  -0.000000   0.000000   0.000000
    12  O   -0.000000  -0.000000  -0.000000  -0.000001  -0.000000   0.000000
    13  O    0.218495  -0.004955  -0.009677   0.000000   0.000800   0.000001
    14  O   -0.012194  -0.010101   0.219603  -0.000005   0.017335  -0.000033
    15  O    0.008848   0.216788   0.004692  -0.000001  -0.002574   0.000000
    16  O   -0.000054   0.000000   0.000166  -0.000000  -0.000004   0.000113
    17  O    0.000704  -0.000002   0.018664   0.000004  -0.000430  -0.000531
    18  O    0.015346   0.000007  -0.000265  -0.000000   0.000003  -0.000006
    19  O   -0.000024   0.000001   0.000124   0.004436  -0.008625   0.223990
    20  O    0.000000  -0.000000   0.000183   0.229440   0.007614  -0.001493
    21  O   -0.000022   0.000044  -0.003899  -0.002067   0.206752  -0.007069
    22  H    0.000000  -0.000000  -0.000000  -0.000000   0.000000   0.000000
    23  H    0.000000  -0.000000  -0.000000   0.000000   0.000000   0.000000
    24  H    0.000000  -0.000000   0.000000   0.000000  -0.000000  -0.000000
    25  H    0.298628  -0.000014   0.000135   0.000000   0.000001   0.000000
    26  H   -0.000014   0.365740   0.000034   0.000000   0.000022  -0.000000
    27  H    0.000135   0.000034   0.282693  -0.000000  -0.001446   0.000012
    28  H    0.000000   0.000000  -0.000000   0.348791  -0.000015  -0.000015
    29  H    0.000001   0.000022  -0.001446  -0.000015   0.286319   0.000156
    30  H    0.000000  -0.000000   0.000012  -0.000015   0.000156   0.334172
    31  H   -0.000530   0.000000   0.000013  -0.000000   0.000000  -0.000000
    32  H   -0.000001   0.000000  -0.000000   0.000000  -0.000000  -0.000000
    33  H    0.000008  -0.000000  -0.002518  -0.000002   0.000090  -0.001121
              31         32         33
     1  Zr  -0.001710   0.001828  -0.016319
     2  O    0.000211  -0.000020   0.000910
     3  O   -0.000017   0.000043  -0.010184
     4  O   -0.018645   0.010059  -0.008673
     5  O   -0.000008   0.000006  -0.000117
     6  Si   0.064630   0.023120   0.051837
     7  Si   0.000163  -0.000576   0.020867
     8  Si  -0.001582   0.000050   0.000183
     9  Si  -0.000046   0.000079   0.000071
    10  O    0.000000  -0.000000  -0.000000
    11  O   -0.000000   0.000000   0.000000
    12  O    0.000000   0.000000   0.000000
    13  O    0.002421  -0.000008   0.000193
    14  O    0.000167  -0.000006   0.002013
    15  O   -0.000019   0.000000  -0.000031
    16  O    0.003846   0.233609   0.000088
    17  O   -0.000901  -0.003728   0.232406
    18  O    0.218571   0.003966   0.002050
    19  O    0.000005   0.000105   0.015114
    20  O   -0.000000  -0.000000  -0.000118
    21  O   -0.000000   0.000001   0.001526
    22  H   -0.000000  -0.000000  -0.000000
    23  H   -0.000000   0.000000  -0.000000
    24  H    0.000000   0.000000  -0.000000
    25  H   -0.000530  -0.000001   0.000008
    26  H    0.000000   0.000000  -0.000000
    27  H    0.000013  -0.000000  -0.002518
    28  H   -0.000000   0.000000  -0.000002
    29  H    0.000000  -0.000000   0.000090
    30  H   -0.000000  -0.000000  -0.001121
    31  H    0.331178   0.000000  -0.000038
    32  H    0.000000   0.349924   0.000156
    33  H   -0.000038   0.000156   0.268730
 Mulliken charges:
               1
     1  Zr   0.032239
     2  O   -0.542462
     3  O   -0.419746
     4  O   -0.691090
     5  O   -0.357123
     6  Si   2.234839
     7  Si   1.804926
     8  Si   2.014991
     9  Si   1.549774
    10  O   -0.829785
    11  O   -0.780599
    12  O   -0.804063
    13  O   -0.844190
    14  O   -0.882835
    15  O   -0.879068
    16  O   -0.737170
    17  O   -0.968563
    18  O   -1.085915
    19  O   -0.986543
    20  O   -0.807142
    21  O   -0.826170
    22  H    0.382240
    23  H    0.372417
    24  H    0.365524
    25  H    0.414996
    26  H    0.378950
    27  H    0.429832
    28  H    0.375956
    29  H    0.447476
    30  H    0.411741
    31  H    0.402290
    32  H    0.381393
    33  H    0.442879
 Sum of Mulliken charges =  -0.00000
 Mulliken charges with hydrogens summed into heavy atoms:
               1
     1  Zr   0.032239
     2  O   -0.542462
     3  O   -0.419746
     4  O   -0.691090
     5  O   -0.357123
     6  Si   2.234839
     7  Si   1.804926
     8  Si   2.014991
     9  Si   1.549774
    10  O   -0.457368
    11  O   -0.415074
    12  O   -0.421823
    13  O   -0.429194
    14  O   -0.453003
    15  O   -0.500117
    16  O   -0.355776
    17  O   -0.525684
    18  O   -0.683625
    19  O   -0.574802
    20  O   -0.431186
    21  O   -0.378694
 Electronic spatial extent (au):  <R**2>=           9921.7175
 Charge=             -0.0000 electrons
 Dipole moment (field-independent basis, Debye):
    X=              1.0186    Y=             -0.8719    Z=             -2.3832  Tot=              2.7345
 Quadrupole moment (field-independent basis, Debye-Ang):
   XX=           -158.9437   YY=           -156.5355   ZZ=           -157.8085
   XY=             -6.5775   XZ=              1.8776   YZ=              5.3518
 Traceless Quadrupole moment (field-independent basis, Debye-Ang):
   XX=             -1.1811   YY=              1.2271   ZZ=             -0.0459
   XY=             -6.5775   XZ=              1.8776   YZ=              5.3518
 Octapole moment (field-independent basis, Debye-Ang**2):
  XXX=             78.4604  YYY=              6.8113  ZZZ=            -17.6777  XYY=             -5.5487
  XXY=             22.8086  XXZ=             19.3045  XZZ=              5.2516  YZZ=            -16.1647
  YYZ=            -12.4225  XYZ=             30.1944
 Hexadecapole moment (field-independent basis, Debye-Ang**3):
 XXXX=          -5906.1117 YYYY=          -2876.7376 ZZZZ=          -2278.1090 XXXY=             53.4036
 XXXZ=             41.6749 YYYX=            -26.3028 YYYZ=            245.2415 ZZZX=           -174.1226
 ZZZY=            -75.3622 XXYY=          -1525.6942 XXZZ=          -1367.2052 YYZZ=           -933.9072
 XXYZ=            -39.3640 YYXZ=             78.5140 ZZXY=            -63.0673
 N-N= 2.829156400386D+03 E-N=-1.137084130405D+04  KE= 2.373155142650D+03
 1\1\GINC-GRA632\FOpt\RB3LYP\Gen\H12O16Si4Zr1\SARASHS\12-Aug-2020\0\\#n
  B3LYP/Gen Pseudo=cards EmpiricalDispersion=GD3 Opt=modredundant\\Titl
 e\\0,1\Zr,0.6554663032,-0.1308027736,-0.0673617235\O,-0.2193979966,-0.
 9186165139,1.4819090819\O,0.1028161421,1.7441012329,-0.1173122603\O,-0
 .2735517402,-0.9828378379,-1.5912265777\O,2.5870901668,-0.4367154809,-
 0.0827455042\Si,-1.8357302647,-1.3319826401,-1.9551174534\Si,-1.112861
 8607,2.8410560243,-0.0792304779\Si,-1.7240036712,-1.1592077963,2.11385
 59906\Si,4.2105660606,-0.6376533236,-0.08217767\O,4.8747811378,-0.6397
 473354,-1.5936683358\O,4.6064229424,-2.1135972397,0.5622271582\O,4.807
 0341232,0.6482546454,0.7598998793\O,-2.32392051,-2.6278477021,1.692830
 9345\O,-2.716687196,0.0631320949,1.5452666463\O,-1.602881497,-1.026306
 2639,3.7434714626\O,-2.0001619113,-1.5586916912,-3.5799124172\O,-2.828
 4917782,-0.183491818,-1.3062183529\O,-2.3552336015,-2.7128725582,-1.18
 67675587\O,-2.0366784696,2.4413319497,-1.4282290571\O,-0.6290052904,4.
 3989073132,-0.2947805953\O,-1.9653284353,2.7628350195,1.3162781792\H,5
 .754543222,0.8091980995,0.6905450507\H,5.0246552265,-1.5074558034,-1.9
 856720748\H,4.1940424443,-2.3592731502,1.397900963\H,-2.4131069294,-2.
 811494511,0.7403911621\H,-2.3899870988,-1.2263857391,4.2615981525\H,-3
 .0543764742,-0.0834172994,0.6405708591\H,-0.529178574,4.9273634,0.5052
 528634\H,-2.2677766014,1.8712668241,1.5883239807\H,-2.6413973622,3.130
 766462,-1.7298099417\H,-2.3212073302,-3.5270701683,-1.7015261036\H,-1.
 2694240027,-1.2597623234,-4.1324767779\H,-2.6104191735,0.757406904,-1.
 4932994821\\Version=ES64L-G16RevB.01\State=1-A\HF=-2416.9467083\RMSD=5
 .073e-09\RMSF=9.132e-05\Dipole=0.340127,-0.3772635,-0.948378\Quadrupol
 e=-1.8563197,1.9020612,-0.0457415,-4.5060664,1.8291251,3.9132321\PG=C0
 1 [X(H12O16Si4Zr1)]\\@


 ABSOLUTISM, OBSOLETISM -- IF IT WORKS, IT'S OUT OF DATE

                          -- STAFFORD BEER
 Job cpu time:       0 days 16 hours 39 minutes 37.9 seconds.
 Elapsed time:       0 days  1 hours 14 minutes 15.9 seconds.
 File lengths (MBytes):  RWF=    167 Int=      0 D2E=      0 Chk=     21 Scr=      1
 Normal termination of Gaussian 16 at Wed Aug 12 20:57:24 2020.
