 Entering Gaussian System, Link 0=g16
 Initial command:
 /opt/software/gaussian/g16.b01/l1.exe "/localscratch/sarashs.37192510.0/Gau-16437.inp" -scrdir="/localscratch/sarashs.37192510.0/"
 Entering Link 1 = /opt/software/gaussian/g16.b01/l1.exe PID=     16438.
  
 Copyright (c) 1988-2017, Gaussian, Inc.  All Rights Reserved.
  
 This is part of the Gaussian(R) 16 program.  It is based on
 the Gaussian(R) 09 system (copyright 2009, Gaussian, Inc.),
 the Gaussian(R) 03 system (copyright 2003, Gaussian, Inc.),
 the Gaussian(R) 98 system (copyright 1998, Gaussian, Inc.),
 the Gaussian(R) 94 system (copyright 1995, Gaussian, Inc.),
 the Gaussian 92(TM) system (copyright 1992, Gaussian, Inc.),
 the Gaussian 90(TM) system (copyright 1990, Gaussian, Inc.),
 the Gaussian 88(TM) system (copyright 1988, Gaussian, Inc.),
 the Gaussian 86(TM) system (copyright 1986, Carnegie Mellon
 University), and the Gaussian 82(TM) system (copyright 1983,
 Carnegie Mellon University). Gaussian is a federally registered
 trademark of Gaussian, Inc.
  
 This software contains proprietary and confidential information,
 including trade secrets, belonging to Gaussian, Inc.
  
 This software is provided under written license and may be
 used, copied, transmitted, or stored only in accord with that
 written license.
  
 The following legend is applicable only to US Government
 contracts under FAR:
  
                    RESTRICTED RIGHTS LEGEND
  
 Use, reproduction and disclosure by the US Government is
 subject to restrictions as set forth in subparagraphs (a)
 and (c) of the Commercial Computer Software - Restricted
 Rights clause in FAR 52.227-19.
  
 Gaussian, Inc.
 340 Quinnipiac St., Bldg. 40, Wallingford CT 06492
  
  
 ---------------------------------------------------------------
 Warning -- This program may not be used in any manner that
 competes with the business of Gaussian, Inc. or will provide
 assistance to any competitor of Gaussian, Inc.  The licensee
 of this program is prohibited from giving any competitor of
 Gaussian, Inc. access to this program.  By using this program,
 the user acknowledges that Gaussian, Inc. is engaged in the
 business of creating and licensing software in the field of
 computational chemistry and represents and warrants to the
 licensee that it is not a competitor of Gaussian, Inc. and that
 it will not use this program in any manner prohibited above.
 ---------------------------------------------------------------
  

 Cite this work as:
 Gaussian 16, Revision B.01,
 M. J. Frisch, G. W. Trucks, H. B. Schlegel, G. E. Scuseria, 
 M. A. Robb, J. R. Cheeseman, G. Scalmani, V. Barone, 
 G. A. Petersson, H. Nakatsuji, X. Li, M. Caricato, A. V. Marenich, 
 J. Bloino, B. G. Janesko, R. Gomperts, B. Mennucci, H. P. Hratchian, 
 J. V. Ortiz, A. F. Izmaylov, J. L. Sonnenberg, D. Williams-Young, 
 F. Ding, F. Lipparini, F. Egidi, J. Goings, B. Peng, A. Petrone, 
 T. Henderson, D. Ranasinghe, V. G. Zakrzewski, J. Gao, N. Rega, 
 G. Zheng, W. Liang, M. Hada, M. Ehara, K. Toyota, R. Fukuda, 
 J. Hasegawa, M. Ishida, T. Nakajima, Y. Honda, O. Kitao, H. Nakai, 
 T. Vreven, K. Throssell, J. A. Montgomery, Jr., J. E. Peralta, 
 F. Ogliaro, M. J. Bearpark, J. J. Heyd, E. N. Brothers, K. N. Kudin, 
 V. N. Staroverov, T. A. Keith, R. Kobayashi, J. Normand, 
 K. Raghavachari, A. P. Rendell, J. C. Burant, S. S. Iyengar, 
 J. Tomasi, M. Cossi, J. M. Millam, M. Klene, C. Adamo, R. Cammi, 
 J. W. Ochterski, R. L. Martin, K. Morokuma, O. Farkas, 
 J. B. Foresman, and D. J. Fox, Gaussian, Inc., Wallingford CT, 2016.
 
 ******************************************
 Gaussian 16:  ES64L-G16RevB.01 20-Dec-2017
                12-Aug-2020 
 ******************************************
 %NProcShared=16
 Will use up to   16 processors via shared memory.
 ------------------------------------------------------------------
 #n B3LYP/Gen Pseudo=cards EmpiricalDispersion=GD3 Opt=modredundant
 ------------------------------------------------------------------
 1/18=120,19=15,26=3,38=1/1,3;
 2/9=110,12=2,17=6,18=5,40=1/2;
 3/5=7,11=2,16=1,17=8,25=1,30=1,71=1,74=-5,124=31/1,2,3;
 4//1;
 5/5=2,38=5/2;
 6/7=2,8=2,9=2,10=2,28=1/1;
 7//1,2,3,16;
 1/18=20,19=15,26=3/3(2);
 2/9=110/2;
 99//99;
 2/9=110/2;
 3/5=7,6=1,11=2,16=1,17=8,25=1,30=1,71=1,74=-5,82=7,124=31/1,2,3;
 4/5=5,16=3,69=1/1;
 5/5=2,38=5/2;
 7//1,2,3,16;
 1/18=20,19=15,26=3/3(-5);
 2/9=110/2;
 6/7=2,8=2,9=2,10=2,19=2,28=1/1;
 99/9=1/99;
 -----
 Title
 -----
 Symbolic Z-matrix:
 Charge =  0 Multiplicity = 1
 Zr                    0.65779  -0.12506  -0.07164 
 O                    -0.22285  -0.90624   1.4773 
 O                     0.10302   1.74748  -0.12299 
 O                    -0.2683   -0.97885  -1.59705 
 O                     2.59206  -0.4363   -0.08284 
 Si                   -1.83119  -1.33244  -1.9536 
 Si                   -1.1155    2.84172  -0.08279 
 Si                   -1.72376  -1.15291   2.11517 
 Si                    4.22137  -0.30875   0.00124 
 O                     4.95483  -0.16756  -1.47106 
 O                     4.86894  -1.67486   0.6805 
 O                     4.49943   1.07346   0.85811 
 O                    -2.31924  -2.624     1.69627 
 O                    -2.72422   0.06508   1.55086 
 O                    -1.59734  -1.01957   3.74439 
 O                    -2.00144  -1.55965  -3.57782 
 O                    -2.82509  -0.18676  -1.30145 
 O                    -2.34448  -2.71439  -1.18277 
 O                    -2.04046   2.43957  -1.43023 
 O                    -0.63565   4.40049  -0.29987 
 O                    -1.96551   2.76086   1.31383 
 H                     5.39718   1.42307   0.84099 
 H                     5.27676  -0.98838  -1.86057 
 H                     4.42867  -2.0337    1.45899 
 H                    -2.40577  -2.80951   0.74392 
 H                    -2.38137  -1.22423   4.26535 
 H                    -3.06034  -0.08306   0.64589 
 H                    -0.52731   4.92728   0.50015 
 H                    -2.26909   1.86932   1.58533 
 H                    -2.64854   3.12676  -1.73014 
 H                    -2.30452  -3.52952  -1.69562 
 H                    -1.27114  -1.26305  -4.13223 
 H                    -2.61026   0.75461  -1.48993 
 
 The following ModRedundant input section has been read:
 A       1       5       9 F                                                   
 D       1       5       9      12 F                                           
 D       3       1       5       9 F                                           
 

 GradGradGradGradGradGradGradGradGradGradGradGradGradGradGradGradGradGrad
 Berny optimization.
 Initialization pass.
                           ----------------------------
                           !    Initial Parameters    !
                           ! (Angstroms and Degrees)  !
 --------------------------                            --------------------------
 ! Name  Definition              Value          Derivative Info.                !
 --------------------------------------------------------------------------------
 ! R1    R(1,2)                  1.9455         estimate D2E/DX2                !
 ! R2    R(1,3)                  1.9537         estimate D2E/DX2                !
 ! R3    R(1,4)                  1.9783         estimate D2E/DX2                !
 ! R4    R(1,5)                  1.9592         estimate D2E/DX2                !
 ! R5    R(2,8)                  1.6494         estimate D2E/DX2                !
 ! R6    R(3,7)                  1.6382         estimate D2E/DX2                !
 ! R7    R(4,6)                  1.6416         estimate D2E/DX2                !
 ! R8    R(5,9)                  1.6365         estimate D2E/DX2                !
 ! R9    R(6,16)                 1.6488         estimate D2E/DX2                !
 ! R10   R(6,17)                 1.651          estimate D2E/DX2                !
 ! R11   R(6,18)                 1.6636         estimate D2E/DX2                !
 ! R12   R(7,19)                 1.6831         estimate D2E/DX2                !
 ! R13   R(7,20)                 1.6453         estimate D2E/DX2                !
 ! R14   R(7,21)                 1.6369         estimate D2E/DX2                !
 ! R15   R(8,13)                 1.6414         estimate D2E/DX2                !
 ! R16   R(8,14)                 1.6742         estimate D2E/DX2                !
 ! R17   R(8,15)                 1.6395         estimate D2E/DX2                !
 ! R18   R(9,10)                 1.6509         estimate D2E/DX2                !
 ! R19   R(9,11)                 1.6574         estimate D2E/DX2                !
 ! R20   R(9,12)                 1.6499         estimate D2E/DX2                !
 ! R21   R(10,23)                0.9639         estimate D2E/DX2                !
 ! R22   R(11,24)                0.9637         estimate D2E/DX2                !
 ! R23   R(12,22)                0.9636         estimate D2E/DX2                !
 ! R24   R(13,25)                0.9741         estimate D2E/DX2                !
 ! R25   R(14,27)                0.9767         estimate D2E/DX2                !
 ! R26   R(15,26)                0.9633         estimate D2E/DX2                !
 ! R27   R(16,32)                0.9637         estimate D2E/DX2                !
 ! R28   R(17,33)                0.9838         estimate D2E/DX2                !
 ! R29   R(18,31)                0.9639         estimate D2E/DX2                !
 ! R30   R(19,30)                0.9654         estimate D2E/DX2                !
 ! R31   R(20,28)                0.964          estimate D2E/DX2                !
 ! R32   R(21,29)                0.9802         estimate D2E/DX2                !
 ! A1    A(2,1,3)              106.0959         estimate D2E/DX2                !
 ! A2    A(2,1,4)              103.2214         estimate D2E/DX2                !
 ! A3    A(2,1,5)              112.8091         estimate D2E/DX2                !
 ! A4    A(3,1,4)              105.0977         estimate D2E/DX2                !
 ! A5    A(3,1,5)              115.6243         estimate D2E/DX2                !
 ! A6    A(4,1,5)              112.9055         estimate D2E/DX2                !
 ! A7    A(1,2,8)              141.2479         estimate D2E/DX2                !
 ! A8    A(1,3,7)              148.2962         estimate D2E/DX2                !
 ! A9    A(1,4,6)              134.9216         estimate D2E/DX2                !
 ! A10   A(1,5,9)              166.0003         Frozen                          !
 ! A11   A(4,6,16)             109.9952         estimate D2E/DX2                !
 ! A12   A(4,6,17)             109.7479         estimate D2E/DX2                !
 ! A13   A(4,6,18)             111.8422         estimate D2E/DX2                !
 ! A14   A(16,6,17)            114.9972         estimate D2E/DX2                !
 ! A15   A(16,6,18)            108.0658         estimate D2E/DX2                !
 ! A16   A(17,6,18)            101.9869         estimate D2E/DX2                !
 ! A17   A(3,7,19)             103.269          estimate D2E/DX2                !
 ! A18   A(3,7,20)             114.3706         estimate D2E/DX2                !
 ! A19   A(3,7,21)             111.9733         estimate D2E/DX2                !
 ! A20   A(19,7,20)            106.3205         estimate D2E/DX2                !
 ! A21   A(19,7,21)            112.6973         estimate D2E/DX2                !
 ! A22   A(20,7,21)            108.1076         estimate D2E/DX2                !
 ! A23   A(2,8,13)             111.4365         estimate D2E/DX2                !
 ! A24   A(2,8,14)             107.7362         estimate D2E/DX2                !
 ! A25   A(2,8,15)             107.5759         estimate D2E/DX2                !
 ! A26   A(13,8,14)            110.4391         estimate D2E/DX2                !
 ! A27   A(13,8,15)            110.7606         estimate D2E/DX2                !
 ! A28   A(14,8,15)            108.7751         estimate D2E/DX2                !
 ! A29   A(5,9,10)             113.7769         estimate D2E/DX2                !
 ! A30   A(5,9,11)             110.2318         estimate D2E/DX2                !
 ! A31   A(5,9,12)             105.0571         estimate D2E/DX2                !
 ! A32   A(10,9,11)            105.2124         estimate D2E/DX2                !
 ! A33   A(10,9,12)            108.4599         estimate D2E/DX2                !
 ! A34   A(11,9,12)            114.3199         estimate D2E/DX2                !
 ! A35   A(9,10,23)            115.8444         estimate D2E/DX2                !
 ! A36   A(9,11,24)            117.3548         estimate D2E/DX2                !
 ! A37   A(9,12,22)            116.8567         estimate D2E/DX2                !
 ! A38   A(8,13,25)            116.8991         estimate D2E/DX2                !
 ! A39   A(8,14,27)            114.056          estimate D2E/DX2                !
 ! A40   A(8,15,26)            117.2166         estimate D2E/DX2                !
 ! A41   A(6,16,32)            116.4907         estimate D2E/DX2                !
 ! A42   A(6,17,33)            117.1859         estimate D2E/DX2                !
 ! A43   A(6,18,31)            116.3076         estimate D2E/DX2                !
 ! A44   A(7,19,30)            115.1373         estimate D2E/DX2                !
 ! A45   A(7,20,28)            116.1676         estimate D2E/DX2                !
 ! A46   A(7,21,29)            116.2372         estimate D2E/DX2                !
 ! D1    D(3,1,2,8)             57.7292         estimate D2E/DX2                !
 ! D2    D(4,1,2,8)            -52.5301         estimate D2E/DX2                !
 ! D3    D(5,1,2,8)           -174.7067         estimate D2E/DX2                !
 ! D4    D(2,1,3,7)            -50.098          estimate D2E/DX2                !
 ! D5    D(4,1,3,7)             58.8315         estimate D2E/DX2                !
 ! D6    D(5,1,3,7)           -175.9641         estimate D2E/DX2                !
 ! D7    D(2,1,4,6)             42.7683         estimate D2E/DX2                !
 ! D8    D(3,1,4,6)            -68.2312         estimate D2E/DX2                !
 ! D9    D(5,1,4,6)            164.8802         estimate D2E/DX2                !
 ! D10   D(3,1,5,9)             15.4379         Frozen                          !
 ! D11   D(2,1,9,10)           159.0573         estimate D2E/DX2                !
 ! D12   D(2,1,9,11)            35.671          estimate D2E/DX2                !
 ! D13   D(2,1,9,12)           -86.3641         estimate D2E/DX2                !
 ! D14   D(3,1,9,10)           -81.9602         estimate D2E/DX2                !
 ! D15   D(3,1,9,11)           154.6535         estimate D2E/DX2                !
 ! D16   D(3,1,9,12)            32.6184         estimate D2E/DX2                !
 ! D17   D(4,1,9,10)            37.7096         estimate D2E/DX2                !
 ! D18   D(4,1,9,11)           -85.6767         estimate D2E/DX2                !
 ! D19   D(4,1,9,12)           152.2882         estimate D2E/DX2                !
 ! D20   D(1,2,8,13)            93.5308         estimate D2E/DX2                !
 ! D21   D(1,2,8,14)           -27.7655         estimate D2E/DX2                !
 ! D22   D(1,2,8,15)          -144.8802         estimate D2E/DX2                !
 ! D23   D(1,3,7,19)           -61.1012         estimate D2E/DX2                !
 ! D24   D(1,3,7,20)          -176.1751         estimate D2E/DX2                !
 ! D25   D(1,3,7,21)            60.409          estimate D2E/DX2                !
 ! D26   D(1,4,6,16)           160.167          estimate D2E/DX2                !
 ! D27   D(1,4,6,17)            32.6925         estimate D2E/DX2                !
 ! D28   D(1,4,6,18)           -79.742          estimate D2E/DX2                !
 ! D29   D(1,5,9,12)            18.35           Frozen                          !
 ! D30   D(4,6,16,32)          -14.1998         estimate D2E/DX2                !
 ! D31   D(17,6,16,32)         110.2979         estimate D2E/DX2                !
 ! D32   D(18,6,16,32)        -136.5531         estimate D2E/DX2                !
 ! D33   D(4,6,17,33)           51.0095         estimate D2E/DX2                !
 ! D34   D(16,6,17,33)         -73.6179         estimate D2E/DX2                !
 ! D35   D(18,6,17,33)         169.7166         estimate D2E/DX2                !
 ! D36   D(4,6,18,31)          -96.4424         estimate D2E/DX2                !
 ! D37   D(16,6,18,31)          24.7715         estimate D2E/DX2                !
 ! D38   D(17,6,18,31)         146.349          estimate D2E/DX2                !
 ! D39   D(3,7,19,30)         -162.1837         estimate D2E/DX2                !
 ! D40   D(20,7,19,30)         -41.4662         estimate D2E/DX2                !
 ! D41   D(21,7,19,30)          76.796          estimate D2E/DX2                !
 ! D42   D(3,7,20,28)          -98.427          estimate D2E/DX2                !
 ! D43   D(19,7,20,28)         148.2947         estimate D2E/DX2                !
 ! D44   D(21,7,20,28)          27.0455         estimate D2E/DX2                !
 ! D45   D(3,7,21,29)          -49.8995         estimate D2E/DX2                !
 ! D46   D(19,7,21,29)          66.0156         estimate D2E/DX2                !
 ! D47   D(20,7,21,29)        -176.7753         estimate D2E/DX2                !
 ! D48   D(2,8,13,25)          -58.468          estimate D2E/DX2                !
 ! D49   D(14,8,13,25)          61.2404         estimate D2E/DX2                !
 ! D50   D(15,8,13,25)        -178.1888         estimate D2E/DX2                !
 ! D51   D(2,8,14,27)           80.2918         estimate D2E/DX2                !
 ! D52   D(13,8,14,27)         -41.6247         estimate D2E/DX2                !
 ! D53   D(15,8,14,27)        -163.3756         estimate D2E/DX2                !
 ! D54   D(2,8,15,26)         -174.1994         estimate D2E/DX2                !
 ! D55   D(13,8,15,26)         -52.1897         estimate D2E/DX2                !
 ! D56   D(14,8,15,26)          69.3652         estimate D2E/DX2                !
 ! D57   D(5,9,10,23)          -94.8503         estimate D2E/DX2                !
 ! D58   D(11,9,10,23)          25.9081         estimate D2E/DX2                !
 ! D59   D(12,9,10,23)         148.6402         estimate D2E/DX2                !
 ! D60   D(5,9,11,24)          -43.8202         estimate D2E/DX2                !
 ! D61   D(10,9,11,24)        -166.8798         estimate D2E/DX2                !
 ! D62   D(12,9,11,24)          74.2395         estimate D2E/DX2                !
 ! D63   D(5,9,12,22)         -166.4773         estimate D2E/DX2                !
 ! D64   D(10,9,12,22)         -44.4744         estimate D2E/DX2                !
 ! D65   D(11,9,12,22)          72.5542         estimate D2E/DX2                !
 --------------------------------------------------------------------------------
 Trust Radius=3.00D-01 FncErr=1.00D-07 GrdErr=1.00D-06 EigMax=2.50D+02 EigMin=1.00D-04
 Number of steps in this run=    153 maximum allowed number of steps=    198.
 GradGradGradGradGradGradGradGradGradGradGradGradGradGradGradGradGradGrad

                          Input orientation:                          
 ---------------------------------------------------------------------
 Center     Atomic      Atomic             Coordinates (Angstroms)
 Number     Number       Type             X           Y           Z
 ---------------------------------------------------------------------
      1         40           0        0.657790   -0.125060   -0.071640
      2          8           0       -0.222850   -0.906240    1.477300
      3          8           0        0.103020    1.747480   -0.122990
      4          8           0       -0.268300   -0.978850   -1.597050
      5          8           0        2.592060   -0.436300   -0.082840
      6         14           0       -1.831190   -1.332440   -1.953600
      7         14           0       -1.115500    2.841720   -0.082790
      8         14           0       -1.723760   -1.152910    2.115170
      9         14           0        4.221370   -0.308750    0.001240
     10          8           0        4.954830   -0.167560   -1.471060
     11          8           0        4.868940   -1.674860    0.680500
     12          8           0        4.499430    1.073460    0.858110
     13          8           0       -2.319240   -2.624000    1.696270
     14          8           0       -2.724220    0.065080    1.550860
     15          8           0       -1.597340   -1.019570    3.744390
     16          8           0       -2.001440   -1.559650   -3.577820
     17          8           0       -2.825090   -0.186760   -1.301450
     18          8           0       -2.344480   -2.714390   -1.182770
     19          8           0       -2.040460    2.439570   -1.430230
     20          8           0       -0.635650    4.400490   -0.299870
     21          8           0       -1.965510    2.760860    1.313830
     22          1           0        5.397180    1.423070    0.840990
     23          1           0        5.276760   -0.988380   -1.860570
     24          1           0        4.428670   -2.033700    1.458990
     25          1           0       -2.405770   -2.809510    0.743920
     26          1           0       -2.381370   -1.224230    4.265350
     27          1           0       -3.060340   -0.083060    0.645890
     28          1           0       -0.527310    4.927280    0.500150
     29          1           0       -2.269090    1.869320    1.585330
     30          1           0       -2.648540    3.126760   -1.730140
     31          1           0       -2.304520   -3.529520   -1.695620
     32          1           0       -1.271140   -1.263050   -4.132230
     33          1           0       -2.610260    0.754610   -1.489930
 ---------------------------------------------------------------------
                    Distance matrix (angstroms):
                    1          2          3          4          5
     1  Zr   0.000000
     2  O    1.945504   0.000000
     3  O    1.953666   3.115983   0.000000
     4  O    1.978251   3.075543   3.121475   0.000000
     5  O    1.959183   3.252476   3.311469   3.281593   0.000000
     6  Si   3.345827   3.813067   4.071635   1.641578   4.885484
     7  Si   3.456366   4.156670   1.638221   4.196128   4.948880
     8  Si   3.392697   1.649380   4.093745   3.991145   4.896027
     9  Si   3.569055   4.720894   4.604815   4.812557   1.636456
    10  O    4.519373   6.003902   5.387461   5.287263   2.753554
    11  O    4.549877   5.210757   5.922162   5.662411   2.702018
    12  O    4.130264   5.157765   4.554699   5.742041   2.608222
    13  O    4.270002   2.719099   5.318542   4.214123   5.663226
    14  O    3.755882   2.684348   3.691278   4.126823   5.584191
    15  O    4.521929   2.653632   5.050190   5.504452   5.704294
    16  O    4.628483   5.398571   5.225104   2.695283   5.880225
    17  O    3.694143   3.874372   3.701875   2.692947   5.558129
    18  O    4.117386   3.853141   5.198238   2.737563   5.546978
    19  O    3.962783   4.790812   2.604299   3.854086   5.616612
    20  O    4.712290   5.611606   2.759598   5.545712   5.818913
    21  O    4.138812   4.063399   2.714813   5.033803   5.739683
    22  H    5.068670   6.116806   5.390977   6.618982   3.489902
    23  H    5.027969   6.433804   6.105055   5.551326   3.266915
    24  H    4.495027   4.786245   5.959130   5.702071   2.881330
    25  H    4.154132   2.987545   5.273682   3.660633   5.594101
    26  H    5.408711   3.540275   5.853271   6.236426   6.653014
    27  H    3.786965   3.069237   3.734823   3.691708   5.710118
    28  H    5.220876   5.922624   3.301022   6.272775   6.232041
    29  H    3.910208   3.450000   2.925766   4.716225   5.632890
    30  H    4.925117   5.695325   3.472237   4.747556   6.547739
    31  H    4.796138   4.613282   6.009671   3.265245   6.012118
    32  H    4.637260   5.717784   5.198616   2.741094   5.657331
    33  H    3.669539   4.154829   3.196280   2.915671   5.519266
                    6          7          8          9         10
     6  Si   0.000000
     7  Si   4.629876   0.000000
     8  Si   4.074145   4.599791   0.000000
     9  Si   6.442268   6.197960   6.365994   0.000000
    10  O    6.902163   6.916066   7.644313   1.650929   0.000000
    11  O    7.207460   7.536287   6.767156   1.657407   2.628410
    12  O    7.332859   5.961499   6.727928   1.649863   2.678162
    13  O    3.902290   5.872660   1.641396   7.142345   8.305310
    14  O    3.877087   3.600906   1.674176   7.126169   8.255539
    15  O    5.711363   5.457933   1.639549   6.955129   8.417706
    16  O    1.648848   5.689656   5.714252   7.286823   7.400408
    17  O    1.650975   3.685040   3.717481   7.166902   7.781792
    18  O    1.663560   5.795749   3.701340   7.092205   7.736238
    19  O    3.813892   1.683113   5.057279   6.986622   7.465445
    20  O    6.085279   1.645340   6.152776   6.771872   7.313838
    21  O    5.239203   1.636949   4.002272   7.030141   8.013886
    22  H    8.225078   6.729111   7.678997   2.255418   2.841013
    23  H    7.116880   7.661015   8.052382   2.245458   0.963900
    24  H    7.164034   7.542190   6.249701   2.267920   3.513476
    25  H    3.128657   5.855309   2.256056   7.122104   8.128005
    26  H    6.244177   6.086107   2.249625   7.913085   9.372448
    27  H    3.135141   3.587160   2.256060   7.313673   8.290450
    28  H    6.848729   2.243958   6.403787   7.086246   7.739310
    29  H    4.792395   2.249212   3.116406   7.027048   8.104037
    30  H    4.538993   2.268308   5.827281   7.873758   8.290410
    31  H    2.262246   6.678899   4.528540   7.472612   8.003210
    32  H    2.250533   5.768130   6.264743   6.940024   6.858909
    33  H    2.275460   2.927521   4.173878   7.072870   7.621111
                   11         12         13         14         15
    11  O    0.000000
    12  O    2.778731   0.000000
    13  O    7.321379   7.801794   0.000000
    14  O    7.838431   7.326517   2.723289   0.000000
    15  O    7.185374   7.062718   2.700024   2.694049   0.000000
    16  O    8.083853   8.298919   5.389792   5.428215   7.353213
    17  O    8.083357   7.739538   3.896453   2.865182   5.259415
    18  O    7.522355   8.084065   2.880569   3.916936   5.263795
    19  O    8.314056   7.062076   5.957555   3.872032   6.240088
    20  O    8.256604   6.227286   7.494165   5.155881   6.830662
    21  O    8.172296   6.697048   5.410000   2.810526   4.509415
    22  H    3.146739   0.963574   8.755194   8.264695   7.957357
    23  H    2.663571   3.499521   8.545501   8.761468   8.869600
    24  H    0.963665   3.165518   6.777835   7.455009   6.524133
    25  H    7.362938   7.922896   0.974101   3.002637   3.586121
    26  H    8.100692   8.014616   2.926327   3.024619   0.963321
    27  H    8.087553   7.650667   2.847614   0.976674   3.552200
    28  H    8.528792   6.344145   7.852614   5.437959   6.858213
    29  H    8.020686   6.853839   4.494969   1.861079   3.668579
    30  H    9.240089   7.874551   6.702236   4.488271   6.947485
    31  H    7.781018   8.602482   3.510712   4.861783   6.032716
    32  H    7.812333   7.978863   6.076357   6.014390   7.887131
    33  H    8.157912   7.494174   4.653125   3.120071   5.618881
                   16         17         18         19         20
    16  O    0.000000
    17  O    2.783000   0.000000
    18  O    2.680926   2.575652   0.000000
    19  O    4.539540   2.744055   5.168846   0.000000
    20  O    6.937839   5.180702   7.370287   2.663909   0.000000
    21  O    6.526587   4.033241   6.029510   2.763822   2.657243
    22  H    9.119324   8.647967   9.008190   7.842844   6.823608
    23  H    7.499833   8.160587   7.843585   8.091832   8.150601
    24  H    8.181717   7.977985   7.301904   8.378984   8.374946
    25  H    4.516976   3.352340   1.930010   5.693261   7.497128
    26  H    7.859527   5.680008   5.648358   6.780802   7.451594
    27  H    4.597968   1.964238   3.283344   3.422586   5.184188
    28  H    7.802766   5.888884   8.033022   3.493521   0.963990
    29  H    6.203837   3.587492   5.355227   3.077509   3.553720
    30  H    5.078888   3.345797   5.874615   0.965369   2.778450
    31  H    2.741336   3.405937   0.963872   5.980819   8.223035
    32  H    0.963680   3.403891   3.458000   4.647801   6.867788
    33  H    3.175806   0.983796   3.492699   1.779698   4.313672
                   21         22         23         24         25
    21  O    0.000000
    22  H    7.498164   0.000000
    23  H    8.751234   3.623261   0.000000
    24  H    7.993398   3.642691   3.582098   0.000000
    25  H    5.616729   8.877510   8.313913   6.915401   0.000000
    26  H    4.976480   8.901701   9.809662   7.409962   3.861888
    27  H    3.119724   8.592796   8.752667   7.781478   2.805637
    28  H    2.724678   6.891679   8.617149   8.598625   7.965297
    29  H    0.980162   7.715237   8.773855   7.753033   4.755849
    30  H    3.141045   8.616663   8.930944   9.321363   6.435776
    31  H    6.981447   9.501512   7.997525   7.584516   2.545589
    32  H    6.806877   8.741547   6.936200   8.021439   5.239825
    33  H    3.507394   8.366548   8.085819   8.125105   4.211277
                   26         27         28         29         30
    26  H    0.000000
    27  H    3.855355   0.000000
    28  H    7.446835   5.616136   0.000000
    29  H    4.094529   2.306602   3.682734   0.000000
    30  H    7.412718   4.014728   3.565906   3.566157   0.000000
    31  H    6.391669   4.234622   8.916129   6.317702   6.665254
    32  H    8.470742   5.236797   7.767394   6.595312   5.190154
    33  H    6.090275   2.337946   5.070530   3.288799   2.384588
                   31         32         33
    31  H    0.000000
    32  H    3.484513   0.000000
    33  H    4.299948   3.584124   0.000000
 Stoichiometry    H12O16Si4Zr
 Framework group  C1[X(H12O16Si4Zr)]
 Deg. of freedom    93
 Full point group                 C1      NOp   1
 Largest Abelian subgroup         C1      NOp   1
 Largest concise Abelian subgroup C1      NOp   1
                         Standard orientation:                         
 ---------------------------------------------------------------------
 Center     Atomic      Atomic             Coordinates (Angstroms)
 Number     Number       Type             X           Y           Z
 ---------------------------------------------------------------------
      1         40           0        0.658524   -0.105610   -0.067288
      2          8           0       -0.215229   -0.897314    1.480208
      3          8           0        0.077491    1.758839   -0.122450
      4          8           0       -0.251226   -0.974220   -1.594163
      5          8           0        2.597023   -0.389492   -0.072839
      6         14           0       -1.807981   -1.350290   -1.954531
      7         14           0       -1.156475    2.835794   -0.086913
      8         14           0       -1.714245   -1.164415    2.114292
      9         14           0        4.224131   -0.238826    0.015519
     10          8           0        4.959553   -0.089036   -1.454951
     11          8           0        4.889078   -1.594836    0.698219
     12          8           0        4.480283    1.148196    0.871443
     13          8           0       -2.287728   -2.644272    1.695582
     14          8           0       -2.730267    0.038640    1.545764
     15          8           0       -1.594186   -1.027361    3.743685
     16          8           0       -1.970553   -1.581818   -3.578928
     17          8           0       -2.819754   -0.217997   -1.306498
     18          8           0       -2.303801   -2.738438   -1.183403
     19          8           0       -2.071965    2.419006   -1.436370
     20          8           0       -0.698108    4.400931   -0.304602
     21          8           0       -2.009081    2.744590    1.307486
     22          1           0        5.373046    1.510439    0.856337
     23          1           0        5.294116   -0.905687   -1.842574
     24          1           0        4.451792   -1.958936    1.475948
     25          1           0       -2.369018   -2.832121    0.743228
     26          1           0       -2.376670   -1.242462    4.262760
     27          1           0       -3.061780   -0.115314    0.640065
     28          1           0       -0.599415    4.930152    0.495062
     29          1           0       -2.300775    1.849173    1.579255
     30          1           0       -2.688872    3.097175   -1.738779
     31          1           0       -2.250921   -3.553532   -1.695140
     32          1           0       -1.243001   -1.275585   -4.131712
     33          1           0       -2.617733    0.726090   -1.495550
 ---------------------------------------------------------------------
 Rotational constants (GHZ):           0.2121793           0.1336990           0.1238693
 General basis read from cards:  (5D, 7F)
 ======================================================================================================
                                       Pseudopotential Parameters
 ======================================================================================================
  Center     Atomic      Valence      Angular      Power
  Number     Number     Electrons     Momentum     of R      Exponent        Coefficient   SO-Coeffient
 ======================================================================================================
    1         40           12
                                      G and up 
                                                     2        1.0000000        0.00000000    0.00000000
                                      S - G
                                                     2        8.6365280      150.24299400    0.00000000
                                                     2        3.7176390       18.78003600    0.00000000
                                      P - G
                                                     2        7.6267280       33.19279100    0.00000000
                                                     2        7.4532070       66.38903900    0.00000000
                                                     2        3.3583890        4.62072600    0.00000000
                                                     2        3.2297380        9.26027000    0.00000000
                                      D - G
                                                     2        5.9380860       13.99338300    0.00000000
                                                     2        5.8255440       20.99588200    0.00000000
                                                     2        2.2050190        2.28516600    0.00000000
                                                     2        2.2062920        3.44126000    0.00000000
                                      F - G
                                                     2        4.8002150       -5.23932000    0.00000000
                                                     2        4.7989920       -6.98742400    0.00000000
    2          8
                                   No pseudopotential on this center.
    3          8
                                   No pseudopotential on this center.
    4          8
                                   No pseudopotential on this center.
    5          8
                                   No pseudopotential on this center.
    6         14
                                   No pseudopotential on this center.
    7         14
                                   No pseudopotential on this center.
    8         14
                                   No pseudopotential on this center.
    9         14
                                   No pseudopotential on this center.
   10          8
                                   No pseudopotential on this center.
   11          8
                                   No pseudopotential on this center.
   12          8
                                   No pseudopotential on this center.
   13          8
                                   No pseudopotential on this center.
   14          8
                                   No pseudopotential on this center.
   15          8
                                   No pseudopotential on this center.
   16          8
                                   No pseudopotential on this center.
   17          8
                                   No pseudopotential on this center.
   18          8
                                   No pseudopotential on this center.
   19          8
                                   No pseudopotential on this center.
   20          8
                                   No pseudopotential on this center.
   21          8
                                   No pseudopotential on this center.
   22          1
                                   No pseudopotential on this center.
   23          1
                                   No pseudopotential on this center.
   24          1
                                   No pseudopotential on this center.
   25          1
                                   No pseudopotential on this center.
   26          1
                                   No pseudopotential on this center.
   27          1
                                   No pseudopotential on this center.
   28          1
                                   No pseudopotential on this center.
   29          1
                                   No pseudopotential on this center.
   30          1
                                   No pseudopotential on this center.
   31          1
                                   No pseudopotential on this center.
   32          1
                                   No pseudopotential on this center.
   33          1
                                   No pseudopotential on this center.
 ======================================================================================================
 There are   570 symmetry adapted cartesian basis functions of A   symmetry.
 There are   524 symmetry adapted basis functions of A   symmetry.
   524 basis functions,  1074 primitive gaussians,   570 cartesian basis functions
   104 alpha electrons      104 beta electrons
       nuclear repulsion energy      2832.0243543653 Hartrees.
 NAtoms=   33 NActive=   33 NUniq=   33 SFac= 1.00D+00 NAtFMM=   60 NAOKFM=F Big=F
 Integral buffers will be    131072 words long.
 Raffenetti 2 integral format.
 Two-electron integral symmetry is turned on.
 Nuclear repulsion after empirical dispersion term =     2831.9835643371 Hartrees.
 One-electron integrals computed using PRISM.
 PrsmSu:  requested number of processors reduced to:   4 ShMem   1 Linda.
   1 Symmetry operations used in ECPInt.
 ECPInt:  NShTT=   13203 NPrTT=   78401 LenC2=   11526 LenP2D=   44627.
 LDataN:  DoStor=T MaxTD1= 8 Len=  415
 Number of processors reduced to  13 by ecpmxn.
 NBasis=   524 RedAO= T EigKep=  3.18D-05  NBF=   524
 NBsUse=   524 1.00D-06 EigRej= -1.00D+00 NBFU=   524
 Defaulting to unpruned grid for atomic number  40.
 ExpMin= 1.01D-02 ExpMax= 1.61D+04 ExpMxC= 2.43D+03 IAcc=3 IRadAn=         5 AccDes= 0.00D+00
 Harris functional with IExCor=  402 and IRadAn=       5 diagonalized for initial guess.
 HarFok:  IExCor=  402 AccDes= 0.00D+00 IRadAn=         5 IDoV= 1 UseB2=F ITyADJ=14
 ICtDFT=  3500011 ScaDFX=  1.000000  1.000000  1.000000  1.000000
 Defaulting to unpruned grid for atomic number  40.
 FoFCou: FMM=F IPFlag=           0 FMFlag=      100000 FMFlg1=           0
         NFxFlg=           0 DoJE=T BraDBF=F KetDBF=T FulRan=T
         wScrn=  0.000000 ICntrl=       500 IOpCl=  0 I1Cent=   200000004 NGrid=           0
         NMat0=    1 NMatS0=      1 NMatT0=    0 NMatD0=    1 NMtDS0=    0 NMtDT0=    0
 Petite list used in FoFCou.
 Requested convergence on RMS density matrix=1.00D-08 within 128 cycles.
 Requested convergence on MAX density matrix=1.00D-06.
 Requested convergence on             energy=1.00D-06.
 No special actions if energy rises.
 Defaulting to unpruned grid for atomic number  40.
 Defaulting to unpruned grid for atomic number  40.
 Defaulting to unpruned grid for atomic number  40.
 Defaulting to unpruned grid for atomic number  40.
 Defaulting to unpruned grid for atomic number  40.
 Defaulting to unpruned grid for atomic number  40.
 Defaulting to unpruned grid for atomic number  40.
 Defaulting to unpruned grid for atomic number  40.
 Defaulting to unpruned grid for atomic number  40.
 Defaulting to unpruned grid for atomic number  40.
 Defaulting to unpruned grid for atomic number  40.
 Defaulting to unpruned grid for atomic number  40.
 Defaulting to unpruned grid for atomic number  40.
 Defaulting to unpruned grid for atomic number  40.
 Defaulting to unpruned grid for atomic number  40.
 Defaulting to unpruned grid for atomic number  40.
 SCF Done:  E(RB3LYP) =  -2416.94685160     A.U. after   14 cycles
            NFock= 14  Conv=0.27D-08     -V/T= 2.0185

 **********************************************************************

            Population analysis using the SCF Density.

 **********************************************************************

 Orbital symmetries:
       Occupied  (A) (A) (A) (A) (A) (A) (A) (A) (A) (A) (A) (A)
                 (A) (A) (A) (A) (A) (A) (A) (A) (A) (A) (A) (A)
                 (A) (A) (A) (A) (A) (A) (A) (A) (A) (A) (A) (A)
                 (A) (A) (A) (A) (A) (A) (A) (A) (A) (A) (A) (A)
                 (A) (A) (A) (A) (A) (A) (A) (A) (A) (A) (A) (A)
                 (A) (A) (A) (A) (A) (A) (A) (A) (A) (A) (A) (A)
                 (A) (A) (A) (A) (A) (A) (A) (A) (A) (A) (A) (A)
                 (A) (A) (A) (A) (A) (A) (A) (A) (A) (A) (A) (A)
                 (A) (A) (A) (A) (A) (A) (A) (A)
       Virtual   (A) (A) (A) (A) (A) (A) (A) (A) (A) (A) (A) (A)
                 (A) (A) (A) (A) (A) (A) (A) (A) (A) (A) (A) (A)
                 (A) (A) (A) (A) (A) (A) (A) (A) (A) (A) (A) (A)
                 (A) (A) (A) (A) (A) (A) (A) (A) (A) (A) (A) (A)
                 (A) (A) (A) (A) (A) (A) (A) (A) (A) (A) (A) (A)
                 (A) (A) (A) (A) (A) (A) (A) (A) (A) (A) (A) (A)
                 (A) (A) (A) (A) (A) (A) (A) (A) (A) (A) (A) (A)
                 (A) (A) (A) (A) (A) (A) (A) (A) (A) (A) (A) (A)
                 (A) (A) (A) (A) (A) (A) (A) (A) (A) (A) (A) (A)
                 (A) (A) (A) (A) (A) (A) (A) (A) (A) (A) (A) (A)
                 (A) (A) (A) (A) (A) (A) (A) (A) (A) (A) (A) (A)
                 (A) (A) (A) (A) (A) (A) (A) (A) (A) (A) (A) (A)
                 (A) (A) (A) (A) (A) (A) (A) (A) (A) (A) (A) (A)
                 (A) (A) (A) (A) (A) (A) (A) (A) (A) (A) (A) (A)
                 (A) (A) (A) (A) (A) (A) (A) (A) (A) (A) (A) (A)
                 (A) (A) (A) (A) (A) (A) (A) (A) (A) (A) (A) (A)
                 (A) (A) (A) (A) (A) (A) (A) (A) (A) (A) (A) (A)
                 (A) (A) (A) (A) (A) (A) (A) (A) (A) (A) (A) (A)
                 (A) (A) (A) (A) (A) (A) (A) (A) (A) (A) (A) (A)
                 (A) (A) (A) (A) (A) (A) (A) (A) (A) (A) (A) (A)
                 (A) (A) (A) (A) (A) (A) (A) (A) (A) (A) (A) (A)
                 (A) (A) (A) (A) (A) (A) (A) (A) (A) (A) (A) (A)
                 (A) (A) (A) (A) (A) (A) (A) (A) (A) (A) (A) (A)
                 (A) (A) (A) (A) (A) (A) (A) (A) (A) (A) (A) (A)
                 (A) (A) (A) (A) (A) (A) (A) (A) (A) (A) (A) (A)
                 (A) (A) (A) (A) (A) (A) (A) (A) (A) (A) (A) (A)
                 (A) (A) (A) (A) (A) (A) (A) (A) (A) (A) (A) (A)
                 (A) (A) (A) (A) (A) (A) (A) (A) (A) (A) (A) (A)
                 (A) (A) (A) (A) (A) (A) (A) (A) (A) (A) (A) (A)
                 (A) (A) (A) (A) (A) (A) (A) (A) (A) (A) (A) (A)
                 (A) (A) (A) (A) (A) (A) (A) (A) (A) (A) (A) (A)
                 (A) (A) (A) (A) (A) (A) (A) (A) (A) (A) (A) (A)
                 (A) (A) (A) (A) (A) (A) (A) (A) (A) (A) (A) (A)
                 (A) (A) (A) (A) (A) (A) (A) (A) (A) (A) (A) (A)
                 (A) (A) (A) (A) (A) (A) (A) (A) (A) (A) (A) (A)
 The electronic state is 1-A.
 Alpha  occ. eigenvalues --  -66.22815 -66.21763 -66.21489 -66.21048 -19.18600
 Alpha  occ. eigenvalues --  -19.18359 -19.17797 -19.17035 -19.16740 -19.16538
 Alpha  occ. eigenvalues --  -19.16439 -19.16200 -19.16194 -19.16025 -19.16006
 Alpha  occ. eigenvalues --  -19.15510 -19.15331 -19.15268 -19.14904 -19.14717
 Alpha  occ. eigenvalues --   -5.36875  -5.35844  -5.35563  -5.35108  -3.72859
 Alpha  occ. eigenvalues --   -3.72833  -3.72786  -3.71836  -3.71788  -3.71753
 Alpha  occ. eigenvalues --   -3.71532  -3.71524  -3.71484  -3.71073  -3.71064
 Alpha  occ. eigenvalues --   -3.71039  -2.13378  -1.29618  -1.29536  -1.29380
 Alpha  occ. eigenvalues --   -1.05690  -1.04784  -1.04146  -1.03507  -1.02575
 Alpha  occ. eigenvalues --   -1.02178  -1.01480  -1.00910  -1.00759  -1.00674
 Alpha  occ. eigenvalues --   -0.99841  -0.99315  -0.97377  -0.96293  -0.95731
 Alpha  occ. eigenvalues --   -0.95411  -0.61000  -0.59167  -0.58973  -0.58499
 Alpha  occ. eigenvalues --   -0.55550  -0.54540  -0.53860  -0.53049  -0.52981
 Alpha  occ. eigenvalues --   -0.52502  -0.52157  -0.51717  -0.48790  -0.47611
 Alpha  occ. eigenvalues --   -0.47212  -0.46734  -0.43385  -0.42661  -0.41871
 Alpha  occ. eigenvalues --   -0.41401  -0.41105  -0.40542  -0.39838  -0.39341
 Alpha  occ. eigenvalues --   -0.38810  -0.38688  -0.38652  -0.38150  -0.38028
 Alpha  occ. eigenvalues --   -0.37632  -0.37494  -0.37197  -0.36537  -0.36417
 Alpha  occ. eigenvalues --   -0.36081  -0.35634  -0.35475  -0.35096  -0.34894
 Alpha  occ. eigenvalues --   -0.34614  -0.34006  -0.33699  -0.33486  -0.33270
 Alpha  occ. eigenvalues --   -0.32818  -0.32172  -0.32061  -0.31312
 Alpha virt. eigenvalues --   -0.04336  -0.03172  -0.03047  -0.02752  -0.02101
 Alpha virt. eigenvalues --   -0.01181  -0.00567  -0.00145   0.00122   0.00293
 Alpha virt. eigenvalues --    0.00749   0.00930   0.01016   0.01941   0.02342
 Alpha virt. eigenvalues --    0.03250   0.03333   0.03850   0.03925   0.04064
 Alpha virt. eigenvalues --    0.04163   0.04700   0.05562   0.05838   0.06167
 Alpha virt. eigenvalues --    0.06465   0.07099   0.07467   0.07713   0.08660
 Alpha virt. eigenvalues --    0.08794   0.09032   0.09179   0.09659   0.09948
 Alpha virt. eigenvalues --    0.10365   0.10638   0.10876   0.11225   0.11682
 Alpha virt. eigenvalues --    0.11843   0.12545   0.13255   0.13341   0.13664
 Alpha virt. eigenvalues --    0.14008   0.14424   0.14866   0.15064   0.15282
 Alpha virt. eigenvalues --    0.15376   0.15741   0.16185   0.16716   0.16912
 Alpha virt. eigenvalues --    0.17376   0.17507   0.17689   0.18139   0.18431
 Alpha virt. eigenvalues --    0.18521   0.18723   0.19202   0.19708   0.19723
 Alpha virt. eigenvalues --    0.20134   0.20312   0.20624   0.20960   0.21196
 Alpha virt. eigenvalues --    0.21746   0.21947   0.22315   0.22418   0.22764
 Alpha virt. eigenvalues --    0.23304   0.23735   0.24033   0.24163   0.24451
 Alpha virt. eigenvalues --    0.24814   0.25085   0.25585   0.25762   0.26129
 Alpha virt. eigenvalues --    0.26587   0.26699   0.26914   0.27239   0.27455
 Alpha virt. eigenvalues --    0.27926   0.28263   0.28521   0.28806   0.29037
 Alpha virt. eigenvalues --    0.29435   0.29717   0.30054   0.30400   0.30575
 Alpha virt. eigenvalues --    0.30785   0.31320   0.31438   0.31573   0.32122
 Alpha virt. eigenvalues --    0.32387   0.32735   0.33096   0.33586   0.34028
 Alpha virt. eigenvalues --    0.34419   0.34606   0.35350   0.35689   0.36289
 Alpha virt. eigenvalues --    0.36931   0.37537   0.37940   0.38371   0.38842
 Alpha virt. eigenvalues --    0.39302   0.39963   0.40026   0.41125   0.41618
 Alpha virt. eigenvalues --    0.42703   0.43114   0.43879   0.44300   0.44881
 Alpha virt. eigenvalues --    0.45353   0.45675   0.45916   0.46686   0.47472
 Alpha virt. eigenvalues --    0.47850   0.48575   0.48816   0.49356   0.49553
 Alpha virt. eigenvalues --    0.49963   0.50840   0.51065   0.51321   0.53023
 Alpha virt. eigenvalues --    0.54094   0.54421   0.55173   0.56748   0.57286
 Alpha virt. eigenvalues --    0.58191   0.58745   0.59203   0.59374   0.60278
 Alpha virt. eigenvalues --    0.61257   0.61701   0.62139   0.63990   0.65868
 Alpha virt. eigenvalues --    0.66946   0.67976   0.68382   0.68866   0.69431
 Alpha virt. eigenvalues --    0.70090   0.70639   0.72951   0.74444   0.75162
 Alpha virt. eigenvalues --    0.75492   0.77352   0.78549   0.78950   0.80482
 Alpha virt. eigenvalues --    0.81064   0.81514   0.82622   0.84122   0.85421
 Alpha virt. eigenvalues --    0.86717   0.87707   0.89796   0.90487   0.91223
 Alpha virt. eigenvalues --    0.94275   0.95697   0.96308   0.96869   0.97469
 Alpha virt. eigenvalues --    0.98142   0.98809   0.99186   0.99773   1.00350
 Alpha virt. eigenvalues --    1.00795   1.01464   1.02120   1.03158   1.04078
 Alpha virt. eigenvalues --    1.04269   1.05563   1.06359   1.06712   1.07940
 Alpha virt. eigenvalues --    1.09755   1.12384   1.15239   1.16181   1.16435
 Alpha virt. eigenvalues --    1.18668   1.19058   1.19882   1.20597   1.20981
 Alpha virt. eigenvalues --    1.21443   1.21742   1.22304   1.22809   1.22930
 Alpha virt. eigenvalues --    1.23453   1.23953   1.24243   1.25184   1.25713
 Alpha virt. eigenvalues --    1.26041   1.27153   1.27490   1.28111   1.28354
 Alpha virt. eigenvalues --    1.28957   1.29790   1.30116   1.30856   1.31385
 Alpha virt. eigenvalues --    1.32393   1.32681   1.32985   1.33463   1.34510
 Alpha virt. eigenvalues --    1.35241   1.36024   1.36516   1.36859   1.37727
 Alpha virt. eigenvalues --    1.39187   1.39743   1.40193   1.41202   1.41497
 Alpha virt. eigenvalues --    1.42734   1.43596   1.44188   1.45262   1.46404
 Alpha virt. eigenvalues --    1.46928   1.48839   1.50934   1.51527   1.52902
 Alpha virt. eigenvalues --    1.56737   1.57256   1.57701   1.59320   1.59685
 Alpha virt. eigenvalues --    1.60096   1.61135   1.61919   1.62522   1.63097
 Alpha virt. eigenvalues --    1.63225   1.63814   1.65157   1.65367   1.66634
 Alpha virt. eigenvalues --    1.67381   1.68016   1.69251   1.69645   1.70070
 Alpha virt. eigenvalues --    1.71345   1.71402   1.71620   1.72588   1.73278
 Alpha virt. eigenvalues --    1.74111   1.75066   1.75573   1.75939   1.76522
 Alpha virt. eigenvalues --    1.77147   1.77345   1.78578   1.78783   1.79655
 Alpha virt. eigenvalues --    1.80561   1.81525   1.82203   1.82570   1.82959
 Alpha virt. eigenvalues --    1.83382   1.84916   1.85034   1.85913   1.86659
 Alpha virt. eigenvalues --    1.87187   1.88079   1.88709   1.89726   1.90477
 Alpha virt. eigenvalues --    1.91219   1.91391   1.92491   1.92786   1.93865
 Alpha virt. eigenvalues --    1.94630   1.95251   1.96022   1.97257   1.98384
 Alpha virt. eigenvalues --    1.98642   2.00493   2.01130   2.02835   2.03655
 Alpha virt. eigenvalues --    2.05877   2.06545   2.07541   2.09784   2.10416
 Alpha virt. eigenvalues --    2.11252   2.13012   2.14279   2.16144   2.16241
 Alpha virt. eigenvalues --    2.17793   2.18768   2.18952   2.20688   2.26957
 Alpha virt. eigenvalues --    2.32439   2.33499   2.35440   2.39475   2.40437
 Alpha virt. eigenvalues --    2.41175   2.41323   2.41712   2.42756   2.43722
 Alpha virt. eigenvalues --    2.44010   2.45788   2.46688   2.47588   2.48984
 Alpha virt. eigenvalues --    2.50225   2.50308   2.51662   2.52823   2.53295
 Alpha virt. eigenvalues --    2.55452   2.58264   2.59083   2.60053   2.60697
 Alpha virt. eigenvalues --    2.61097   2.61795   2.62079   2.62411   2.62782
 Alpha virt. eigenvalues --    2.63158   2.64016   2.64585   2.64974   2.65962
 Alpha virt. eigenvalues --    2.66234   2.66578   2.67289   2.67551   2.69366
 Alpha virt. eigenvalues --    2.69385   2.70291   2.71211   2.71675   2.72301
 Alpha virt. eigenvalues --    2.72764   2.74305   2.75554   2.76731   2.77449
 Alpha virt. eigenvalues --    2.78944   2.80559   2.81453   2.82446   2.83461
 Alpha virt. eigenvalues --    2.83704   2.84706   2.86658   2.87773   2.88138
 Alpha virt. eigenvalues --    3.14635   3.20332   3.35832   3.41131   3.46814
 Alpha virt. eigenvalues --    3.47861   3.48554   3.48607   3.51089   3.51112
 Alpha virt. eigenvalues --    3.52967   3.54097   3.60302   3.61067   3.62062
 Alpha virt. eigenvalues --    3.66193   4.31652   4.59176   7.92221  31.29995
          Condensed to atoms (all electrons):
               1          2          3          4          5          6
     1  Zr  15.023788  -0.118961  -0.004532  -0.124399  -0.193037  -0.594611
     2  O   -0.118961   9.065369   0.020198  -0.042835  -0.058352   0.087846
     3  O   -0.004532   0.020198   8.835358   0.016454  -0.044684  -0.003274
     4  O   -0.124399  -0.042835   0.016454   8.813965  -0.058921  -0.683624
     5  O   -0.193037  -0.058352  -0.044684  -0.058921   9.445330  -0.008481
     6  Si  -0.594611   0.087846  -0.003274  -0.683624  -0.008481  14.002578
     7  Si  -0.607028  -0.028905  -0.879482  -0.007763  -0.034898   0.082481
     8  Si  -0.582953  -1.005999  -0.018749   0.068951  -0.015816  -0.015711
     9  Si  -0.309280  -0.042775  -0.031445  -0.035338  -1.243727   0.036753
    10  O   -0.012836   0.001096  -0.001780   0.001089   0.131721  -0.002295
    11  O   -0.059914   0.003423   0.002954   0.001191   0.312786  -0.000886
    12  O    0.040356   0.000060   0.004567   0.002106   0.154237  -0.002894
    13  O   -0.036988   0.185860   0.001693  -0.015737  -0.000589   0.036350
    14  O   -0.014447   0.264584  -0.017327  -0.008586   0.002133   0.027934
    15  O   -0.083092   0.293610  -0.000717   0.001260   0.000568  -0.000301
    16  O   -0.126357   0.004694  -0.000497   0.345413   0.003237  -0.422773
    17  O   -0.073074  -0.040099   0.008301   0.219243   0.001448  -0.459083
    18  O   -0.023494  -0.014499   0.003765   0.197749  -0.000557  -0.452682
    19  O    0.001655   0.008967   0.264237   0.009969   0.002164  -0.007105
    20  O   -0.146720  -0.000570   0.166121  -0.000869   0.001587   0.009005
    21  O    0.035251   0.010257   0.145380   0.003365   0.000174  -0.011323
    22  H   -0.008351  -0.000018  -0.000017  -0.000009   0.005907   0.000078
    23  H   -0.007945  -0.000013  -0.000005  -0.000054  -0.025301   0.000084
    24  H   -0.005120  -0.000206  -0.000013   0.000003  -0.005525   0.000077
    25  H    0.017145  -0.020014  -0.000112  -0.000264   0.000017   0.002406
    26  H    0.007047   0.000584   0.000014  -0.000011  -0.000004  -0.000122
    27  H    0.002821  -0.019150   0.000816  -0.001731   0.000008   0.009282
    28  H    0.005153  -0.000011  -0.018502  -0.000014  -0.000016  -0.000278
    29  H    0.004272  -0.007078  -0.020324  -0.000143  -0.000076   0.000166
    30  H    0.000777  -0.000012   0.000054  -0.000452  -0.000009  -0.000655
    31  H   -0.000327   0.000179  -0.000019  -0.018447  -0.000009   0.063801
    32  H    0.002093  -0.000023   0.000040   0.010396   0.000001   0.022831
    33  H   -0.015912   0.001013  -0.010105  -0.009507  -0.000104   0.053061
               7          8          9         10         11         12
     1  Zr  -0.607028  -0.582953  -0.309280  -0.012836  -0.059914   0.040356
     2  O   -0.028905  -1.005999  -0.042775   0.001096   0.003423   0.000060
     3  O   -0.879482  -0.018749  -0.031445  -0.001780   0.002954   0.004567
     4  O   -0.007763   0.068951  -0.035338   0.001089   0.001191   0.002106
     5  O   -0.034898  -0.015816  -1.243727   0.131721   0.312786   0.154237
     6  Si   0.082481  -0.015711   0.036753  -0.002295  -0.000886  -0.002894
     7  Si  13.798543   0.180965   0.019486  -0.000330  -0.000968   0.003858
     8  Si   0.180965  13.815351   0.025290  -0.000972   0.001100  -0.000787
     9  Si   0.019486   0.025290  14.278308  -0.076049  -0.182189  -0.205962
    10  O   -0.000330  -0.000972  -0.076049   8.525220   0.017794   0.029882
    11  O   -0.000968   0.001100  -0.182189   0.017794   8.510300  -0.049882
    12  O    0.003858  -0.000787  -0.205962   0.029882  -0.049882   8.598379
    13  O    0.007380  -0.095349   0.000283   0.000000   0.000019   0.000008
    14  O    0.008282  -0.372066  -0.001552  -0.000002   0.000001   0.000015
    15  O   -0.002711  -0.305656  -0.000702  -0.000000  -0.000024  -0.000013
    16  O    0.003891  -0.010197  -0.000971   0.000004  -0.000002  -0.000001
    17  O   -0.001972   0.094867   0.002361  -0.000002   0.000002  -0.000005
    18  O   -0.000713   0.074127   0.004160  -0.000003  -0.000000  -0.000001
    19  O   -0.408423  -0.015739   0.001041   0.000006  -0.000002  -0.000021
    20  O   -0.111562   0.009614   0.003058   0.000002  -0.000003  -0.000027
    21  O    0.025799  -0.039461  -0.001690   0.000001   0.000001   0.000021
    22  H   -0.000171   0.000081   0.046514  -0.006664  -0.005061   0.219858
    23  H    0.000062   0.000064   0.081750   0.228396  -0.006283   0.005902
    24  H    0.000052  -0.000097   0.036655   0.007293   0.243180  -0.007475
    25  H   -0.000470   0.057409  -0.000217   0.000000  -0.000000  -0.000000
    26  H   -0.000374   0.046341  -0.000039  -0.000000   0.000000  -0.000000
    27  H    0.001533   0.069013   0.000004   0.000000  -0.000000  -0.000000
    28  H    0.056725  -0.000071  -0.000132  -0.000000  -0.000000  -0.000003
    29  H    0.048120   0.021883  -0.000052   0.000000   0.000000  -0.000001
    30  H    0.040202   0.000096   0.000023  -0.000000   0.000000   0.000000
    31  H    0.000155  -0.001914  -0.000052   0.000000  -0.000000   0.000000
    32  H   -0.000651   0.000050   0.000016  -0.000000   0.000000   0.000000
    33  H    0.020626   0.000103   0.000075  -0.000000   0.000000   0.000000
              13         14         15         16         17         18
     1  Zr  -0.036988  -0.014447  -0.083092  -0.126357  -0.073074  -0.023494
     2  O    0.185860   0.264584   0.293610   0.004694  -0.040099  -0.014499
     3  O    0.001693  -0.017327  -0.000717  -0.000497   0.008301   0.003765
     4  O   -0.015737  -0.008586   0.001260   0.345413   0.219243   0.197749
     5  O   -0.000589   0.002133   0.000568   0.003237   0.001448  -0.000557
     6  Si   0.036350   0.027934  -0.000301  -0.422773  -0.459083  -0.452682
     7  Si   0.007380   0.008282  -0.002711   0.003891  -0.001972  -0.000713
     8  Si  -0.095349  -0.372066  -0.305656  -0.010197   0.094867   0.074127
     9  Si   0.000283  -0.001552  -0.000702  -0.000971   0.002361   0.004160
    10  O    0.000000  -0.000002  -0.000000   0.000004  -0.000002  -0.000003
    11  O    0.000019   0.000001  -0.000024  -0.000002   0.000002  -0.000000
    12  O    0.000008   0.000015  -0.000013  -0.000001  -0.000005  -0.000001
    13  O    8.628173   0.087166  -0.090351   0.003735  -0.030873  -0.045600
    14  O    0.087166   8.675371   0.055533   0.003694  -0.035901  -0.026794
    15  O   -0.090351   0.055533   8.777522  -0.000175   0.003583   0.001680
    16  O    0.003735   0.003694  -0.000175   8.902137  -0.091520  -0.114977
    17  O   -0.030873  -0.035901   0.003583  -0.091520   8.936001   0.227544
    18  O   -0.045600  -0.026794   0.001680  -0.114977   0.227544   9.013027
    19  O    0.000175  -0.000436   0.000141  -0.001550  -0.030154   0.000154
    20  O    0.000008  -0.000200   0.000039   0.000067  -0.000955   0.000014
    21  O   -0.000255   0.015816  -0.000621  -0.000216  -0.005521   0.000479
    22  H   -0.000000  -0.000000  -0.000000   0.000000   0.000000  -0.000000
    23  H    0.000000   0.000000  -0.000000  -0.000000   0.000000  -0.000000
    24  H   -0.000000   0.000000   0.000002   0.000000  -0.000000  -0.000000
    25  H    0.218384  -0.011987   0.008904  -0.000052   0.000641   0.014974
    26  H   -0.005102  -0.010078   0.216968   0.000000  -0.000002   0.000007
    27  H   -0.009732   0.219384   0.004641   0.000180   0.018014  -0.000256
    28  H   -0.000000  -0.000005  -0.000001  -0.000000   0.000004  -0.000000
    29  H    0.000798   0.017566  -0.002572  -0.000004  -0.000398   0.000006
    30  H    0.000001  -0.000002   0.000000   0.000115  -0.000413  -0.000007
    31  H    0.002367   0.000166  -0.000018   0.003792  -0.000761   0.218212
    32  H   -0.000008  -0.000006   0.000000   0.233425  -0.003640   0.003886
    33  H    0.000226   0.002076  -0.000035  -0.000089   0.231055   0.002104
              19         20         21         22         23         24
     1  Zr   0.001655  -0.146720   0.035251  -0.008351  -0.007945  -0.005120
     2  O    0.008967  -0.000570   0.010257  -0.000018  -0.000013  -0.000206
     3  O    0.264237   0.166121   0.145380  -0.000017  -0.000005  -0.000013
     4  O    0.009969  -0.000869   0.003365  -0.000009  -0.000054   0.000003
     5  O    0.002164   0.001587   0.000174   0.005907  -0.025301  -0.005525
     6  Si  -0.007105   0.009005  -0.011323   0.000078   0.000084   0.000077
     7  Si  -0.408423  -0.111562   0.025799  -0.000171   0.000062   0.000052
     8  Si  -0.015739   0.009614  -0.039461   0.000081   0.000064  -0.000097
     9  Si   0.001041   0.003058  -0.001690   0.046514   0.081750   0.036655
    10  O    0.000006   0.000002   0.000001  -0.006664   0.228396   0.007293
    11  O   -0.000002  -0.000003   0.000001  -0.005061  -0.006283   0.243180
    12  O   -0.000021  -0.000027   0.000021   0.219858   0.005902  -0.007475
    13  O    0.000175   0.000008  -0.000255  -0.000000   0.000000  -0.000000
    14  O   -0.000436  -0.000200   0.015816  -0.000000   0.000000   0.000000
    15  O    0.000141   0.000039  -0.000621  -0.000000  -0.000000   0.000002
    16  O   -0.001550   0.000067  -0.000216   0.000000  -0.000000   0.000000
    17  O   -0.030154  -0.000955  -0.005521   0.000000   0.000000  -0.000000
    18  O    0.000154   0.000014   0.000479  -0.000000  -0.000000  -0.000000
    19  O    8.872036   0.032418   0.023004  -0.000000   0.000000  -0.000000
    20  O    0.032418   8.658198  -0.050395   0.000000   0.000000  -0.000000
    21  O    0.023004  -0.050395   8.484648  -0.000000   0.000000   0.000000
    22  H   -0.000000   0.000000  -0.000000   0.362407   0.000058   0.000122
    23  H    0.000000   0.000000   0.000000   0.000058   0.351038   0.000014
    24  H   -0.000000  -0.000000   0.000000   0.000122   0.000014   0.365076
    25  H   -0.000024   0.000000  -0.000019   0.000000   0.000000   0.000000
    26  H    0.000001  -0.000000   0.000040  -0.000000  -0.000000  -0.000000
    27  H    0.000044   0.000191  -0.004000  -0.000000  -0.000000   0.000000
    28  H    0.004612   0.229583  -0.002089  -0.000000   0.000000  -0.000000
    29  H   -0.008573   0.007661   0.206451   0.000000   0.000000  -0.000000
    30  H    0.224220  -0.001485  -0.007131   0.000000   0.000000  -0.000000
    31  H    0.000004  -0.000000  -0.000000  -0.000000  -0.000000   0.000000
    32  H    0.000099  -0.000000   0.000001  -0.000000  -0.000000  -0.000000
    33  H    0.014879  -0.000088   0.001483  -0.000000  -0.000000  -0.000000
              25         26         27         28         29         30
     1  Zr   0.017145   0.007047   0.002821   0.005153   0.004272   0.000777
     2  O   -0.020014   0.000584  -0.019150  -0.000011  -0.007078  -0.000012
     3  O   -0.000112   0.000014   0.000816  -0.018502  -0.020324   0.000054
     4  O   -0.000264  -0.000011  -0.001731  -0.000014  -0.000143  -0.000452
     5  O    0.000017  -0.000004   0.000008  -0.000016  -0.000076  -0.000009
     6  Si   0.002406  -0.000122   0.009282  -0.000278   0.000166  -0.000655
     7  Si  -0.000470  -0.000374   0.001533   0.056725   0.048120   0.040202
     8  Si   0.057409   0.046341   0.069013  -0.000071   0.021883   0.000096
     9  Si  -0.000217  -0.000039   0.000004  -0.000132  -0.000052   0.000023
    10  O    0.000000  -0.000000   0.000000  -0.000000   0.000000  -0.000000
    11  O   -0.000000   0.000000  -0.000000  -0.000000   0.000000   0.000000
    12  O   -0.000000  -0.000000  -0.000000  -0.000003  -0.000001   0.000000
    13  O    0.218384  -0.005102  -0.009732  -0.000000   0.000798   0.000001
    14  O   -0.011987  -0.010078   0.219384  -0.000005   0.017566  -0.000002
    15  O    0.008904   0.216968   0.004641  -0.000001  -0.002572   0.000000
    16  O   -0.000052   0.000000   0.000180  -0.000000  -0.000004   0.000115
    17  O    0.000641  -0.000002   0.018014   0.000004  -0.000398  -0.000413
    18  O    0.014974   0.000007  -0.000256  -0.000000   0.000006  -0.000007
    19  O   -0.000024   0.000001   0.000044   0.004612  -0.008573   0.224220
    20  O    0.000000  -0.000000   0.000191   0.229583   0.007661  -0.001485
    21  O   -0.000019   0.000040  -0.004000  -0.002089   0.206451  -0.007131
    22  H    0.000000  -0.000000  -0.000000  -0.000000   0.000000   0.000000
    23  H    0.000000  -0.000000  -0.000000   0.000000   0.000000   0.000000
    24  H    0.000000  -0.000000   0.000000  -0.000000  -0.000000  -0.000000
    25  H    0.298855  -0.000012   0.000116   0.000000   0.000001   0.000000
    26  H   -0.000012   0.365947   0.000035   0.000000   0.000021  -0.000000
    27  H    0.000116   0.000035   0.283305  -0.000000  -0.001498   0.000010
    28  H    0.000000   0.000000  -0.000000   0.349119  -0.000017  -0.000016
    29  H    0.000001   0.000021  -0.001498  -0.000017   0.285968   0.000156
    30  H    0.000000  -0.000000   0.000010  -0.000016   0.000156   0.334214
    31  H   -0.000499   0.000000   0.000013  -0.000000   0.000000  -0.000000
    32  H   -0.000001   0.000000  -0.000000   0.000000  -0.000000  -0.000000
    33  H    0.000006  -0.000000  -0.002417  -0.000002   0.000098  -0.001157
              31         32         33
     1  Zr  -0.000327   0.002093  -0.015912
     2  O    0.000179  -0.000023   0.001013
     3  O   -0.000019   0.000040  -0.010105
     4  O   -0.018447   0.010396  -0.009507
     5  O   -0.000009   0.000001  -0.000104
     6  Si   0.063801   0.022831   0.053061
     7  Si   0.000155  -0.000651   0.020626
     8  Si  -0.001914   0.000050   0.000103
     9  Si  -0.000052   0.000016   0.000075
    10  O    0.000000  -0.000000  -0.000000
    11  O   -0.000000   0.000000   0.000000
    12  O    0.000000   0.000000   0.000000
    13  O    0.002367  -0.000008   0.000226
    14  O    0.000166  -0.000006   0.002076
    15  O   -0.000018   0.000000  -0.000035
    16  O    0.003792   0.233425  -0.000089
    17  O   -0.000761  -0.003640   0.231055
    18  O    0.218212   0.003886   0.002104
    19  O    0.000004   0.000099   0.014879
    20  O   -0.000000  -0.000000  -0.000088
    21  O   -0.000000   0.000001   0.001483
    22  H   -0.000000  -0.000000  -0.000000
    23  H   -0.000000  -0.000000  -0.000000
    24  H    0.000000  -0.000000  -0.000000
    25  H   -0.000499  -0.000001   0.000006
    26  H    0.000000   0.000000  -0.000000
    27  H    0.000013  -0.000000  -0.002417
    28  H   -0.000000   0.000000  -0.000002
    29  H    0.000000  -0.000000   0.000098
    30  H   -0.000000  -0.000000  -0.001157
    31  H    0.331386   0.000001  -0.000038
    32  H    0.000001   0.349950   0.000156
    33  H   -0.000038   0.000156   0.269242
 Mulliken charges:
               1
     1  Zr   0.009022
     2  O   -0.548219
     3  O   -0.418368
     4  O   -0.682453
     5  O   -0.371211
     6  Si   2.231364
     7  Si   1.788261
     8  Si   2.016230
     9  Si   1.596396
    10  O   -0.841570
    11  O   -0.787537
    12  O   -0.792175
    13  O   -0.842041
    14  O   -0.880332
    15  O   -0.877466
    16  O   -0.735002
    17  O   -0.968689
    18  O   -1.082302
    19  O   -0.987801
    20  O   -0.804692
    21  O   -0.829448
    22  H    0.385264
    23  H    0.372231
    24  H    0.365961
    25  H    0.414813
    26  H    0.378740
    27  H    0.429375
    28  H    0.375961
    29  H    0.447569
    30  H    0.411472
    31  H    0.402011
    32  H    0.381385
    33  H    0.443251
 Sum of Mulliken charges =  -0.00000
 Mulliken charges with hydrogens summed into heavy atoms:
               1
     1  Zr   0.009022
     2  O   -0.548219
     3  O   -0.418368
     4  O   -0.682453
     5  O   -0.371211
     6  Si   2.231364
     7  Si   1.788261
     8  Si   2.016230
     9  Si   1.596396
    10  O   -0.469339
    11  O   -0.421576
    12  O   -0.406911
    13  O   -0.427228
    14  O   -0.450957
    15  O   -0.498725
    16  O   -0.353617
    17  O   -0.525437
    18  O   -0.680291
    19  O   -0.576329
    20  O   -0.428731
    21  O   -0.381879
 Electronic spatial extent (au):  <R**2>=           9881.7831
 Charge=             -0.0000 electrons
 Dipole moment (field-independent basis, Debye):
    X=              1.0558    Y=             -0.7995    Z=             -2.4152  Tot=              2.7545
 Quadrupole moment (field-independent basis, Debye-Ang):
   XX=           -160.2028   YY=           -154.8254   ZZ=           -157.8157
   XY=             -5.1489   XZ=              2.1373   YZ=              5.6910
 Traceless Quadrupole moment (field-independent basis, Debye-Ang):
   XX=             -2.5882   YY=              2.7892   ZZ=             -0.2011
   XY=             -5.1489   XZ=              2.1373   YZ=              5.6910
 Octapole moment (field-independent basis, Debye-Ang**2):
  XXX=             73.9965  YYY=              6.5961  ZZZ=            -18.5699  XYY=             -2.3847
  XXY=             20.8045  XXZ=             18.9116  XZZ=              5.2532  YZZ=            -17.1240
  YYZ=            -15.2838  XYZ=             28.5709
 Hexadecapole moment (field-independent basis, Debye-Ang**3):
 XXXX=          -6027.0793 YYYY=          -2840.4669 ZZZZ=          -2263.2416 XXXY=             57.2156
 XXXZ=            -17.2961 YYYX=              1.2137 YYYZ=            221.8064 ZZZX=           -183.2614
 ZZZY=            -57.6199 XXYY=          -1489.4600 XXZZ=          -1364.6827 YYZZ=           -925.9688
 XXYZ=            -11.2631 YYXZ=            123.9381 ZZXY=            -60.6207
 N-N= 2.831983564337D+03 E-N=-1.137655496095D+04  KE= 2.373154058985D+03
 PrsmSu:  requested number of processors reduced to:   2 ShMem   1 Linda.
 PrsmSu:  requested number of processors reduced to:  10 ShMem   1 Linda.
   1 Symmetry operations used in ECPInt.
 ECPInt:  NShTT=   13203 NPrTT=   78401 LenC2=   11526 LenP2D=   44627.
 LDataN:  DoStor=T MaxTD1= 9 Len=  602
 Number of processors reduced to  14 by ecpmxn.
 Calling FoFJK, ICntrl=      2127 FMM=F ISym2X=0 I1Cent= 0 IOpClX= 0 NMat=1 NMatS=1 NMatT=0.
 CoulSu:  requested number of processors reduced to:  10 ShMem   1 Linda.
 Defaulting to unpruned grid for atomic number  40.
 Defaulting to unpruned grid for atomic number  40.
 Defaulting to unpruned grid for atomic number  40.
 Defaulting to unpruned grid for atomic number  40.
 Defaulting to unpruned grid for atomic number  40.
 Defaulting to unpruned grid for atomic number  40.
 Defaulting to unpruned grid for atomic number  40.
 Defaulting to unpruned grid for atomic number  40.
 Defaulting to unpruned grid for atomic number  40.
 Defaulting to unpruned grid for atomic number  40.
 Defaulting to unpruned grid for atomic number  40.
 Defaulting to unpruned grid for atomic number  40.
 Defaulting to unpruned grid for atomic number  40.
 Defaulting to unpruned grid for atomic number  40.
 Defaulting to unpruned grid for atomic number  40.
 Defaulting to unpruned grid for atomic number  40.
 ***** Axes restored to original set *****
 -------------------------------------------------------------------
 Center     Atomic                   Forces (Hartrees/Bohr)
 Number     Number              X              Y              Z
 -------------------------------------------------------------------
      1       40           0.000245955   -0.000086541   -0.000006691
      2        8           0.000007519    0.000005178   -0.000032079
      3        8           0.000002446    0.000073982   -0.000000978
      4        8           0.000027177   -0.000005347    0.000037617
      5        8          -0.000166550   -0.000124203   -0.000051539
      6       14          -0.000045864    0.000012363   -0.000012812
      7       14          -0.000001946    0.000005727   -0.000010889
      8       14          -0.000031375   -0.000003502    0.000029721
      9       14          -0.000126306    0.000333450    0.000101096
     10        8           0.000002598   -0.000032833   -0.000022935
     11        8           0.000005131   -0.000085774   -0.000016727
     12        8           0.000014235   -0.000074011   -0.000028690
     13        8           0.000007125    0.000004638   -0.000001701
     14        8           0.000021932   -0.000016552   -0.000001602
     15        8           0.000003367   -0.000004553   -0.000020509
     16        8           0.000009362   -0.000002837    0.000005733
     17        8           0.000018734   -0.000007536   -0.000005041
     18        8           0.000001929    0.000004397    0.000006048
     19        8           0.000003465   -0.000001189    0.000004412
     20        8           0.000005419   -0.000006017    0.000006836
     21        8          -0.000001613    0.000001345    0.000001244
     22        1          -0.000001713   -0.000026393   -0.000011112
     23        1           0.000003422   -0.000010288   -0.000000991
     24        1           0.000013004    0.000016625    0.000026536
     25        1          -0.000002229    0.000001920   -0.000003286
     26        1          -0.000001246    0.000004329    0.000005330
     27        1          -0.000001498    0.000007808   -0.000005849
     28        1          -0.000000376    0.000005672   -0.000000971
     29        1          -0.000012687    0.000007340    0.000009785
     30        1           0.000001065    0.000001633   -0.000000844
     31        1           0.000001168   -0.000004518   -0.000003138
     32        1          -0.000005769    0.000002492   -0.000001842
     33        1           0.000004119    0.000003195    0.000005870
 -------------------------------------------------------------------
 Cartesian Forces:  Max     0.000333450 RMS     0.000053656

 GradGradGradGradGradGradGradGradGradGradGradGradGradGradGradGradGradGrad
 Berny optimization.
 FormGI is forming the generalized inverse of G from B-inverse, IUseBI=4.
 Internal  Forces:  Max     0.000252493 RMS     0.000035728
 Search for a local minimum.
 Step number   1 out of a maximum of  153
 All quantities printed in internal units (Hartrees-Bohrs-Radians)
 Mixed Optimization -- En-DIIS/RFO-DIIS
 Second derivative matrix not updated -- first step.
 ITU=  0
     Eigenvalues ---    0.00230   0.00230   0.00230   0.02272   0.03240
     Eigenvalues ---    0.03358   0.03498   0.03580   0.03665   0.03665
     Eigenvalues ---    0.03680   0.03686   0.03693   0.03739   0.03789
     Eigenvalues ---    0.03792   0.03816   0.03834   0.03850   0.05823
     Eigenvalues ---    0.06740   0.07121   0.11077   0.11224   0.11833
     Eigenvalues ---    0.11884   0.12177   0.12219   0.12239   0.12717
     Eigenvalues ---    0.12895   0.13099   0.13313   0.16000   0.16000
     Eigenvalues ---    0.16000   0.16000   0.16000   0.16000   0.16000
     Eigenvalues ---    0.16000   0.16000   0.16000   0.16000   0.16000
     Eigenvalues ---    0.18127   0.18719   0.19173   0.19796   0.20203
     Eigenvalues ---    0.20203   0.20208   0.20515   0.20653   0.20795
     Eigenvalues ---    0.20864   0.20989   0.21175   0.21186   0.25000
     Eigenvalues ---    0.25000   0.25000   0.38002   0.39187   0.40659
     Eigenvalues ---    0.41547   0.42502   0.42509   0.42670   0.42743
     Eigenvalues ---    0.42824   0.43363   0.43951   0.43980   0.44273
     Eigenvalues ---    0.44485   0.44689   0.44757   0.50655   0.51353
     Eigenvalues ---    0.52036   0.52548   0.54334   0.54624   0.54643
     Eigenvalues ---    0.54649   0.54689   0.54692   0.54712   0.54765
     Eigenvalues --- 1000.000001000.000001000.000001000.000001000.00000
     Eigenvalues --- 1000.000001000.000001000.000001000.000001000.00000
     Eigenvalues --- 1000.000001000.000001000.000001000.000001000.00000
     Eigenvalues --- 1000.000001000.000001000.000001000.000001000.00000
     Eigenvalues --- 1000.000001000.000001000.000001000.000001000.00000
     Eigenvalues --- 1000.000001000.000001000.000001000.000001000.00000
     Eigenvalues --- 1000.000001000.000001000.000001000.000001000.00000
     Eigenvalues --- 1000.000001000.000001000.000001000.000001000.00000
     Eigenvalues --- 1000.000001000.000001000.000001000.000001000.00000
     Eigenvalues --- 1000.000001000.000001000.000001000.000001000.00000
     Eigenvalues --- 1000.000001000.000001000.00000
 RFO step:  Lambda=-7.56814101D-07 EMin= 2.30000000D-03
 Linear search not attempted -- first point.
 Iteration  1 RMS(Cart)=  0.00151374 RMS(Int)=  0.00000053
 Iteration  2 RMS(Cart)=  0.00000094 RMS(Int)=  0.00000002
 Iteration  1 RMS(Cart)=  0.00000001 RMS(Int)=  0.00000000
 Variable       Old X    -DE/DX   Delta X   Delta X   Delta X     New X
                                 (Linear)    (Quad)   (Total)
    R1        3.67647  -0.00002   0.00000  -0.00012  -0.00012   3.67635
    R2        3.69189   0.00009   0.00000   0.00041   0.00041   3.69231
    R3        3.73835  -0.00003   0.00000  -0.00016  -0.00016   3.73819
    R4        3.70232  -0.00025   0.00000  -0.00125  -0.00125   3.70107
    R5        3.11688   0.00000   0.00000   0.00001   0.00001   3.11688
    R6        3.09579   0.00002   0.00000   0.00004   0.00004   3.09583
    R7        3.10213   0.00001   0.00000   0.00003   0.00003   3.10216
    R8        3.09245  -0.00008   0.00000  -0.00017  -0.00017   3.09228
    R9        3.11587  -0.00000   0.00000  -0.00001  -0.00001   3.11586
   R10        3.11989  -0.00002   0.00000  -0.00004  -0.00004   3.11985
   R11        3.14367   0.00000   0.00000   0.00000   0.00000   3.14367
   R12        3.18062  -0.00000   0.00000  -0.00001  -0.00001   3.18061
   R13        3.10924  -0.00000   0.00000  -0.00000  -0.00000   3.10924
   R14        3.09339   0.00002   0.00000   0.00004   0.00004   3.09342
   R15        3.10179  -0.00001   0.00000  -0.00001  -0.00001   3.10178
   R16        3.16373  -0.00002   0.00000  -0.00004  -0.00004   3.16369
   R17        3.09830  -0.00001   0.00000  -0.00003  -0.00003   3.09826
   R18        3.11980   0.00002   0.00000   0.00005   0.00005   3.11985
   R19        3.13205   0.00007   0.00000   0.00016   0.00016   3.13220
   R20        3.11779  -0.00010   0.00000  -0.00024  -0.00024   3.11755
   R21        1.82151   0.00001   0.00000   0.00002   0.00002   1.82152
   R22        1.82106   0.00001   0.00000   0.00002   0.00002   1.82108
   R23        1.82089  -0.00001   0.00000  -0.00002  -0.00002   1.82087
   R24        1.84078   0.00000   0.00000   0.00001   0.00001   1.84079
   R25        1.84565   0.00000   0.00000   0.00001   0.00001   1.84566
   R26        1.82041   0.00000   0.00000   0.00000   0.00000   1.82042
   R27        1.82109  -0.00000   0.00000  -0.00000  -0.00000   1.82109
   R28        1.85910   0.00000   0.00000   0.00000   0.00000   1.85911
   R29        1.82145   0.00001   0.00000   0.00001   0.00001   1.82146
   R30        1.82428   0.00000   0.00000   0.00000   0.00000   1.82428
   R31        1.82168   0.00000   0.00000   0.00000   0.00000   1.82168
   R32        1.85224   0.00000   0.00000   0.00000   0.00000   1.85224
    A1        1.85172   0.00004   0.00000   0.00022   0.00022   1.85195
    A2        1.80155  -0.00006   0.00000  -0.00020  -0.00020   1.80136
    A3        1.96889   0.00001   0.00000   0.00012   0.00012   1.96901
    A4        1.83430   0.00003   0.00000   0.00002   0.00002   1.83432
    A5        2.01802  -0.00004   0.00000  -0.00023  -0.00023   2.01779
    A6        1.97057   0.00002   0.00000   0.00006   0.00006   1.97063
    A7        2.46524  -0.00001   0.00000  -0.00006  -0.00006   2.46518
    A8        2.58826   0.00004   0.00000   0.00018   0.00018   2.58843
    A9        2.35483  -0.00004   0.00000  -0.00015  -0.00015   2.35467
   A10        2.89725  -0.00020   0.00000   0.00000   0.00000   2.89725
[...]
 Alpha virt. eigenvalues --    3.47858   3.48548   3.48608   3.51086   3.51114
 Alpha virt. eigenvalues --    3.52972   3.54084   3.60290   3.61050   3.62065
 Alpha virt. eigenvalues --    3.66193   4.31633   4.59092   7.92328  31.30041
          Condensed to atoms (all electrons):
               1          2          3          4          5          6
     1  Zr  15.025764  -0.119958  -0.004486  -0.124828  -0.194813  -0.593971
     2  O   -0.119958   9.065549   0.020155  -0.042744  -0.058410   0.087916
     3  O   -0.004486   0.020155   8.835540   0.016399  -0.044746  -0.003232
     4  O   -0.124828  -0.042744   0.016399   8.814117  -0.058936  -0.683373
     5  O   -0.194813  -0.058410  -0.044746  -0.058936   9.446495  -0.008477
     6  Si  -0.593971   0.087916  -0.003232  -0.683373  -0.008477  14.001194
     7  Si  -0.606502  -0.028796  -0.879313  -0.007689  -0.034918   0.082372
     8  Si  -0.582363  -1.005479  -0.018611   0.068911  -0.015833  -0.015963
     9  Si  -0.307968  -0.042682  -0.031541  -0.035349  -1.243249   0.036677
    10  O   -0.012882   0.001098  -0.001775   0.001086   0.131515  -0.002291
    11  O   -0.059799   0.003422   0.002959   0.001189   0.312655  -0.000888
    12  O    0.040067   0.000046   0.004539   0.002103   0.153625  -0.002889
    13  O   -0.037167   0.185694   0.001693  -0.015746  -0.000594   0.036423
    14  O   -0.014831   0.264740  -0.017426  -0.008518   0.002141   0.027881
    15  O   -0.083163   0.293810  -0.000725   0.001257   0.000570  -0.000282
    16  O   -0.126435   0.004693  -0.000503   0.345243   0.003242  -0.422337
    17  O   -0.073095  -0.040004   0.008273   0.219237   0.001448  -0.458938
    18  O   -0.023755  -0.014472   0.003760   0.197828  -0.000558  -0.452548
    19  O    0.001271   0.008961   0.264114   0.009959   0.002166  -0.006944
    20  O   -0.146866  -0.000565   0.166067  -0.000863   0.001594   0.009016
    21  O    0.035331   0.010272   0.145197   0.003358   0.000177  -0.011304
    22  H   -0.008362  -0.000017  -0.000017  -0.000009   0.005975   0.000078
    23  H   -0.007951  -0.000013  -0.000005  -0.000054  -0.025340   0.000084
    24  H   -0.005164  -0.000205  -0.000013   0.000003  -0.005581   0.000077
    25  H    0.017183  -0.020014  -0.000112  -0.000270   0.000017   0.002402
    26  H    0.007055   0.000581   0.000014  -0.000011  -0.000004  -0.000123
    27  H    0.002868  -0.019174   0.000817  -0.001734   0.000008   0.009263
    28  H    0.005161  -0.000011  -0.018493  -0.000014  -0.000016  -0.000278
    29  H    0.004240  -0.007078  -0.020301  -0.000144  -0.000076   0.000165
    30  H    0.000795  -0.000012   0.000052  -0.000452  -0.000009  -0.000663
    31  H   -0.000320   0.000177  -0.000019  -0.018455  -0.000009   0.063802
    32  H    0.002089  -0.000023   0.000040   0.010378   0.000001   0.022845
    33  H   -0.015896   0.001012  -0.010101  -0.009504  -0.000105   0.053014
               7          8          9         10         11         12
     1  Zr  -0.606502  -0.582363  -0.307968  -0.012882  -0.059799   0.040067
     2  O   -0.028796  -1.005479  -0.042682   0.001098   0.003422   0.000046
     3  O   -0.879313  -0.018611  -0.031541  -0.001775   0.002959   0.004539
     4  O   -0.007689   0.068911  -0.035349   0.001086   0.001189   0.002103
     5  O   -0.034918  -0.015833  -1.243249   0.131515   0.312655   0.153625
     6  Si   0.082372  -0.015963   0.036677  -0.002291  -0.000888  -0.002889
     7  Si  13.797720   0.180828   0.019523  -0.000338  -0.000965   0.003850
     8  Si   0.180828  13.813986   0.025266  -0.000974   0.001098  -0.000783
     9  Si   0.019523   0.025266  14.275508  -0.075591  -0.181929  -0.204343
    10  O   -0.000338  -0.000974  -0.075591   8.524878   0.018296   0.029324
    11  O   -0.000965   0.001098  -0.181929   0.018296   8.510199  -0.050146
    12  O    0.003850  -0.000783  -0.204343   0.029324  -0.050146   8.597492
    13  O    0.007391  -0.094991   0.000287   0.000000   0.000019   0.000008
    14  O    0.008381  -0.371933  -0.001545  -0.000002   0.000001   0.000015
    15  O   -0.002704  -0.306001  -0.000702  -0.000000  -0.000024  -0.000013
    16  O    0.003892  -0.010171  -0.000969   0.000004  -0.000002  -0.000001
    17  O   -0.001971   0.094750   0.002357  -0.000002   0.000002  -0.000005
    18  O   -0.000688   0.074097   0.004164  -0.000003  -0.000000  -0.000001
    19  O   -0.407910  -0.015672   0.001052   0.000006  -0.000002  -0.000021
    20  O   -0.111553   0.009616   0.003070   0.000002  -0.000003  -0.000027
    21  O    0.025817  -0.039489  -0.001692   0.000001   0.000001   0.000021
    22  H   -0.000170   0.000081   0.046466  -0.006658  -0.005079   0.219933
    23  H    0.000062   0.000064   0.081857   0.228403  -0.006317   0.005915
    24  H    0.000053  -0.000096   0.036799   0.007303   0.243180  -0.007497
    25  H   -0.000470   0.057411  -0.000217   0.000000  -0.000000  -0.000000
    26  H   -0.000375   0.046326  -0.000039  -0.000000   0.000000  -0.000000
    27  H    0.001538   0.069007   0.000004   0.000000  -0.000000  -0.000000
    28  H    0.056713  -0.000072  -0.000132  -0.000000  -0.000000  -0.000003
    29  H    0.048104   0.021866  -0.000052   0.000000   0.000000  -0.000001
    30  H    0.040206   0.000095   0.000023  -0.000000   0.000000   0.000000
    31  H    0.000155  -0.001909  -0.000052   0.000000  -0.000000   0.000000
    32  H   -0.000650   0.000050   0.000016  -0.000000   0.000000   0.000000
    33  H    0.020594   0.000097   0.000075  -0.000000   0.000000   0.000000
              13         14         15         16         17         18
     1  Zr  -0.037167  -0.014831  -0.083163  -0.126435  -0.073095  -0.023755
     2  O    0.185694   0.264740   0.293810   0.004693  -0.040004  -0.014472
     3  O    0.001693  -0.017426  -0.000725  -0.000503   0.008273   0.003760
     4  O   -0.015746  -0.008518   0.001257   0.345243   0.219237   0.197828
     5  O   -0.000594   0.002141   0.000570   0.003242   0.001448  -0.000558
     6  Si   0.036423   0.027881  -0.000282  -0.422337  -0.458938  -0.452548
     7  Si   0.007391   0.008381  -0.002704   0.003892  -0.001971  -0.000688
     8  Si  -0.094991  -0.371933  -0.306001  -0.010171   0.094750   0.074097
     9  Si   0.000287  -0.001545  -0.000702  -0.000969   0.002357   0.004164
    10  O    0.000000  -0.000002  -0.000000   0.000004  -0.000002  -0.000003
    11  O    0.000019   0.000001  -0.000024  -0.000002   0.000002  -0.000000
    12  O    0.000008   0.000015  -0.000013  -0.000001  -0.000005  -0.000001
    13  O    8.628270   0.087097  -0.090478   0.003736  -0.030880  -0.045608
    14  O    0.087097   8.675473   0.055595   0.003690  -0.035748  -0.026764
    15  O   -0.090478   0.055595   8.777948  -0.000175   0.003583   0.001678
    16  O    0.003736   0.003690  -0.000175   8.902006  -0.091624  -0.114945
    17  O   -0.030880  -0.035748   0.003583  -0.091624   8.935539   0.227568
    18  O   -0.045608  -0.026764   0.001678  -0.114945   0.227568   9.012899
    19  O    0.000175  -0.000475   0.000140  -0.001556  -0.030100   0.000158
    20  O    0.000008  -0.000189   0.000039   0.000066  -0.000948   0.000014
    21  O   -0.000258   0.015883  -0.000613  -0.000215  -0.005511   0.000478
    22  H   -0.000000  -0.000000  -0.000000   0.000000   0.000000  -0.000000
    23  H    0.000000   0.000000  -0.000000  -0.000000   0.000000  -0.000000
    24  H   -0.000000   0.000000   0.000002   0.000000  -0.000000  -0.000000
    25  H    0.218350  -0.011985   0.008909  -0.000052   0.000643   0.014971
    26  H   -0.005099  -0.010069   0.216957   0.000000  -0.000002   0.000006
    27  H   -0.009730   0.219381   0.004634   0.000179   0.018030  -0.000260
    28  H   -0.000000  -0.000006  -0.000001  -0.000000   0.000004  -0.000000
    29  H    0.000799   0.017565  -0.002573  -0.000004  -0.000405   0.000006
    30  H    0.000001  -0.000001   0.000000   0.000115  -0.000409  -0.000007
    31  H    0.002364   0.000165  -0.000018   0.003789  -0.000762   0.218228
    32  H   -0.000008  -0.000006   0.000000   0.233433  -0.003642   0.003890
    33  H    0.000227   0.002072  -0.000035  -0.000087   0.231122   0.002104
              19         20         21         22         23         24
     1  Zr   0.001271  -0.146866   0.035331  -0.008362  -0.007951  -0.005164
     2  O    0.008961  -0.000565   0.010272  -0.000017  -0.000013  -0.000205
     3  O    0.264114   0.166067   0.145197  -0.000017  -0.000005  -0.000013
     4  O    0.009959  -0.000863   0.003358  -0.000009  -0.000054   0.000003
     5  O    0.002166   0.001594   0.000177   0.005975  -0.025340  -0.005581
     6  Si  -0.006944   0.009016  -0.011304   0.000078   0.000084   0.000077
     7  Si  -0.407910  -0.111553   0.025817  -0.000170   0.000062   0.000053
     8  Si  -0.015672   0.009616  -0.039489   0.000081   0.000064  -0.000096
     9  Si   0.001052   0.003070  -0.001692   0.046466   0.081857   0.036799
    10  O    0.000006   0.000002   0.000001  -0.006658   0.228403   0.007303
    11  O   -0.000002  -0.000003   0.000001  -0.005079  -0.006317   0.243180
    12  O   -0.000021  -0.000027   0.000021   0.219933   0.005915  -0.007497
    13  O    0.000175   0.000008  -0.000258  -0.000000   0.000000  -0.000000
    14  O   -0.000475  -0.000189   0.015883  -0.000000   0.000000   0.000000
    15  O    0.000140   0.000039  -0.000613  -0.000000  -0.000000   0.000002
    16  O   -0.001556   0.000066  -0.000215   0.000000  -0.000000   0.000000
    17  O   -0.030100  -0.000948  -0.005511   0.000000   0.000000  -0.000000
    18  O    0.000158   0.000014   0.000478  -0.000000  -0.000000  -0.000000
    19  O    8.871758   0.032394   0.022937  -0.000000   0.000000  -0.000000
    20  O    0.032394   8.658346  -0.050263   0.000000   0.000000  -0.000000
    21  O    0.022937  -0.050263   8.484619  -0.000000   0.000000   0.000000
    22  H   -0.000000   0.000000  -0.000000   0.362326   0.000059   0.000123
    23  H    0.000000   0.000000   0.000000   0.000059   0.350952   0.000014
    24  H   -0.000000  -0.000000   0.000000   0.000123   0.000014   0.365122
    25  H   -0.000024   0.000000  -0.000019   0.000000   0.000000   0.000000
    26  H    0.000001  -0.000000   0.000040  -0.000000  -0.000000  -0.000000
    27  H    0.000044   0.000190  -0.004008  -0.000000  -0.000000   0.000000
    28  H    0.004610   0.229572  -0.002085  -0.000000   0.000000  -0.000000
    29  H   -0.008568   0.007658   0.206481   0.000000   0.000000  -0.000000
    30  H    0.224214  -0.001498  -0.007129   0.000000   0.000000  -0.000000
    31  H    0.000004  -0.000000  -0.000000  -0.000000  -0.000000   0.000000
    32  H    0.000098  -0.000000   0.000001  -0.000000  -0.000000  -0.000000
    33  H    0.014953  -0.000088   0.001480  -0.000000  -0.000000  -0.000000
              25         26         27         28         29         30
     1  Zr   0.017183   0.007055   0.002868   0.005161   0.004240   0.000795
     2  O   -0.020014   0.000581  -0.019174  -0.000011  -0.007078  -0.000012
     3  O   -0.000112   0.000014   0.000817  -0.018493  -0.020301   0.000052
     4  O   -0.000270  -0.000011  -0.001734  -0.000014  -0.000144  -0.000452
     5  O    0.000017  -0.000004   0.000008  -0.000016  -0.000076  -0.000009
     6  Si   0.002402  -0.000123   0.009263  -0.000278   0.000165  -0.000663
     7  Si  -0.000470  -0.000375   0.001538   0.056713   0.048104   0.040206
     8  Si   0.057411   0.046326   0.069007  -0.000072   0.021866   0.000095
     9  Si  -0.000217  -0.000039   0.000004  -0.000132  -0.000052   0.000023
    10  O    0.000000  -0.000000   0.000000  -0.000000   0.000000  -0.000000
    11  O   -0.000000   0.000000  -0.000000  -0.000000   0.000000   0.000000
    12  O   -0.000000  -0.000000  -0.000000  -0.000003  -0.000001   0.000000
    13  O    0.218350  -0.005099  -0.009730  -0.000000   0.000799   0.000001
    14  O   -0.011985  -0.010069   0.219381  -0.000006   0.017565  -0.000001
    15  O    0.008909   0.216957   0.004634  -0.000001  -0.002573   0.000000
    16  O   -0.000052   0.000000   0.000179  -0.000000  -0.000004   0.000115
    17  O    0.000643  -0.000002   0.018030   0.000004  -0.000405  -0.000409
    18  O    0.014971   0.000006  -0.000260  -0.000000   0.000006  -0.000007
    19  O   -0.000024   0.000001   0.000044   0.004610  -0.008568   0.224214
    20  O    0.000000  -0.000000   0.000190   0.229572   0.007658  -0.001498
    21  O   -0.000019   0.000040  -0.004008  -0.002085   0.206481  -0.007129
    22  H    0.000000  -0.000000  -0.000000  -0.000000   0.000000   0.000000
    23  H    0.000000  -0.000000  -0.000000   0.000000   0.000000   0.000000
    24  H    0.000000  -0.000000   0.000000  -0.000000  -0.000000  -0.000000
    25  H    0.298837  -0.000012   0.000116   0.000000   0.000001   0.000000
    26  H   -0.000012   0.365944   0.000035   0.000000   0.000021  -0.000000
    27  H    0.000116   0.000035   0.283341  -0.000000  -0.001500   0.000010
    28  H    0.000000   0.000000  -0.000000   0.349130  -0.000017  -0.000016
    29  H    0.000001   0.000021  -0.001500  -0.000017   0.285963   0.000156
    30  H    0.000000  -0.000000   0.000010  -0.000016   0.000156   0.334268
    31  H   -0.000499   0.000000   0.000013  -0.000000   0.000000  -0.000000
    32  H   -0.000001   0.000000  -0.000000   0.000000  -0.000000  -0.000000
    33  H    0.000006  -0.000000  -0.002421  -0.000002   0.000098  -0.001162
              31         32         33
     1  Zr  -0.000320   0.002089  -0.015896
     2  O    0.000177  -0.000023   0.001012
     3  O   -0.000019   0.000040  -0.010101
     4  O   -0.018455   0.010378  -0.009504
     5  O   -0.000009   0.000001  -0.000105
     6  Si   0.063802   0.022845   0.053014
     7  Si   0.000155  -0.000650   0.020594
     8  Si  -0.001909   0.000050   0.000097
     9  Si  -0.000052   0.000016   0.000075
    10  O    0.000000  -0.000000  -0.000000
    11  O   -0.000000   0.000000   0.000000
    12  O    0.000000   0.000000   0.000000
    13  O    0.002364  -0.000008   0.000227
    14  O    0.000165  -0.000006   0.002072
    15  O   -0.000018   0.000000  -0.000035
    16  O    0.003789   0.233433  -0.000087
    17  O   -0.000762  -0.003642   0.231122
    18  O    0.218228   0.003890   0.002104
    19  O    0.000004   0.000098   0.014953
    20  O   -0.000000  -0.000000  -0.000088
    21  O   -0.000000   0.000001   0.001480
    22  H   -0.000000  -0.000000  -0.000000
    23  H   -0.000000  -0.000000  -0.000000
    24  H    0.000000  -0.000000  -0.000000
    25  H   -0.000499  -0.000001   0.000006
    26  H    0.000000   0.000000  -0.000000
    27  H    0.000013  -0.000000  -0.002421
    28  H   -0.000000   0.000000  -0.000002
    29  H    0.000000  -0.000000   0.000098
    30  H   -0.000000  -0.000000  -0.001162
    31  H    0.331370   0.000001  -0.000038
    32  H    0.000001   0.349947   0.000156
    33  H   -0.000038   0.000156   0.269273
 Mulliken charges:
               1
     1  Zr   0.008751
     2  O   -0.548466
     3  O   -0.418199
     4  O   -0.682374
     5  O   -0.369954
     6  Si   2.231293
     7  Si   1.787814
     8  Si   2.016790
     9  Si   1.594910
    10  O   -0.841399
    11  O   -0.787865
    12  O   -0.791206
    13  O   -0.841981
    14  O   -0.880581
    15  O   -0.877615
    16  O   -0.735013
    17  O   -0.968508
    18  O   -1.082240
    19  O   -0.987743
    20  O   -0.804791
    21  O   -0.829505
    22  H    0.385271
    23  H    0.372272
    24  H    0.365880
    25  H    0.414830
    26  H    0.378753
    27  H    0.429347
    28  H    0.375956
    29  H    0.447596
    30  H    0.411426
    31  H    0.402014
    32  H    0.381385
    33  H    0.443156
 Sum of Mulliken charges =  -0.00000
 Mulliken charges with hydrogens summed into heavy atoms:
               1
     1  Zr   0.008751
     2  O   -0.548466
     3  O   -0.418199
     4  O   -0.682374
     5  O   -0.369954
     6  Si   2.231293
     7  Si   1.787814
     8  Si   2.016790
     9  Si   1.594910
    10  O   -0.469128
    11  O   -0.421985
    12  O   -0.405935
    13  O   -0.427151
    14  O   -0.451234
    15  O   -0.498862
    16  O   -0.353628
    17  O   -0.525353
    18  O   -0.680226
    19  O   -0.576317
    20  O   -0.428835
    21  O   -0.381910
 Electronic spatial extent (au):  <R**2>=           9881.2524
 Charge=             -0.0000 electrons
 Dipole moment (field-independent basis, Debye):
    X=              1.0575    Y=             -0.7980    Z=             -2.4102  Tot=              2.7503
 Quadrupole moment (field-independent basis, Debye-Ang):
   XX=           -160.1809   YY=           -154.8486   ZZ=           -157.8057
   XY=             -5.1283   XZ=              2.1637   YZ=              5.6931
 Traceless Quadrupole moment (field-independent basis, Debye-Ang):
   XX=             -2.5691   YY=              2.7631   ZZ=             -0.1939
   XY=             -5.1283   XZ=              2.1637   YZ=              5.6931
 Octapole moment (field-independent basis, Debye-Ang**2):
  XXX=             74.1624  YYY=              6.5790  ZZZ=            -18.4912  XYY=             -2.4384
  XXY=             20.8317  XXZ=             19.0760  XZZ=              5.2136  YZZ=            -17.1289
  YYZ=            -15.3592  XYZ=             28.5342
 Hexadecapole moment (field-independent basis, Debye-Ang**3):
 XXXX=          -6024.6513 YYYY=          -2841.2994 ZZZZ=          -2263.1310 XXXY=             57.6926
 XXXZ=            -16.6688 YYYX=              1.3587 YYYZ=            221.6275 ZZZX=           -183.0944
 ZZZY=            -57.4811 XXYY=          -1489.5931 XXZZ=          -1364.4905 YYZZ=           -926.0787
 XXYZ=            -11.2321 YYXZ=            124.0075 ZZXY=            -60.8079
 N-N= 2.831973918055D+03 E-N=-1.137653587946D+04  KE= 2.373154700469D+03
 1\1\GINC-GRA636\FOpt\RB3LYP\Gen\H12O16Si4Zr1\SARASHS\12-Aug-2020\0\\#n
  B3LYP/Gen Pseudo=cards EmpiricalDispersion=GD3 Opt=modredundant\\Titl
 e\\0,1\Zr,0.6575744547,-0.1257832038,-0.0714085724\O,-0.2230112475,-0.
 907326491,1.4773841891\O,0.1033959412,1.7472725179,-0.1227455045\O,-0.
 2682372231,-0.979946539,-1.596777686\O,2.591410527,-0.4358029763,-0.08
 27442244\Si,-1.8312354575,-1.3329768107,-1.9537037655\Si,-1.1147212201
 ,2.8418526862,-0.0826450174\Si,-1.7240625082,-1.1535432326,2.115224652
 4\Si,4.2205487304,-0.3073170327,0.0012167775\O,4.9531878759,-0.1676019
 611,-1.4716823859\O,4.8683838777,-1.6735774332,0.6805621686\O,4.499773
 0003,1.07447461,0.8577309852\O,-2.3200739268,-2.6242840323,1.695923109
 8\O,-2.7238190774,0.0650387289,1.5510788696\O,-1.5974758968,-1.0206498
 42,3.744431442\O,-2.0012308072,-1.5602791845,-3.5779192154\O,-2.824845
 3282,-0.187019511,-1.3017342048\O,-2.3449639671,-2.7147977808,-1.18292
 60871\O,-2.0393187445,2.4402297543,-1.4304810444\O,-0.6343782062,4.400
 5581453,-0.2991375614\O,-1.9653821487,2.7610888425,1.3136353355\H,5.39
 79229343,1.4230199649,0.8397659397\H,5.2746679462,-0.9889963457,-1.860
 3734252\H,4.4296472907,-2.0309606245,1.4606038577\H,-2.4067274101,-2.8
 09461324,0.7435110515\H,-2.3815032691,-1.2248958868,4.2655577132\H,-3.
 0599157716,-0.0826261225,0.6460194185\H,-0.5264029216,4.927271172,0.50
 09782406\H,-2.2693873035,1.8697023933,1.5849975871\H,-2.6472397203,3.1
 275137573,-1.7304944048\H,-2.3050087243,-3.5299589205,-1.6957407868\H,
 -1.2709292778,-1.2636980354,-4.1323263544\H,-2.6099624207,0.7543907177
 ,-1.4900910977\\Version=ES64L-G16RevB.01\State=1-A\HF=-2416.9468521\RM
 SD=5.330e-09\RMSF=2.459e-05\Dipole=0.4091404,-0.3182152,-0.9498473\Qua
 drupole=-2.0037976,2.1450795,-0.1412819,-3.748224,1.6658267,4.2240753\
 PG=C01 [X(H12O16Si4Zr1)]\\@


 WORK FAITHFULLY FOR EIGHT HOURS A DAY AND DON'T WORRY.
 IN TIME YOU MAY BECOME BOSS AND WORK TWELVE HOURS A DAY
 AND HAVE ALL THE WORRY.
 Job cpu time:       0 days  8 hours 14 minutes 47.7 seconds.
 Elapsed time:       0 days  0 hours 37 minutes 59.4 seconds.
 File lengths (MBytes):  RWF=    167 Int=      0 D2E=      0 Chk=     21 Scr=      1
 Normal termination of Gaussian 16 at Wed Aug 12 20:21:03 2020.
