 Entering Gaussian System, Link 0=g16
 Initial command:
 /opt/software/gaussian/g16.b01/l1.exe "/localscratch/sarashs.37192504.0/Gau-13726.inp" -scrdir="/localscratch/sarashs.37192504.0/"
 Entering Link 1 = /opt/software/gaussian/g16.b01/l1.exe PID=     13727.
  
 Copyright (c) 1988-2017, Gaussian, Inc.  All Rights Reserved.
  
 This is part of the Gaussian(R) 16 program.  It is based on
 the Gaussian(R) 09 system (copyright 2009, Gaussian, Inc.),
 the Gaussian(R) 03 system (copyright 2003, Gaussian, Inc.),
 the Gaussian(R) 98 system (copyright 1998, Gaussian, Inc.),
 the Gaussian(R) 94 system (copyright 1995, Gaussian, Inc.),
 the Gaussian 92(TM) system (copyright 1992, Gaussian, Inc.),
 the Gaussian 90(TM) system (copyright 1990, Gaussian, Inc.),
 the Gaussian 88(TM) system (copyright 1988, Gaussian, Inc.),
 the Gaussian 86(TM) system (copyright 1986, Carnegie Mellon
 University), and the Gaussian 82(TM) system (copyright 1983,
 Carnegie Mellon University). Gaussian is a federally registered
 trademark of Gaussian, Inc.
  
 This software contains proprietary and confidential information,
 including trade secrets, belonging to Gaussian, Inc.
  
 This software is provided under written license and may be
 used, copied, transmitted, or stored only in accord with that
 written license.
  
 The following legend is applicable only to US Government
 contracts under FAR:
  
                    RESTRICTED RIGHTS LEGEND
  
 Use, reproduction and disclosure by the US Government is
 subject to restrictions as set forth in subparagraphs (a)
 and (c) of the Commercial Computer Software - Restricted
 Rights clause in FAR 52.227-19.
  
 Gaussian, Inc.
 340 Quinnipiac St., Bldg. 40, Wallingford CT 06492
  
  
 ---------------------------------------------------------------
 Warning -- This program may not be used in any manner that
 competes with the business of Gaussian, Inc. or will provide
 assistance to any competitor of Gaussian, Inc.  The licensee
 of this program is prohibited from giving any competitor of
 Gaussian, Inc. access to this program.  By using this program,
 the user acknowledges that Gaussian, Inc. is engaged in the
 business of creating and licensing software in the field of
 computational chemistry and represents and warrants to the
 licensee that it is not a competitor of Gaussian, Inc. and that
 it will not use this program in any manner prohibited above.
 ---------------------------------------------------------------
  

 Cite this work as:
 Gaussian 16, Revision B.01,
 M. J. Frisch, G. W. Trucks, H. B. Schlegel, G. E. Scuseria, 
 M. A. Robb, J. R. Cheeseman, G. Scalmani, V. Barone, 
 G. A. Petersson, H. Nakatsuji, X. Li, M. Caricato, A. V. Marenich, 
 J. Bloino, B. G. Janesko, R. Gomperts, B. Mennucci, H. P. Hratchian, 
 J. V. Ortiz, A. F. Izmaylov, J. L. Sonnenberg, D. Williams-Young, 
 F. Ding, F. Lipparini, F. Egidi, J. Goings, B. Peng, A. Petrone, 
 T. Henderson, D. Ranasinghe, V. G. Zakrzewski, J. Gao, N. Rega, 
 G. Zheng, W. Liang, M. Hada, M. Ehara, K. Toyota, R. Fukuda, 
 J. Hasegawa, M. Ishida, T. Nakajima, Y. Honda, O. Kitao, H. Nakai, 
 T. Vreven, K. Throssell, J. A. Montgomery, Jr., J. E. Peralta, 
 F. Ogliaro, M. J. Bearpark, J. J. Heyd, E. N. Brothers, K. N. Kudin, 
 V. N. Staroverov, T. A. Keith, R. Kobayashi, J. Normand, 
 K. Raghavachari, A. P. Rendell, J. C. Burant, S. S. Iyengar, 
 J. Tomasi, M. Cossi, J. M. Millam, M. Klene, C. Adamo, R. Cammi, 
 J. W. Ochterski, R. L. Martin, K. Morokuma, O. Farkas, 
 J. B. Foresman, and D. J. Fox, Gaussian, Inc., Wallingford CT, 2016.
 
 ******************************************
 Gaussian 16:  ES64L-G16RevB.01 20-Dec-2017
                12-Aug-2020 
 ******************************************
 %NProcShared=16
 Will use up to   16 processors via shared memory.
 ------------------------------------------------------------------
 #n B3LYP/Gen Pseudo=cards EmpiricalDispersion=GD3 Opt=modredundant
 ------------------------------------------------------------------
 1/18=120,19=15,26=3,38=1/1,3;
 2/9=110,12=2,17=6,18=5,40=1/2;
 3/5=7,11=2,16=1,17=8,25=1,30=1,71=1,74=-5,124=31/1,2,3;
 4//1;
 5/5=2,38=5/2;
 6/7=2,8=2,9=2,10=2,28=1/1;
 7//1,2,3,16;
 1/18=20,19=15,26=3/3(2);
 2/9=110/2;
 99//99;
 2/9=110/2;
 3/5=7,6=1,11=2,16=1,17=8,25=1,30=1,71=1,74=-5,82=7,124=31/1,2,3;
 4/5=5,16=3,69=1/1;
 5/5=2,38=5/2;
 7//1,2,3,16;
 1/18=20,19=15,26=3/3(-5);
 2/9=110/2;
 6/7=2,8=2,9=2,10=2,19=2,28=1/1;
 99/9=1/99;
 -----
 Title
 -----
 Symbolic Z-matrix:
 Charge =  0 Multiplicity = 1
 Zr                    0.65779  -0.12506  -0.07164 
 O                    -0.22285  -0.90624   1.4773 
 O                     0.10302   1.74748  -0.12299 
 O                    -0.2683   -0.97885  -1.59705 
 O                     2.59206  -0.4363   -0.08284 
 Si                   -1.83119  -1.33244  -1.9536 
 Si                   -1.1155    2.84172  -0.08279 
 Si                   -1.72376  -1.15291   2.11517 
 Si                    4.18553  -0.08923   0.05274 
 O                     4.941     0.14664  -1.39612 
 O                     4.98924  -1.35362   0.76154 
 O                     4.24596   1.3198    0.90891 
 O                    -2.31924  -2.624     1.69627 
 O                    -2.72422   0.06508   1.55086 
 O                    -1.59734  -1.01957   3.74439 
 O                    -2.00144  -1.55965  -3.57782 
 O                    -2.82509  -0.18676  -1.30145 
 O                    -2.34448  -2.71439  -1.18277 
 O                    -2.04046   2.43957  -1.43023 
 O                    -0.63565   4.40049  -0.29987 
 O                    -1.96551   2.76086   1.31383 
 H                     5.08828   1.78765   0.91834 
 H                     5.38353  -0.62394  -1.76961 
 H                     4.57626  -1.767     1.52784 
 H                    -2.40577  -2.80951   0.74392 
 H                    -2.38137  -1.22423   4.26535 
 H                    -3.06034  -0.08306   0.64589 
 H                    -0.52731   4.92728   0.50015 
 H                    -2.26909   1.86932   1.58533 
 H                    -2.64854   3.12676  -1.73014 
 H                    -2.30452  -3.52952  -1.69562 
 H                    -1.27114  -1.26305  -4.13223 
 H                    -2.61026   0.75461  -1.48993 
 
 The following ModRedundant input section has been read:
 A       1       5       9 F                                                   
 D       1       5       9      12 F                                           
 D       3       1       5       9 F                                           
 

 GradGradGradGradGradGradGradGradGradGradGradGradGradGradGradGradGradGrad
 Berny optimization.
 Initialization pass.
                           ----------------------------
                           !    Initial Parameters    !
                           ! (Angstroms and Degrees)  !
 --------------------------                            --------------------------
 ! Name  Definition              Value          Derivative Info.                !
 --------------------------------------------------------------------------------
 ! R1    R(1,2)                  1.9455         estimate D2E/DX2                !
 ! R2    R(1,3)                  1.9537         estimate D2E/DX2                !
 ! R3    R(1,4)                  1.9783         estimate D2E/DX2                !
 ! R4    R(1,5)                  1.9592         estimate D2E/DX2                !
 ! R5    R(2,8)                  1.6494         estimate D2E/DX2                !
 ! R6    R(3,7)                  1.6382         estimate D2E/DX2                !
 ! R7    R(4,6)                  1.6416         estimate D2E/DX2                !
 ! R8    R(5,9)                  1.6365         estimate D2E/DX2                !
 ! R9    R(6,16)                 1.6488         estimate D2E/DX2                !
 ! R10   R(6,17)                 1.651          estimate D2E/DX2                !
 ! R11   R(6,18)                 1.6636         estimate D2E/DX2                !
 ! R12   R(7,19)                 1.6831         estimate D2E/DX2                !
 ! R13   R(7,20)                 1.6453         estimate D2E/DX2                !
 ! R14   R(7,21)                 1.6369         estimate D2E/DX2                !
 ! R15   R(8,13)                 1.6414         estimate D2E/DX2                !
 ! R16   R(8,14)                 1.6742         estimate D2E/DX2                !
 ! R17   R(8,15)                 1.6395         estimate D2E/DX2                !
 ! R18   R(9,10)                 1.6509         estimate D2E/DX2                !
 ! R19   R(9,11)                 1.6574         estimate D2E/DX2                !
 ! R20   R(9,12)                 1.6499         estimate D2E/DX2                !
 ! R21   R(10,23)                0.9639         estimate D2E/DX2                !
 ! R22   R(11,24)                0.9637         estimate D2E/DX2                !
 ! R23   R(12,22)                0.9636         estimate D2E/DX2                !
 ! R24   R(13,25)                0.9741         estimate D2E/DX2                !
 ! R25   R(14,27)                0.9767         estimate D2E/DX2                !
 ! R26   R(15,26)                0.9633         estimate D2E/DX2                !
 ! R27   R(16,32)                0.9637         estimate D2E/DX2                !
 ! R28   R(17,33)                0.9838         estimate D2E/DX2                !
 ! R29   R(18,31)                0.9639         estimate D2E/DX2                !
 ! R30   R(19,30)                0.9654         estimate D2E/DX2                !
 ! R31   R(20,28)                0.964          estimate D2E/DX2                !
 ! R32   R(21,29)                0.9802         estimate D2E/DX2                !
 ! A1    A(2,1,3)              106.0959         estimate D2E/DX2                !
 ! A2    A(2,1,4)              103.2214         estimate D2E/DX2                !
 ! A3    A(2,1,5)              112.8091         estimate D2E/DX2                !
 ! A4    A(3,1,4)              105.0977         estimate D2E/DX2                !
 ! A5    A(3,1,5)              115.6243         estimate D2E/DX2                !
 ! A6    A(4,1,5)              112.9055         estimate D2E/DX2                !
 ! A7    A(1,2,8)              141.2479         estimate D2E/DX2                !
 ! A8    A(1,3,7)              148.2962         estimate D2E/DX2                !
 ! A9    A(1,4,6)              134.9216         estimate D2E/DX2                !
 ! A10   A(1,5,9)              158.0001         Frozen                          !
 ! A11   A(4,6,16)             109.9952         estimate D2E/DX2                !
 ! A12   A(4,6,17)             109.7479         estimate D2E/DX2                !
 ! A13   A(4,6,18)             111.8422         estimate D2E/DX2                !
 ! A14   A(16,6,17)            114.9972         estimate D2E/DX2                !
 ! A15   A(16,6,18)            108.0658         estimate D2E/DX2                !
 ! A16   A(17,6,18)            101.9869         estimate D2E/DX2                !
 ! A17   A(3,7,19)             103.269          estimate D2E/DX2                !
 ! A18   A(3,7,20)             114.3706         estimate D2E/DX2                !
 ! A19   A(3,7,21)             111.9733         estimate D2E/DX2                !
 ! A20   A(19,7,20)            106.3205         estimate D2E/DX2                !
 ! A21   A(19,7,21)            112.6973         estimate D2E/DX2                !
 ! A22   A(20,7,21)            108.1076         estimate D2E/DX2                !
 ! A23   A(2,8,13)             111.4365         estimate D2E/DX2                !
 ! A24   A(2,8,14)             107.7362         estimate D2E/DX2                !
 ! A25   A(2,8,15)             107.5759         estimate D2E/DX2                !
 ! A26   A(13,8,14)            110.4391         estimate D2E/DX2                !
 ! A27   A(13,8,15)            110.7606         estimate D2E/DX2                !
 ! A28   A(14,8,15)            108.7751         estimate D2E/DX2                !
 ! A29   A(5,9,10)             113.7768         estimate D2E/DX2                !
 ! A30   A(5,9,11)             110.2317         estimate D2E/DX2                !
 ! A31   A(5,9,12)             105.0574         estimate D2E/DX2                !
 ! A32   A(10,9,11)            105.2126         estimate D2E/DX2                !
 ! A33   A(10,9,12)            108.4599         estimate D2E/DX2                !
 ! A34   A(11,9,12)            114.3196         estimate D2E/DX2                !
 ! A35   A(9,10,23)            115.8437         estimate D2E/DX2                !
 ! A36   A(9,11,24)            117.3548         estimate D2E/DX2                !
 ! A37   A(9,12,22)            116.8566         estimate D2E/DX2                !
 ! A38   A(8,13,25)            116.8991         estimate D2E/DX2                !
 ! A39   A(8,14,27)            114.056          estimate D2E/DX2                !
 ! A40   A(8,15,26)            117.2166         estimate D2E/DX2                !
 ! A41   A(6,16,32)            116.4907         estimate D2E/DX2                !
 ! A42   A(6,17,33)            117.1859         estimate D2E/DX2                !
 ! A43   A(6,18,31)            116.3076         estimate D2E/DX2                !
 ! A44   A(7,19,30)            115.1373         estimate D2E/DX2                !
 ! A45   A(7,20,28)            116.1676         estimate D2E/DX2                !
 ! A46   A(7,21,29)            116.2372         estimate D2E/DX2                !
 ! D1    D(3,1,2,8)             57.7292         estimate D2E/DX2                !
 ! D2    D(4,1,2,8)            -52.5301         estimate D2E/DX2                !
 ! D3    D(5,1,2,8)           -174.7067         estimate D2E/DX2                !
 ! D4    D(2,1,3,7)            -50.098          estimate D2E/DX2                !
 ! D5    D(4,1,3,7)             58.8315         estimate D2E/DX2                !
 ! D6    D(5,1,3,7)           -175.9641         estimate D2E/DX2                !
 ! D7    D(2,1,4,6)             42.7683         estimate D2E/DX2                !
 ! D8    D(3,1,4,6)            -68.2312         estimate D2E/DX2                !
 ! D9    D(5,1,4,6)            164.8802         estimate D2E/DX2                !
 ! D10   D(2,1,5,9)           -106.9251         estimate D2E/DX2                !
 ! D11   D(3,1,5,9)             15.4381         Frozen                          !
 ! D12   D(4,1,5,9)            136.5203         estimate D2E/DX2                !
 ! D13   D(1,2,8,13)            93.5308         estimate D2E/DX2                !
 ! D14   D(1,2,8,14)           -27.7655         estimate D2E/DX2                !
 ! D15   D(1,2,8,15)          -144.8802         estimate D2E/DX2                !
 ! D16   D(1,3,7,19)           -61.1012         estimate D2E/DX2                !
 ! D17   D(1,3,7,20)          -176.1751         estimate D2E/DX2                !
 ! D18   D(1,3,7,21)            60.409          estimate D2E/DX2                !
 ! D19   D(1,4,6,16)           160.167          estimate D2E/DX2                !
 ! D20   D(1,4,6,17)            32.6925         estimate D2E/DX2                !
 ! D21   D(1,4,6,18)           -79.742          estimate D2E/DX2                !
 ! D22   D(1,5,9,10)          -100.1288         estimate D2E/DX2                !
 ! D23   D(1,5,9,11)           141.9687         estimate D2E/DX2                !
 ! D24   D(1,5,9,12)            18.3501         Frozen                          !
 ! D25   D(4,6,16,32)          -14.1998         estimate D2E/DX2                !
 ! D26   D(17,6,16,32)         110.2979         estimate D2E/DX2                !
 ! D27   D(18,6,16,32)        -136.5531         estimate D2E/DX2                !
 ! D28   D(4,6,17,33)           51.0095         estimate D2E/DX2                !
 ! D29   D(16,6,17,33)         -73.6179         estimate D2E/DX2                !
 ! D30   D(18,6,17,33)         169.7166         estimate D2E/DX2                !
 ! D31   D(4,6,18,31)          -96.4424         estimate D2E/DX2                !
 ! D32   D(16,6,18,31)          24.7715         estimate D2E/DX2                !
 ! D33   D(17,6,18,31)         146.349          estimate D2E/DX2                !
 ! D34   D(3,7,19,30)         -162.1837         estimate D2E/DX2                !
 ! D35   D(20,7,19,30)         -41.4662         estimate D2E/DX2                !
 ! D36   D(21,7,19,30)          76.796          estimate D2E/DX2                !
 ! D37   D(3,7,20,28)          -98.427          estimate D2E/DX2                !
 ! D38   D(19,7,20,28)         148.2947         estimate D2E/DX2                !
 ! D39   D(21,7,20,28)          27.0455         estimate D2E/DX2                !
 ! D40   D(3,7,21,29)          -49.8995         estimate D2E/DX2                !
 ! D41   D(19,7,21,29)          66.0156         estimate D2E/DX2                !
 ! D42   D(20,7,21,29)        -176.7753         estimate D2E/DX2                !
 ! D43   D(2,8,13,25)          -58.468          estimate D2E/DX2                !
 ! D44   D(14,8,13,25)          61.2404         estimate D2E/DX2                !
 ! D45   D(15,8,13,25)        -178.1888         estimate D2E/DX2                !
 ! D46   D(2,8,14,27)           80.2918         estimate D2E/DX2                !
 ! D47   D(13,8,14,27)         -41.6247         estimate D2E/DX2                !
 ! D48   D(15,8,14,27)        -163.3756         estimate D2E/DX2                !
 ! D49   D(2,8,15,26)         -174.1994         estimate D2E/DX2                !
 ! D50   D(13,8,15,26)         -52.1897         estimate D2E/DX2                !
 ! D51   D(14,8,15,26)          69.3652         estimate D2E/DX2                !
 ! D52   D(5,9,10,23)          -94.8503         estimate D2E/DX2                !
 ! D53   D(11,9,10,23)          25.908          estimate D2E/DX2                !
 ! D54   D(12,9,10,23)         148.6399         estimate D2E/DX2                !
 ! D55   D(5,9,11,24)          -43.8205         estimate D2E/DX2                !
 ! D56   D(10,9,11,24)        -166.8801         estimate D2E/DX2                !
 ! D57   D(12,9,11,24)          74.2392         estimate D2E/DX2                !
 ! D58   D(5,9,12,22)         -166.4771         estimate D2E/DX2                !
 ! D59   D(10,9,12,22)         -44.4742         estimate D2E/DX2                !
 ! D60   D(11,9,12,22)          72.5546         estimate D2E/DX2                !
 --------------------------------------------------------------------------------
 Trust Radius=3.00D-01 FncErr=1.00D-07 GrdErr=1.00D-06 EigMax=2.50D+02 EigMin=1.00D-04
 Number of steps in this run=    148 maximum allowed number of steps=    198.
 GradGradGradGradGradGradGradGradGradGradGradGradGradGradGradGradGradGrad

                          Input orientation:                          
 ---------------------------------------------------------------------
 Center     Atomic      Atomic             Coordinates (Angstroms)
 Number     Number       Type             X           Y           Z
 ---------------------------------------------------------------------
      1         40           0        0.657790   -0.125060   -0.071640
      2          8           0       -0.222850   -0.906240    1.477300
      3          8           0        0.103020    1.747480   -0.122990
      4          8           0       -0.268300   -0.978850   -1.597050
      5          8           0        2.592060   -0.436300   -0.082840
      6         14           0       -1.831190   -1.332440   -1.953600
      7         14           0       -1.115500    2.841720   -0.082790
      8         14           0       -1.723760   -1.152910    2.115170
      9         14           0        4.185530   -0.089230    0.052740
     10          8           0        4.941000    0.146640   -1.396120
     11          8           0        4.989240   -1.353620    0.761540
     12          8           0        4.245960    1.319800    0.908910
     13          8           0       -2.319240   -2.624000    1.696270
     14          8           0       -2.724220    0.065080    1.550860
     15          8           0       -1.597340   -1.019570    3.744390
     16          8           0       -2.001440   -1.559650   -3.577820
     17          8           0       -2.825090   -0.186760   -1.301450
     18          8           0       -2.344480   -2.714390   -1.182770
     19          8           0       -2.040460    2.439570   -1.430230
     20          8           0       -0.635650    4.400490   -0.299870
     21          8           0       -1.965510    2.760860    1.313830
     22          1           0        5.088280    1.787650    0.918340
     23          1           0        5.383530   -0.623940   -1.769610
     24          1           0        4.576260   -1.767000    1.527840
     25          1           0       -2.405770   -2.809510    0.743920
     26          1           0       -2.381370   -1.224230    4.265350
     27          1           0       -3.060340   -0.083060    0.645890
     28          1           0       -0.527310    4.927280    0.500150
     29          1           0       -2.269090    1.869320    1.585330
     30          1           0       -2.648540    3.126760   -1.730140
     31          1           0       -2.304520   -3.529520   -1.695620
     32          1           0       -1.271140   -1.263050   -4.132230
     33          1           0       -2.610260    0.754610   -1.489930
 ---------------------------------------------------------------------
                    Distance matrix (angstroms):
                    1          2          3          4          5
     1  Zr   0.000000
     2  O    1.945504   0.000000
     3  O    1.953666   3.115983   0.000000
     4  O    1.978251   3.075543   3.121475   0.000000
     5  O    1.959183   3.252476   3.311469   3.281593   0.000000
     6  Si   3.345827   3.813067   4.071635   1.641578   4.885484
     7  Si   3.456366   4.156670   1.638221   4.196128   4.948880
     8  Si   3.392697   1.649380   4.093745   3.991145   4.896027
     9  Si   3.530114   4.704327   4.480097   4.832166   1.636455
    10  O    4.491543   6.002537   5.252580   5.333283   2.753551
    11  O    4.578756   5.279995   5.854431   5.774524   2.702022
    12  O    3.990497   5.024797   4.290883   5.651741   2.608226
    13  O    4.270002   2.719099   5.318542   4.214123   5.663226
    14  O    3.755882   2.684348   3.691278   4.126823   5.584191
    15  O    4.521929   2.653632   5.050190   5.504452   5.704294
    16  O    4.628483   5.398571   5.225104   2.695283   5.880225
    17  O    3.694143   3.874372   3.701875   2.692947   5.558129
    18  O    4.117386   3.853141   5.198238   2.737563   5.546978
    19  O    3.962783   4.790812   2.604299   3.854086   5.616612
    20  O    4.712290   5.611606   2.759598   5.545712   5.818913
    21  O    4.138812   4.063399   2.714813   5.033803   5.739683
    22  H    4.926232   5.981436   5.093015   6.532508   3.489904
    23  H    5.046246   6.484876   6.018204   5.665591   3.266911
    24  H    4.539682   4.875953   5.923402   5.818581   2.881337
    25  H    4.154132   2.987545   5.273682   3.660633   5.594101
    26  H    5.408711   3.540275   5.853271   6.236426   6.653014
    27  H    3.786965   3.069237   3.734823   3.691708   5.710118
    28  H    5.220876   5.922624   3.301022   6.272775   6.232041
    29  H    3.910208   3.450000   2.925766   4.716225   5.632890
    30  H    4.925117   5.695325   3.472237   4.747556   6.547739
    31  H    4.796138   4.613282   6.009671   3.265245   6.012118
    32  H    4.637260   5.717784   5.198616   2.741094   5.657331
    33  H    3.669539   4.154829   3.196280   2.915671   5.519266
                    6          7          8          9         10
     6  Si   0.000000
     7  Si   4.629876   0.000000
     8  Si   4.074145   4.599791   0.000000
     9  Si   6.463118   6.058858   6.348601   0.000000
    10  O    6.954209   6.757920   7.644411   1.650928   0.000000
    11  O    7.341028   7.455308   6.851056   1.657416   2.628422
    12  O    7.222194   5.660827   6.573197   1.649862   2.678161
    13  O    3.902290   5.872660   1.641396   7.172049   8.363636
    14  O    3.877087   3.600906   1.674176   7.071974   8.212609
    15  O    5.711363   5.457933   1.639549   6.923539   8.398499
    16  O    1.648848   5.689656   5.714252   7.322684   7.474538
    17  O    1.650975   3.685040   3.717481   7.140878   7.773820
    18  O    1.663560   5.795749   3.701340   7.145557   7.830021
    19  O    3.813892   1.683113   5.057279   6.881641   7.348434
    20  O    6.085279   1.645340   6.152776   6.597401   7.099016
    21  O    5.239203   1.636949   4.002272   6.895553   7.866248
    22  H    8.115545   6.371829   7.515530   2.255416   2.841009
    23  H    7.251759   7.556028   8.116951   2.245457   0.963909
    24  H    7.305113   7.498704   6.357068   2.267929   3.513488
    25  H    3.128657   5.855309   2.256056   7.163999   8.203269
    26  H    6.244177   6.086107   2.249625   7.884065   9.356742
    27  H    3.135141   3.587160   2.256060   7.270110   8.260993
    28  H    6.848729   2.243958   6.403787   6.897565   7.506848
    29  H    4.792395   2.249212   3.116406   6.917143   7.990123
    30  H    4.538993   2.268308   5.827281   7.760526   8.160503
    31  H    2.262246   6.678899   4.528540   7.550702   8.130278
    32  H    2.250533   5.768130   6.264743   6.976179   6.932835
    33  H    2.275460   2.927521   4.173878   7.019591   7.576276
                   11         12         13         14         15
    11  O    0.000000
    12  O    2.778733   0.000000
    13  O    7.476728   7.699048   0.000000
    14  O    7.882462   7.111247   2.723289   0.000000
    15  O    7.238233   6.903387   2.700024   2.694049   0.000000
    16  O    8.230559   8.212916   5.389792   5.428215   7.353213
    17  O    8.165858   7.560103   3.896453   2.865182   5.259415
    18  O    7.708144   8.005230   2.880569   3.916936   5.263795
    19  O    8.283045   6.800334   5.957555   3.872032   6.240088
    20  O    8.116388   5.897620   7.494165   5.155881   6.830662
    21  O    8.099538   6.389286   5.410000   2.810526   4.509415
    22  H    3.146740   0.963574   8.656742   8.025116   7.782323
    23  H    2.663572   3.499523   8.680163   8.788395   8.904677
    24  H    0.963665   3.165518   6.950593   7.526889   6.601900
    25  H    7.536982   7.830960   0.974101   3.002637   3.586121
    26  H    8.162066   7.852342   2.926327   3.024619   0.963321
    27  H    8.150057   7.444408   2.847614   0.976674   3.552200
    28  H    8.363633   5.997091   7.852614   5.437959   6.858213
    29  H    7.984318   6.573081   4.494969   1.861079   3.668579
    30  H    9.198802   7.600251   6.702236   4.488271   6.947485
    31  H    7.998194   8.556183   3.510712   4.861783   6.032716
    32  H    7.946669   7.907123   6.076357   6.014390   7.887131
    33  H    8.201594   7.285714   4.653125   3.120071   5.618881
                   16         17         18         19         20
    16  O    0.000000
    17  O    2.783000   0.000000
    18  O    2.680926   2.575652   0.000000
    19  O    4.539540   2.744055   5.168846   0.000000
    20  O    6.937839   5.180702   7.370287   2.663909   0.000000
    21  O    6.526587   4.033241   6.029510   2.763822   2.657243
    22  H    9.037920   8.452644   8.940299   7.533904   6.408927
    23  H    7.660480   8.233574   8.027235   8.038402   7.977190
    24  H    8.329279   8.079729   7.492770   8.380119   8.279038
    25  H    4.516976   3.352340   1.930010   5.693261   7.497128
    26  H    7.859527   5.680008   5.648358   6.780802   7.451594
    27  H    4.597968   1.964238   3.283344   3.422586   5.184188
    28  H    7.802766   5.888884   8.033022   3.493521   0.963990
    29  H    6.203837   3.587492   5.355227   3.077509   3.553720
    30  H    5.078888   3.345797   5.874615   0.965369   2.778450
    31  H    2.741336   3.405937   0.963872   5.980819   8.223035
    32  H    0.963680   3.403891   3.458000   4.647801   6.867788
    33  H    3.175806   0.983796   3.492699   1.779698   4.313672
                   21         22         23         24         25
    21  O    0.000000
    22  H    7.131585   0.000000
    23  H    8.658687   3.623260   0.000000
    24  H    7.958773   3.642690   3.582101   0.000000
    25  H    5.616729   8.793468   8.471584   7.102823   0.000000
    26  H    4.976480   8.721787   9.852653   7.496478   3.861888
    27  H    3.119724   8.365034   8.799212   7.869635   2.805637
    28  H    2.724678   6.447248   8.420563   8.480328   7.965297
    29  H    0.980162   7.387993   8.719780   7.751448   4.755849
    30  H    3.141045   8.286498   8.864731   9.314561   6.435776
    31  H    6.981447   9.474100   8.219123   7.800148   2.545589
    32  H    6.806877   8.675094   7.090491   8.153677   5.239825
    33  H    3.507394   8.132309   8.116606   8.192162   4.211277
                   26         27         28         29         30
    26  H    0.000000
    27  H    3.855355   0.000000
    28  H    7.446835   5.616136   0.000000
    29  H    4.094529   2.306602   3.682734   0.000000
    30  H    7.412718   4.014728   3.565906   3.566157   0.000000
    31  H    6.391669   4.234622   8.916129   6.317702   6.665254
    32  H    8.470742   5.236797   7.767394   6.595312   5.190154
    33  H    6.090275   2.337946   5.070530   3.288799   2.384588
                   31         32         33
    31  H    0.000000
    32  H    3.484513   0.000000
    33  H    4.299948   3.584124   0.000000
 Stoichiometry    H12O16Si4Zr
 Framework group  C1[X(H12O16Si4Zr)]
 Deg. of freedom    93
 Full point group                 C1      NOp   1
 Largest Abelian subgroup         C1      NOp   1
 Largest concise Abelian subgroup C1      NOp   1
                         Standard orientation:                         
 ---------------------------------------------------------------------
 Center     Atomic      Atomic             Coordinates (Angstroms)
 Number     Number       Type             X           Y           Z
 ---------------------------------------------------------------------
      1         40           0        0.654113   -0.195320   -0.087853
      2          8           0       -0.250217   -0.939355    1.465718
      3          8           0        0.195706    1.703469   -0.123616
      4          8           0       -0.329504   -0.991582   -1.608360
      5          8           0        2.569655   -0.605249   -0.120248
      6         14           0       -1.911906   -1.262489   -1.950984
      7         14           0       -0.964593    2.858489   -0.065279
      8         14           0       -1.755477   -1.112471    2.117392
      9         14           0        4.180093   -0.341130    0.001077
     10          8           0        4.932417   -0.135845   -1.454062
     11          8           0        4.924765   -1.649182    0.694974
     12          8           0        4.321162    1.057924    0.864090
     13          8           0       -2.429759   -2.548624    1.696694
     14          8           0       -2.697594    0.158486    1.569716
     15          8           0       -1.606397   -0.995306    3.745939
     16          8           0       -2.109525   -1.471181   -3.574590
     17          8           0       -2.839245   -0.071188   -1.282732
     18          8           0       -2.487859   -2.620784   -1.182385
     19          8           0       -1.922153    2.512168   -1.405431
     20          8           0       -0.407524    4.391849   -0.278884
     21          8           0       -1.803885    2.813160    1.339405
     22          1           0        5.186436    1.481910    0.867505
     23          1           0        5.331127   -0.925905   -1.836104
     24          1           0        4.498653   -2.045314    1.463192
     25          1           0       -2.535039   -2.723888    0.744291
     26          1           0       -2.394747   -1.162539    4.273694
     27          1           0       -3.049740    0.033062    0.667410
     28          1           0       -0.264443    4.907710    0.522797
     29          1           0       -2.150144    1.936786    1.609202
     30          1           0       -2.497075    3.231370   -1.695517
     31          1           0       -2.494824   -3.433882   -1.699950
     32          1           0       -1.370441   -1.209181   -4.134759
     33          1           0       -2.578242    0.859015   -1.468352
 ---------------------------------------------------------------------
 Rotational constants (GHZ):           0.2133663           0.1345640           0.1250062
 General basis read from cards:  (5D, 7F)
 ======================================================================================================
                                       Pseudopotential Parameters
 ======================================================================================================
  Center     Atomic      Valence      Angular      Power
  Number     Number     Electrons     Momentum     of R      Exponent        Coefficient   SO-Coeffient
 ======================================================================================================
    1         40           12
                                      G and up 
                                                     2        1.0000000        0.00000000    0.00000000
                                      S - G
                                                     2        8.6365280      150.24299400    0.00000000
                                                     2        3.7176390       18.78003600    0.00000000
                                      P - G
                                                     2        7.6267280       33.19279100    0.00000000
                                                     2        7.4532070       66.38903900    0.00000000
                                                     2        3.3583890        4.62072600    0.00000000
                                                     2        3.2297380        9.26027000    0.00000000
                                      D - G
                                                     2        5.9380860       13.99338300    0.00000000
                                                     2        5.8255440       20.99588200    0.00000000
                                                     2        2.2050190        2.28516600    0.00000000
                                                     2        2.2062920        3.44126000    0.00000000
                                      F - G
                                                     2        4.8002150       -5.23932000    0.00000000
                                                     2        4.7989920       -6.98742400    0.00000000
    2          8
                                   No pseudopotential on this center.
    3          8
                                   No pseudopotential on this center.
    4          8
                                   No pseudopotential on this center.
    5          8
                                   No pseudopotential on this center.
    6         14
                                   No pseudopotential on this center.
    7         14
                                   No pseudopotential on this center.
    8         14
                                   No pseudopotential on this center.
    9         14
                                   No pseudopotential on this center.
   10          8
                                   No pseudopotential on this center.
   11          8
                                   No pseudopotential on this center.
   12          8
                                   No pseudopotential on this center.
   13          8
                                   No pseudopotential on this center.
   14          8
                                   No pseudopotential on this center.
   15          8
                                   No pseudopotential on this center.
   16          8
                                   No pseudopotential on this center.
   17          8
                                   No pseudopotential on this center.
   18          8
                                   No pseudopotential on this center.
   19          8
                                   No pseudopotential on this center.
   20          8
                                   No pseudopotential on this center.
   21          8
                                   No pseudopotential on this center.
   22          1
                                   No pseudopotential on this center.
   23          1
                                   No pseudopotential on this center.
   24          1
                                   No pseudopotential on this center.
   25          1
                                   No pseudopotential on this center.
   26          1
                                   No pseudopotential on this center.
   27          1
                                   No pseudopotential on this center.
   28          1
                                   No pseudopotential on this center.
   29          1
                                   No pseudopotential on this center.
   30          1
                                   No pseudopotential on this center.
   31          1
                                   No pseudopotential on this center.
   32          1
                                   No pseudopotential on this center.
   33          1
                                   No pseudopotential on this center.
 ======================================================================================================
 There are   570 symmetry adapted cartesian basis functions of A   symmetry.
 There are   524 symmetry adapted basis functions of A   symmetry.
   524 basis functions,  1074 primitive gaussians,   570 cartesian basis functions
   104 alpha electrons      104 beta electrons
       nuclear repulsion energy      2837.0309883033 Hartrees.
 NAtoms=   33 NActive=   33 NUniq=   33 SFac= 1.00D+00 NAtFMM=   60 NAOKFM=F Big=F
 Integral buffers will be    131072 words long.
 Raffenetti 2 integral format.
 Two-electron integral symmetry is turned on.
 Nuclear repulsion after empirical dispersion term =     2836.9901150270 Hartrees.
 One-electron integrals computed using PRISM.
 PrsmSu:  requested number of processors reduced to:   4 ShMem   1 Linda.
   1 Symmetry operations used in ECPInt.
 ECPInt:  NShTT=   13203 NPrTT=   78401 LenC2=   11534 LenP2D=   44683.
 LDataN:  DoStor=T MaxTD1= 8 Len=  415
 Number of processors reduced to  13 by ecpmxn.
 NBasis=   524 RedAO= T EigKep=  3.11D-05  NBF=   524
 NBsUse=   524 1.00D-06 EigRej= -1.00D+00 NBFU=   524
 Defaulting to unpruned grid for atomic number  40.
 ExpMin= 1.01D-02 ExpMax= 1.61D+04 ExpMxC= 2.43D+03 IAcc=3 IRadAn=         5 AccDes= 0.00D+00
 Harris functional with IExCor=  402 and IRadAn=       5 diagonalized for initial guess.
 HarFok:  IExCor=  402 AccDes= 0.00D+00 IRadAn=         5 IDoV= 1 UseB2=F ITyADJ=14
 ICtDFT=  3500011 ScaDFX=  1.000000  1.000000  1.000000  1.000000
 Defaulting to unpruned grid for atomic number  40.
 FoFCou: FMM=F IPFlag=           0 FMFlag=      100000 FMFlg1=           0
         NFxFlg=           0 DoJE=T BraDBF=F KetDBF=T FulRan=T
         wScrn=  0.000000 ICntrl=       500 IOpCl=  0 I1Cent=   200000004 NGrid=           0
         NMat0=    1 NMatS0=      1 NMatT0=    0 NMatD0=    1 NMtDS0=    0 NMtDT0=    0
 Petite list used in FoFCou.
 Requested convergence on RMS density matrix=1.00D-08 within 128 cycles.
 Requested convergence on MAX density matrix=1.00D-06.
 Requested convergence on             energy=1.00D-06.
 No special actions if energy rises.
 Defaulting to unpruned grid for atomic number  40.
 Defaulting to unpruned grid for atomic number  40.
 Defaulting to unpruned grid for atomic number  40.
 Defaulting to unpruned grid for atomic number  40.
 Defaulting to unpruned grid for atomic number  40.
 Defaulting to unpruned grid for atomic number  40.
 Defaulting to unpruned grid for atomic number  40.
 Defaulting to unpruned grid for atomic number  40.
 Defaulting to unpruned grid for atomic number  40.
 Defaulting to unpruned grid for atomic number  40.
 Defaulting to unpruned grid for atomic number  40.
 Defaulting to unpruned grid for atomic number  40.
 Defaulting to unpruned grid for atomic number  40.
 Defaulting to unpruned grid for atomic number  40.
 Defaulting to unpruned grid for atomic number  40.
 Defaulting to unpruned grid for atomic number  40.
 SCF Done:  E(RB3LYP) =  -2416.94681677     A.U. after   14 cycles
            NFock= 14  Conv=0.25D-08     -V/T= 2.0185

 **********************************************************************

            Population analysis using the SCF Density.

 **********************************************************************

 Orbital symmetries:
       Occupied  (A) (A) (A) (A) (A) (A) (A) (A) (A) (A) (A) (A)
                 (A) (A) (A) (A) (A) (A) (A) (A) (A) (A) (A) (A)
                 (A) (A) (A) (A) (A) (A) (A) (A) (A) (A) (A) (A)
                 (A) (A) (A) (A) (A) (A) (A) (A) (A) (A) (A) (A)
                 (A) (A) (A) (A) (A) (A) (A) (A) (A) (A) (A) (A)
                 (A) (A) (A) (A) (A) (A) (A) (A) (A) (A) (A) (A)
                 (A) (A) (A) (A) (A) (A) (A) (A) (A) (A) (A) (A)
                 (A) (A) (A) (A) (A) (A) (A) (A) (A) (A) (A) (A)
                 (A) (A) (A) (A) (A) (A) (A) (A)
       Virtual   (A) (A) (A) (A) (A) (A) (A) (A) (A) (A) (A) (A)
                 (A) (A) (A) (A) (A) (A) (A) (A) (A) (A) (A) (A)
                 (A) (A) (A) (A) (A) (A) (A) (A) (A) (A) (A) (A)
                 (A) (A) (A) (A) (A) (A) (A) (A) (A) (A) (A) (A)
                 (A) (A) (A) (A) (A) (A) (A) (A) (A) (A) (A) (A)
                 (A) (A) (A) (A) (A) (A) (A) (A) (A) (A) (A) (A)
                 (A) (A) (A) (A) (A) (A) (A) (A) (A) (A) (A) (A)
                 (A) (A) (A) (A) (A) (A) (A) (A) (A) (A) (A) (A)
                 (A) (A) (A) (A) (A) (A) (A) (A) (A) (A) (A) (A)
                 (A) (A) (A) (A) (A) (A) (A) (A) (A) (A) (A) (A)
                 (A) (A) (A) (A) (A) (A) (A) (A) (A) (A) (A) (A)
                 (A) (A) (A) (A) (A) (A) (A) (A) (A) (A) (A) (A)
                 (A) (A) (A) (A) (A) (A) (A) (A) (A) (A) (A) (A)
                 (A) (A) (A) (A) (A) (A) (A) (A) (A) (A) (A) (A)
                 (A) (A) (A) (A) (A) (A) (A) (A) (A) (A) (A) (A)
                 (A) (A) (A) (A) (A) (A) (A) (A) (A) (A) (A) (A)
                 (A) (A) (A) (A) (A) (A) (A) (A) (A) (A) (A) (A)
                 (A) (A) (A) (A) (A) (A) (A) (A) (A) (A) (A) (A)
                 (A) (A) (A) (A) (A) (A) (A) (A) (A) (A) (A) (A)
                 (A) (A) (A) (A) (A) (A) (A) (A) (A) (A) (A) (A)
                 (A) (A) (A) (A) (A) (A) (A) (A) (A) (A) (A) (A)
                 (A) (A) (A) (A) (A) (A) (A) (A) (A) (A) (A) (A)
                 (A) (A) (A) (A) (A) (A) (A) (A) (A) (A) (A) (A)
                 (A) (A) (A) (A) (A) (A) (A) (A) (A) (A) (A) (A)
                 (A) (A) (A) (A) (A) (A) (A) (A) (A) (A) (A) (A)
                 (A) (A) (A) (A) (A) (A) (A) (A) (A) (A) (A) (A)
                 (A) (A) (A) (A) (A) (A) (A) (A) (A) (A) (A) (A)
                 (A) (A) (A) (A) (A) (A) (A) (A) (A) (A) (A) (A)
                 (A) (A) (A) (A) (A) (A) (A) (A) (A) (A) (A) (A)
                 (A) (A) (A) (A) (A) (A) (A) (A) (A) (A) (A) (A)
                 (A) (A) (A) (A) (A) (A) (A) (A) (A) (A) (A) (A)
                 (A) (A) (A) (A) (A) (A) (A) (A) (A) (A) (A) (A)
                 (A) (A) (A) (A) (A) (A) (A) (A) (A) (A) (A) (A)
                 (A) (A) (A) (A) (A) (A) (A) (A) (A) (A) (A) (A)
                 (A) (A) (A) (A) (A) (A) (A) (A) (A) (A) (A) (A)
 The electronic state is 1-A.
 Alpha  occ. eigenvalues --  -66.22770 -66.21725 -66.21502 -66.21000 -19.18556
 Alpha  occ. eigenvalues --  -19.18324 -19.17757 -19.16994 -19.16707 -19.16537
 Alpha  occ. eigenvalues --  -19.16455 -19.16313 -19.16150 -19.15969 -19.15966
 Alpha  occ. eigenvalues --  -19.15467 -19.15353 -19.15204 -19.14866 -19.14671
 Alpha  occ. eigenvalues --   -5.36830  -5.35805  -5.35584  -5.35060  -3.72814
 Alpha  occ. eigenvalues --   -3.72787  -3.72740  -3.71797  -3.71750  -3.71715
 Alpha  occ. eigenvalues --   -3.71552  -3.71543  -3.71506  -3.71025  -3.71016
 Alpha  occ. eigenvalues --   -3.70991  -2.13311  -1.29564  -1.29474  -1.29316
 Alpha  occ. eigenvalues --   -1.05648  -1.04747  -1.04184  -1.03463  -1.02533
 Alpha  occ. eigenvalues --   -1.02141  -1.01442  -1.00975  -1.00780  -1.00633
 Alpha  occ. eigenvalues --   -0.99800  -0.99272  -0.97356  -0.96245  -0.95707
 Alpha  occ. eigenvalues --   -0.95376  -0.60958  -0.59135  -0.58987  -0.58455
 Alpha  occ. eigenvalues --   -0.55510  -0.54503  -0.53899  -0.53032  -0.53011
 Alpha  occ. eigenvalues --   -0.52459  -0.52115  -0.51676  -0.48742  -0.47565
 Alpha  occ. eigenvalues --   -0.47165  -0.46668  -0.43344  -0.42618  -0.41829
 Alpha  occ. eigenvalues --   -0.41375  -0.41143  -0.40476  -0.39804  -0.39302
 Alpha  occ. eigenvalues --   -0.38808  -0.38665  -0.38631  -0.38125  -0.37982
 Alpha  occ. eigenvalues --   -0.37606  -0.37456  -0.37148  -0.36538  -0.36392
 Alpha  occ. eigenvalues --   -0.36101  -0.35626  -0.35451  -0.35078  -0.34917
 Alpha  occ. eigenvalues --   -0.34575  -0.33973  -0.33691  -0.33456  -0.33234
 Alpha  occ. eigenvalues --   -0.32805  -0.32207  -0.32024  -0.31266
 Alpha virt. eigenvalues --   -0.04298  -0.03114  -0.03007  -0.02760  -0.02064
 Alpha virt. eigenvalues --   -0.01141  -0.00513  -0.00088   0.00145   0.00259
 Alpha virt. eigenvalues --    0.00814   0.00932   0.01069   0.01986   0.02354
 Alpha virt. eigenvalues --    0.03177   0.03348   0.03859   0.03993   0.04076
 Alpha virt. eigenvalues --    0.04120   0.04790   0.05596   0.05874   0.06230
 Alpha virt. eigenvalues --    0.06526   0.07053   0.07442   0.07719   0.08672
 Alpha virt. eigenvalues --    0.08807   0.09099   0.09212   0.09755   0.09989
 Alpha virt. eigenvalues --    0.10388   0.10716   0.10797   0.11322   0.11716
 Alpha virt. eigenvalues --    0.11754   0.12599   0.13263   0.13369   0.13570
 Alpha virt. eigenvalues --    0.14090   0.14425   0.14949   0.15097   0.15292
 Alpha virt. eigenvalues --    0.15333   0.15763   0.16164   0.16699   0.17033
 Alpha virt. eigenvalues --    0.17404   0.17534   0.17712   0.18100   0.18333
 Alpha virt. eigenvalues --    0.18481   0.18846   0.19256   0.19649   0.19859
 Alpha virt. eigenvalues --    0.20085   0.20369   0.20741   0.20972   0.21216
 Alpha virt. eigenvalues --    0.21768   0.22006   0.22275   0.22529   0.22788
 Alpha virt. eigenvalues --    0.23421   0.23805   0.24081   0.24199   0.24660
 Alpha virt. eigenvalues --    0.24956   0.25181   0.25627   0.26002   0.26237
 Alpha virt. eigenvalues --    0.26528   0.26674   0.26890   0.27223   0.27436
 Alpha virt. eigenvalues --    0.28029   0.28256   0.28564   0.28898   0.29018
 Alpha virt. eigenvalues --    0.29569   0.29741   0.30069   0.30430   0.30804
 Alpha virt. eigenvalues --    0.30976   0.31395   0.31573   0.31725   0.32188
 Alpha virt. eigenvalues --    0.32246   0.33044   0.33048   0.33541   0.34028
 Alpha virt. eigenvalues --    0.34710   0.34726   0.35277   0.35849   0.36251
 Alpha virt. eigenvalues --    0.37131   0.37575   0.38252   0.38616   0.38734
 Alpha virt. eigenvalues --    0.39400   0.39973   0.40024   0.41136   0.41640
 Alpha virt. eigenvalues --    0.42695   0.43224   0.43937   0.44392   0.44854
 Alpha virt. eigenvalues --    0.45264   0.45423   0.46242   0.46579   0.47436
 Alpha virt. eigenvalues --    0.47986   0.48549   0.48946   0.49465   0.49597
 Alpha virt. eigenvalues --    0.50274   0.50983   0.51318   0.51434   0.53531
 Alpha virt. eigenvalues --    0.54017   0.54685   0.55208   0.56881   0.57361
 Alpha virt. eigenvalues --    0.58063   0.58542   0.58949   0.59335   0.60687
 Alpha virt. eigenvalues --    0.61108   0.61764   0.62083   0.64453   0.65933
 Alpha virt. eigenvalues --    0.66767   0.67763   0.68269   0.68876   0.69689
 Alpha virt. eigenvalues --    0.69908   0.70161   0.73086   0.74248   0.75059
 Alpha virt. eigenvalues --    0.75502   0.77444   0.78538   0.79220   0.80130
 Alpha virt. eigenvalues --    0.81193   0.81621   0.82576   0.84184   0.85362
 Alpha virt. eigenvalues --    0.86531   0.87663   0.89779   0.90965   0.91163
 Alpha virt. eigenvalues --    0.94593   0.95785   0.96156   0.96943   0.97545
 Alpha virt. eigenvalues --    0.98002   0.98691   0.99364   0.99725   1.00454
 Alpha virt. eigenvalues --    1.00675   1.01486   1.02000   1.03483   1.04013
 Alpha virt. eigenvalues --    1.04366   1.05560   1.06502   1.06667   1.07907
 Alpha virt. eigenvalues --    1.09734   1.12140   1.15231   1.16230   1.16550
 Alpha virt. eigenvalues --    1.18868   1.19156   1.19852   1.20570   1.21012
 Alpha virt. eigenvalues --    1.21245   1.21931   1.22560   1.22980   1.23099
 Alpha virt. eigenvalues --    1.23568   1.23990   1.24456   1.25299   1.25750
 Alpha virt. eigenvalues --    1.26090   1.27154   1.27638   1.28173   1.28824
 Alpha virt. eigenvalues --    1.29086   1.29843   1.30196   1.30982   1.31589
 Alpha virt. eigenvalues --    1.32550   1.32638   1.33197   1.33390   1.34414
 Alpha virt. eigenvalues --    1.35348   1.36130   1.36587   1.36955   1.37985
 Alpha virt. eigenvalues --    1.39078   1.39795   1.40316   1.41233   1.41521
 Alpha virt. eigenvalues --    1.42904   1.43910   1.44351   1.45295   1.46241
 Alpha virt. eigenvalues --    1.47225   1.48746   1.50819   1.51751   1.52346
 Alpha virt. eigenvalues --    1.56698   1.57298   1.57872   1.59142   1.59901
 Alpha virt. eigenvalues --    1.60011   1.61418   1.61957   1.62408   1.62954
 Alpha virt. eigenvalues --    1.63227   1.63879   1.65346   1.65494   1.66469
 Alpha virt. eigenvalues --    1.67071   1.67973   1.69291   1.69460   1.70252
 Alpha virt. eigenvalues --    1.71270   1.71562   1.71823   1.72591   1.73358
 Alpha virt. eigenvalues --    1.74099   1.74583   1.75635   1.76415   1.76991
 Alpha virt. eigenvalues --    1.77345   1.77983   1.78251   1.78626   1.79686
 Alpha virt. eigenvalues --    1.80522   1.80949   1.82214   1.82339   1.83291
 Alpha virt. eigenvalues --    1.83753   1.84329   1.85249   1.86097   1.86518
 Alpha virt. eigenvalues --    1.87196   1.88077   1.88379   1.89964   1.90311
 Alpha virt. eigenvalues --    1.91451   1.91528   1.92611   1.92961   1.93775
 Alpha virt. eigenvalues --    1.94390   1.95172   1.95620   1.97398   1.98264
 Alpha virt. eigenvalues --    1.99528   2.00559   2.01468   2.02619   2.03661
 Alpha virt. eigenvalues --    2.05906   2.06600   2.08296   2.09770   2.10590
 Alpha virt. eigenvalues --    2.11128   2.13065   2.14485   2.15953   2.16546
 Alpha virt. eigenvalues --    2.17795   2.18833   2.19693   2.21410   2.24922
 Alpha virt. eigenvalues --    2.32957   2.33389   2.35555   2.39500   2.40432
 Alpha virt. eigenvalues --    2.41123   2.41469   2.41748   2.42726   2.43826
 Alpha virt. eigenvalues --    2.44046   2.45402   2.46726   2.47670   2.49163
 Alpha virt. eigenvalues --    2.50173   2.50336   2.51718   2.52523   2.53485
 Alpha virt. eigenvalues --    2.55419   2.58451   2.59634   2.60144   2.60712
 Alpha virt. eigenvalues --    2.61194   2.61747   2.62068   2.62565   2.62843
 Alpha virt. eigenvalues --    2.63177   2.64077   2.64709   2.65032   2.65987
 Alpha virt. eigenvalues --    2.66474   2.66715   2.67443   2.67624   2.69411
 Alpha virt. eigenvalues --    2.70332   2.70718   2.71252   2.71668   2.72600
 Alpha virt. eigenvalues --    2.73730   2.74778   2.75591   2.76891   2.77606
 Alpha virt. eigenvalues --    2.78970   2.80536   2.81602   2.82524   2.83510
 Alpha virt. eigenvalues --    2.83831   2.84715   2.86734   2.87854   2.88151
 Alpha virt. eigenvalues --    3.15135   3.20761   3.35874   3.40861   3.46621
 Alpha virt. eigenvalues --    3.47823   3.48625   3.48908   3.51063   3.51110
 Alpha virt. eigenvalues --    3.52529   3.54355   3.60333   3.61113   3.62061
 Alpha virt. eigenvalues --    3.66217   4.36227   4.62509   7.80174  31.26464
          Condensed to atoms (all electrons):
               1          2          3          4          5          6
     1  Zr  15.327966  -0.149459   0.004644  -0.169393  -0.173807  -0.619700
     2  O   -0.149459   9.062547   0.017204  -0.042012  -0.053716   0.091926
     3  O    0.004644   0.017204   8.810614   0.013056  -0.045073  -0.007209
     4  O   -0.169393  -0.042012   0.013056   8.805469  -0.063621  -0.655970
     5  O   -0.173807  -0.053716  -0.045073  -0.063621   9.370849  -0.002719
     6  Si  -0.619700   0.091926  -0.007209  -0.655970  -0.002719  13.959175
     7  Si  -0.639078  -0.026033  -0.867609  -0.005195  -0.030680   0.090624
     8  Si  -0.612260  -0.979759  -0.025258   0.079541  -0.009163  -0.020150
     9  Si  -0.395573  -0.032120  -0.004179  -0.023831  -1.205131   0.046989
    10  O   -0.019501   0.000786  -0.002992   0.000506   0.124223  -0.002753
    11  O   -0.081116   0.003339   0.002969   0.001277   0.314995  -0.000589
    12  O    0.050300  -0.000295   0.005140   0.001968   0.159305  -0.003302
    13  O   -0.033058   0.189146   0.001530  -0.015075  -0.000875   0.032385
    14  O   -0.030300   0.259765  -0.018604  -0.009461   0.001175   0.032829
    15  O   -0.084984   0.289915  -0.000608   0.001178   0.000581   0.000718
    16  O   -0.119514   0.004679  -0.000477   0.343114   0.003037  -0.426942
    17  O   -0.106514  -0.039128   0.006930   0.216333   0.000771  -0.434507
    18  O   -0.037793  -0.014482   0.003602   0.201935  -0.000774  -0.447065
    19  O   -0.000598   0.009005   0.267748   0.011182   0.002048  -0.008565
    20  O   -0.142912  -0.000594   0.156004  -0.000828   0.001105   0.009102
    21  O    0.039750   0.010489   0.151218   0.003579   0.000408  -0.013888
    22  H   -0.010671  -0.000016   0.000011  -0.000009   0.005050   0.000118
    23  H   -0.006473  -0.000012  -0.000007  -0.000058  -0.025062   0.000087
    24  H   -0.005704  -0.000145  -0.000003   0.000003  -0.004577   0.000051
    25  H    0.016322  -0.020010  -0.000105  -0.000472   0.000024   0.003325
    26  H    0.008175   0.000686   0.000014  -0.000010  -0.000003  -0.000246
    27  H    0.009667  -0.019348   0.000927  -0.001659   0.000019   0.007142
    28  H    0.004774  -0.000010  -0.018092  -0.000014  -0.000014  -0.000297
    29  H    0.003978  -0.007049  -0.020183  -0.000131  -0.000066   0.000010
    30  H    0.000888  -0.000013   0.000102  -0.000462  -0.000007  -0.000833
    31  H    0.000585   0.000164  -0.000020  -0.018439  -0.000009   0.063568
    32  H    0.002042  -0.000026   0.000038   0.010591   0.000003   0.022737
    33  H   -0.017015   0.001039  -0.010171  -0.009818  -0.000088   0.054230
               7          8          9         10         11         12
     1  Zr  -0.639078  -0.612260  -0.395573  -0.019501  -0.081116   0.050300
     2  O   -0.026033  -0.979759  -0.032120   0.000786   0.003339  -0.000295
     3  O   -0.867609  -0.025258  -0.004179  -0.002992   0.002969   0.005140
     4  O   -0.005195   0.079541  -0.023831   0.000506   0.001277   0.001968
     5  O   -0.030680  -0.009163  -1.205131   0.124223   0.314995   0.159305
     6  Si   0.090624  -0.020150   0.046989  -0.002753  -0.000589  -0.003302
     7  Si  13.788472   0.186759   0.023932   0.000059  -0.000492   0.004283
     8  Si   0.186759  13.775921   0.030436  -0.001039   0.001477  -0.001035
     9  Si   0.023932   0.030436  14.225288  -0.043109  -0.178051  -0.245587
    10  O    0.000059  -0.001039  -0.043109   8.526993   0.002563   0.037268
    11  O   -0.000492   0.001477  -0.178051   0.002563   8.542526  -0.052532
    12  O    0.004283  -0.001035  -0.245587   0.037268  -0.052532   8.617283
    13  O    0.006935  -0.096752   0.000005   0.000000   0.000016   0.000012
    14  O    0.013516  -0.355689  -0.001227  -0.000002   0.000003   0.000032
    15  O   -0.002172  -0.301443  -0.000362   0.000001  -0.000026  -0.000028
    16  O    0.003590  -0.010609  -0.001244   0.000008  -0.000003   0.000000
    17  O    0.003628   0.102749   0.003251  -0.000000   0.000002  -0.000006
    18  O   -0.000879   0.076803   0.004239  -0.000000  -0.000001  -0.000001
    19  O   -0.411849  -0.017004   0.001030   0.000008  -0.000000  -0.000021
    20  O   -0.099301   0.009824   0.003502   0.000004  -0.000002  -0.000034
    21  O    0.017215  -0.042757  -0.002402   0.000001   0.000002   0.000034
    22  H   -0.000240   0.000122   0.049716  -0.005842  -0.005076   0.219388
    23  H    0.000053   0.000056   0.078222   0.229334  -0.005656   0.005769
    24  H    0.000058  -0.000078   0.038627   0.007623   0.240027  -0.007245
    25  H   -0.000420   0.057471  -0.000187   0.000000  -0.000000  -0.000000
    26  H   -0.000406   0.045314  -0.000060  -0.000000   0.000000  -0.000000
    27  H    0.000540   0.066412  -0.000057   0.000000  -0.000000  -0.000000
    28  H    0.056285  -0.000059  -0.000144  -0.000000  -0.000000  -0.000007
    29  H    0.048268   0.021970  -0.000077   0.000000  -0.000000  -0.000002
    30  H    0.040523   0.000139   0.000020  -0.000000  -0.000000  -0.000000
    31  H    0.000152  -0.002200  -0.000052   0.000000  -0.000000  -0.000000
    32  H   -0.000692   0.000065  -0.000020  -0.000000   0.000000  -0.000000
    33  H    0.020751   0.000207   0.000097  -0.000000   0.000000   0.000000
              13         14         15         16         17         18
     1  Zr  -0.033058  -0.030300  -0.084984  -0.119514  -0.106514  -0.037793
     2  O    0.189146   0.259765   0.289915   0.004679  -0.039128  -0.014482
     3  O    0.001530  -0.018604  -0.000608  -0.000477   0.006930   0.003602
     4  O   -0.015075  -0.009461   0.001178   0.343114   0.216333   0.201935
     5  O   -0.000875   0.001175   0.000581   0.003037   0.000771  -0.000774
     6  Si   0.032385   0.032829   0.000718  -0.426942  -0.434507  -0.447065
     7  Si   0.006935   0.013516  -0.002172   0.003590   0.003628  -0.000879
     8  Si  -0.096752  -0.355689  -0.301443  -0.010609   0.102749   0.076803
     9  Si   0.000005  -0.001227  -0.000362  -0.001244   0.003251   0.004239
    10  O    0.000000  -0.000002   0.000001   0.000008  -0.000000  -0.000000
    11  O    0.000016   0.000003  -0.000026  -0.000003   0.000002  -0.000001
    12  O    0.000012   0.000032  -0.000028   0.000000  -0.000006  -0.000001
    13  O    8.628525   0.086947  -0.091610   0.003742  -0.030995  -0.045580
    14  O    0.086947   8.673043   0.055448   0.003569  -0.035670  -0.027104
    15  O   -0.091610   0.055448   8.776081  -0.000173   0.003645   0.001675
    16  O    0.003742   0.003569  -0.000173   8.901753  -0.091985  -0.114493
    17  O   -0.030995  -0.035670   0.003645  -0.091985   8.933794   0.227524
    18  O   -0.045580  -0.027104   0.001675  -0.114493   0.227524   9.013230
    19  O    0.000201  -0.000347   0.000140  -0.001487  -0.029574   0.000183
    20  O    0.000008  -0.000393   0.000035   0.000058  -0.001085   0.000018
    21  O   -0.000242   0.016592  -0.000562  -0.000204  -0.005722   0.000468
    22  H   -0.000000   0.000000   0.000000   0.000000   0.000000  -0.000000
    23  H    0.000000   0.000000  -0.000000  -0.000000   0.000000  -0.000000
    24  H   -0.000000   0.000000   0.000001   0.000000  -0.000000  -0.000000
    25  H    0.218421  -0.011844   0.008937  -0.000060   0.000612   0.014780
    26  H   -0.005209  -0.010117   0.217112   0.000000  -0.000004   0.000005
    27  H   -0.009747   0.218873   0.004593   0.000198   0.017586  -0.000273
    28  H    0.000000  -0.000006  -0.000001  -0.000000   0.000004  -0.000000
    29  H    0.000787   0.017640  -0.002567  -0.000004  -0.000384   0.000007
    30  H    0.000001   0.000004   0.000000   0.000118  -0.000360  -0.000008
    31  H    0.002331   0.000169  -0.000018   0.003760  -0.000730   0.217894
    32  H   -0.000008  -0.000006   0.000000   0.233489  -0.003628   0.003871
    33  H    0.000240   0.002144  -0.000037  -0.000169   0.231034   0.002091
              19         20         21         22         23         24
     1  Zr  -0.000598  -0.142912   0.039750  -0.010671  -0.006473  -0.005704
     2  O    0.009005  -0.000594   0.010489  -0.000016  -0.000012  -0.000145
     3  O    0.267748   0.156004   0.151218   0.000011  -0.000007  -0.000003
     4  O    0.011182  -0.000828   0.003579  -0.000009  -0.000058   0.000003
     5  O    0.002048   0.001105   0.000408   0.005050  -0.025062  -0.004577
     6  Si  -0.008565   0.009102  -0.013888   0.000118   0.000087   0.000051
     7  Si  -0.411849  -0.099301   0.017215  -0.000240   0.000053   0.000058
     8  Si  -0.017004   0.009824  -0.042757   0.000122   0.000056  -0.000078
     9  Si   0.001030   0.003502  -0.002402   0.049716   0.078222   0.038627
    10  O    0.000008   0.000004   0.000001  -0.005842   0.229334   0.007623
    11  O   -0.000000  -0.000002   0.000002  -0.005076  -0.005656   0.240027
    12  O   -0.000021  -0.000034   0.000034   0.219388   0.005769  -0.007245
    13  O    0.000201   0.000008  -0.000242  -0.000000   0.000000  -0.000000
    14  O   -0.000347  -0.000393   0.016592   0.000000   0.000000   0.000000
    15  O    0.000140   0.000035  -0.000562   0.000000  -0.000000   0.000001
    16  O   -0.001487   0.000058  -0.000204   0.000000  -0.000000   0.000000
    17  O   -0.029574  -0.001085  -0.005722   0.000000   0.000000  -0.000000
    18  O    0.000183   0.000018   0.000468  -0.000000  -0.000000  -0.000000
    19  O    8.875256   0.031539   0.025005  -0.000000   0.000000  -0.000000
    20  O    0.031539   8.653066  -0.050512   0.000001   0.000000  -0.000000
    21  O    0.025005  -0.050512   8.488407  -0.000000   0.000000   0.000000
    22  H   -0.000000   0.000001  -0.000000   0.358478   0.000051   0.000122
    23  H    0.000000   0.000000   0.000000   0.000051   0.350947   0.000015
    24  H   -0.000000  -0.000000   0.000000   0.000122   0.000015   0.365436
    25  H   -0.000024   0.000000  -0.000018   0.000000   0.000000   0.000000
    26  H    0.000000  -0.000000   0.000037  -0.000000  -0.000000  -0.000000
    27  H   -0.000013   0.000195  -0.004064  -0.000000  -0.000000   0.000000
    28  H    0.004615   0.229648  -0.001976  -0.000000   0.000000  -0.000000
    29  H   -0.008552   0.007688   0.206610   0.000000  -0.000000  -0.000000
    30  H    0.224017  -0.001497  -0.007202   0.000000  -0.000000   0.000000
    31  H    0.000004  -0.000000  -0.000000  -0.000000  -0.000000   0.000000
    32  H    0.000091   0.000000   0.000001  -0.000000  -0.000000  -0.000000
    33  H    0.014681  -0.000053   0.001433  -0.000000  -0.000000  -0.000000
              25         26         27         28         29         30
     1  Zr   0.016322   0.008175   0.009667   0.004774   0.003978   0.000888
     2  O   -0.020010   0.000686  -0.019348  -0.000010  -0.007049  -0.000013
     3  O   -0.000105   0.000014   0.000927  -0.018092  -0.020183   0.000102
     4  O   -0.000472  -0.000010  -0.001659  -0.000014  -0.000131  -0.000462
     5  O    0.000024  -0.000003   0.000019  -0.000014  -0.000066  -0.000007
     6  Si   0.003325  -0.000246   0.007142  -0.000297   0.000010  -0.000833
     7  Si  -0.000420  -0.000406   0.000540   0.056285   0.048268   0.040523
     8  Si   0.057471   0.045314   0.066412  -0.000059   0.021970   0.000139
     9  Si  -0.000187  -0.000060  -0.000057  -0.000144  -0.000077   0.000020
    10  O    0.000000  -0.000000   0.000000  -0.000000   0.000000  -0.000000
    11  O   -0.000000   0.000000  -0.000000  -0.000000  -0.000000  -0.000000
    12  O   -0.000000  -0.000000  -0.000000  -0.000007  -0.000002  -0.000000
    13  O    0.218421  -0.005209  -0.009747   0.000000   0.000787   0.000001
    14  O   -0.011844  -0.010117   0.218873  -0.000006   0.017640   0.000004
    15  O    0.008937   0.217112   0.004593  -0.000001  -0.002567   0.000000
    16  O   -0.000060   0.000000   0.000198  -0.000000  -0.000004   0.000118
    17  O    0.000612  -0.000004   0.017586   0.000004  -0.000384  -0.000360
    18  O    0.014780   0.000005  -0.000273  -0.000000   0.000007  -0.000008
    19  O   -0.000024   0.000000  -0.000013   0.004615  -0.008552   0.224017
    20  O    0.000000  -0.000000   0.000195   0.229648   0.007688  -0.001497
    21  O   -0.000018   0.000037  -0.004064  -0.001976   0.206610  -0.007202
    22  H    0.000000  -0.000000  -0.000000  -0.000000   0.000000   0.000000
    23  H    0.000000  -0.000000  -0.000000   0.000000  -0.000000  -0.000000
    24  H    0.000000  -0.000000   0.000000  -0.000000  -0.000000   0.000000
    25  H    0.298996  -0.000011   0.000103   0.000000   0.000001   0.000000
    26  H   -0.000011   0.366244   0.000038   0.000000   0.000021  -0.000000
    27  H    0.000103   0.000038   0.283553  -0.000000  -0.001489   0.000009
    28  H    0.000000   0.000000  -0.000000   0.349398  -0.000017  -0.000015
    29  H    0.000001   0.000021  -0.001489  -0.000017   0.285825   0.000155
    30  H    0.000000  -0.000000   0.000009  -0.000015   0.000155   0.334390
    31  H   -0.000475   0.000000   0.000012  -0.000000   0.000000  -0.000000
    32  H   -0.000001   0.000000  -0.000000   0.000000  -0.000000  -0.000000
    33  H    0.000005  -0.000000  -0.002392  -0.000002   0.000105  -0.001151
              31         32         33
     1  Zr   0.000585   0.002042  -0.017015
     2  O    0.000164  -0.000026   0.001039
     3  O   -0.000020   0.000038  -0.010171
     4  O   -0.018439   0.010591  -0.009818
     5  O   -0.000009   0.000003  -0.000088
     6  Si   0.063568   0.022737   0.054230
     7  Si   0.000152  -0.000692   0.020751
     8  Si  -0.002200   0.000065   0.000207
     9  Si  -0.000052  -0.000020   0.000097
    10  O    0.000000  -0.000000  -0.000000
    11  O   -0.000000   0.000000   0.000000
    12  O   -0.000000  -0.000000   0.000000
    13  O    0.002331  -0.000008   0.000240
    14  O    0.000169  -0.000006   0.002144
    15  O   -0.000018   0.000000  -0.000037
    16  O    0.003760   0.233489  -0.000169
    17  O   -0.000730  -0.003628   0.231034
    18  O    0.217894   0.003871   0.002091
    19  O    0.000004   0.000091   0.014681
    20  O   -0.000000   0.000000  -0.000053
    21  O   -0.000000   0.000001   0.001433
    22  H   -0.000000  -0.000000  -0.000000
    23  H   -0.000000  -0.000000  -0.000000
    24  H    0.000000  -0.000000  -0.000000
    25  H   -0.000475  -0.000001   0.000005
    26  H    0.000000   0.000000  -0.000000
    27  H    0.000012  -0.000000  -0.002392
    28  H   -0.000000   0.000000  -0.000002
    29  H    0.000000  -0.000000   0.000105
    30  H   -0.000000  -0.000000  -0.001151
    31  H    0.331416   0.000000  -0.000038
    32  H    0.000000   0.350016   0.000158
    33  H   -0.000038   0.000158   0.269239
 Mulliken charges:
               1
     1  Zr  -0.013667
     2  O   -0.556460
     3  O   -0.421160
     4  O   -0.673271
     5  O   -0.368207
     6  Si   2.229720
     7  Si   1.779404
     8  Si   2.019990
     9  Si   1.628058
    10  O   -0.854136
    11  O   -0.785654
    12  O   -0.790690
    13  O   -0.842079
    14  O   -0.880979
    15  O   -0.875469
    16  O   -0.733753
    17  O   -0.967567
    18  O   -1.079870
    19  O   -0.988718
    20  O   -0.804587
    21  O   -0.831700
    22  H    0.388796
    23  H    0.372734
    24  H    0.365788
    25  H    0.414630
    26  H    0.378422
    27  H    0.429175
    28  H    0.375930
    29  H    0.447455
    30  H    0.411182
    31  H    0.401926
    32  H    0.381278
    33  H    0.443479
 Sum of Mulliken charges =  -0.00000
 Mulliken charges with hydrogens summed into heavy atoms:
               1
     1  Zr  -0.013667
     2  O   -0.556460
     3  O   -0.421160
     4  O   -0.673271
     5  O   -0.368207
     6  Si   2.229720
     7  Si   1.779404
     8  Si   2.019990
     9  Si   1.628058
    10  O   -0.481403
    11  O   -0.419866
    12  O   -0.401894
    13  O   -0.427449
    14  O   -0.451804
    15  O   -0.497046
    16  O   -0.352475
    17  O   -0.524088
    18  O   -0.677945
    19  O   -0.577535
    20  O   -0.428658
    21  O   -0.384245
 Electronic spatial extent (au):  <R**2>=           9809.3268
 Charge=             -0.0000 electrons
 Dipole moment (field-independent basis, Debye):
    X=              1.1585    Y=             -0.6938    Z=             -2.3874  Tot=              2.7429
 Quadrupole moment (field-independent basis, Debye-Ang):
   XX=           -160.2044   YY=           -154.1127   ZZ=           -157.7317
   XY=             -4.0901   XZ=              2.5694   YZ=              5.8397
 Traceless Quadrupole moment (field-independent basis, Debye-Ang):
   XX=             -2.8548   YY=              3.2369   ZZ=             -0.3821
   XY=             -4.0901   XZ=              2.5694   YZ=              5.8397
 Octapole moment (field-independent basis, Debye-Ang**2):
  XXX=             75.1318  YYY=              7.2931  ZZZ=            -18.7480  XYY=             -1.2319
  XXY=             17.6546  XXZ=             19.5672  XZZ=              5.5503  YZZ=            -17.6057
  YYZ=            -17.0769  XYZ=             26.2233
 Hexadecapole moment (field-independent basis, Debye-Ang**3):
 XXXX=          -6034.3187 YYYY=          -2814.8757 ZZZZ=          -2254.8124 XXXY=             55.8948
 XXXZ=            -49.7702 YYYX=             14.6385 YYYZ=            201.1227 ZZZX=           -185.0661
 ZZZY=            -46.2356 XXYY=          -1456.2495 XXZZ=          -1353.3523 YYZZ=           -918.4096
 XXYZ=              8.0581 YYXZ=            150.9886 ZZXY=            -57.8886
 N-N= 2.836990115027D+03 E-N=-1.138662710579D+04  KE= 2.373159207371D+03
 PrsmSu:  requested number of processors reduced to:   2 ShMem   1 Linda.
 PrsmSu:  requested number of processors reduced to:  10 ShMem   1 Linda.
   1 Symmetry operations used in ECPInt.
 ECPInt:  NShTT=   13203 NPrTT=   78401 LenC2=   11534 LenP2D=   44683.
 LDataN:  DoStor=T MaxTD1= 9 Len=  602
 Number of processors reduced to  14 by ecpmxn.
 Calling FoFJK, ICntrl=      2127 FMM=F ISym2X=0 I1Cent= 0 IOpClX= 0 NMat=1 NMatS=1 NMatT=0.
 CoulSu:  requested number of processors reduced to:  10 ShMem   1 Linda.
 Defaulting to unpruned grid for atomic number  40.
 Defaulting to unpruned grid for atomic number  40.
 Defaulting to unpruned grid for atomic number  40.
 Defaulting to unpruned grid for atomic number  40.
 Defaulting to unpruned grid for atomic number  40.
 Defaulting to unpruned grid for atomic number  40.
 Defaulting to unpruned grid for atomic number  40.
 Defaulting to unpruned grid for atomic number  40.
 Defaulting to unpruned grid for atomic number  40.
 Defaulting to unpruned grid for atomic number  40.
 Defaulting to unpruned grid for atomic number  40.
 Defaulting to unpruned grid for atomic number  40.
 Defaulting to unpruned grid for atomic number  40.
 Defaulting to unpruned grid for atomic number  40.
 Defaulting to unpruned grid for atomic number  40.
 Defaulting to unpruned grid for atomic number  40.
 ***** Axes restored to original set *****
 -------------------------------------------------------------------
 Center     Atomic                   Forces (Hartrees/Bohr)
 Number     Number              X              Y              Z
 -------------------------------------------------------------------
      1       40          -0.001158123    0.000308931    0.000024967
      2        8          -0.000039208   -0.000030688    0.000107973
      3        8          -0.000083223   -0.000220599   -0.000027709
      4        8          -0.000025968   -0.000035845   -0.000103051
      5        8           0.000676184    0.000482100    0.000137239
      6       14           0.000069007    0.000013815    0.000058151
      7       14           0.000092422   -0.000084877    0.000034025
      8       14           0.000108733    0.000000723   -0.000074049
      9       14           0.000709047   -0.001156169   -0.000320961
     10        8           0.000001600    0.000165928    0.000086479
     11        8          -0.000022414    0.000224481    0.000022670
     12        8          -0.000091810    0.000234981    0.000111505
     13        8          -0.000036981   -0.000005191    0.000013730
     14        8          -0.000048915    0.000037332    0.000002670
     15        8          -0.000022076    0.000004808    0.000030606
     16        8          -0.000014804    0.000002260   -0.000027321
     17        8          -0.000022972    0.000008083   -0.000016487
     18        8          -0.000032531    0.000000945   -0.000006422
     19        8          -0.000013852    0.000022283   -0.000015710
     20        8          -0.000014377    0.000042294   -0.000010832
     21        8          -0.000024186    0.000015576   -0.000005770
     22        1          -0.000017813    0.000097240    0.000041853
     23        1          -0.000037417   -0.000018915   -0.000015058
     24        1          -0.000038317   -0.000044541   -0.000047485
     25        1           0.000011348   -0.000011552    0.000004655
     26        1           0.000004607    0.000001701   -0.000006643
     27        1           0.000019940   -0.000010697   -0.000003550
     28        1           0.000010195   -0.000026618   -0.000000152
     29        1           0.000041432   -0.000006508   -0.000009110
     30        1           0.000001931   -0.000002036    0.000004624
     31        1           0.000014049    0.000000008    0.000000696
     32        1          -0.000000835   -0.000004621    0.000011431
     33        1          -0.000014674   -0.000004632   -0.000002965
 -------------------------------------------------------------------
 Cartesian Forces:  Max     0.001158123 RMS     0.000211140

 GradGradGradGradGradGradGradGradGradGradGradGradGradGradGradGradGradGrad
 Berny optimization.
 FormGI is forming the generalized inverse of G from B-inverse, IUseBI=4.
 Internal  Forces:  Max     0.001164792 RMS     0.000152351
 Search for a local minimum.
 Step number   1 out of a maximum of  148
 All quantities printed in internal units (Hartrees-Bohrs-Radians)
 Mixed Optimization -- En-DIIS/RFO-DIIS
 Second derivative matrix not updated -- first step.
 ITU=  0
     Eigenvalues ---    0.00230   0.00230   0.00230   0.03240   0.03358
     Eigenvalues ---    0.03498   0.03580   0.03665   0.03665   0.03680
     Eigenvalues ---    0.03686   0.03693   0.03739   0.03789   0.03792
     Eigenvalues ---    0.03816   0.03834   0.03850   0.05521   0.09402
     Eigenvalues ---    0.09687   0.11077   0.11224   0.11833   0.11884
     Eigenvalues ---    0.11890   0.12177   0.12239   0.12299   0.12782
     Eigenvalues ---    0.12895   0.13099   0.13313   0.16000   0.16000
     Eigenvalues ---    0.16000   0.16000   0.16000   0.16000   0.16000
     Eigenvalues ---    0.16000   0.16000   0.16000   0.16000   0.16000
     Eigenvalues ---    0.19173   0.19314   0.19332   0.20013   0.20203
     Eigenvalues ---    0.20204   0.20208   0.20515   0.20653   0.20795
     Eigenvalues ---    0.20989   0.21175   0.21186   0.21227   0.25000
     Eigenvalues ---    0.25000   0.25000   0.38002   0.39187   0.40659
     Eigenvalues ---    0.41545   0.42502   0.42509   0.42670   0.42743
     Eigenvalues ---    0.42824   0.43363   0.43951   0.43980   0.44273
     Eigenvalues ---    0.44485   0.44689   0.44769   0.50655   0.51353
     Eigenvalues ---    0.52036   0.52548   0.54334   0.54624   0.54641
     Eigenvalues ---    0.54649   0.54689   0.54692   0.54712   0.54765
     Eigenvalues --- 1000.000001000.000001000.000001000.000001000.00000
     Eigenvalues --- 1000.000001000.000001000.000001000.000001000.00000
     Eigenvalues --- 1000.000001000.000001000.000001000.000001000.00000
     Eigenvalues --- 1000.000001000.000001000.000001000.000001000.00000
     Eigenvalues --- 1000.000001000.000001000.000001000.000001000.00000
     Eigenvalues --- 1000.000001000.000001000.000001000.000001000.00000
     Eigenvalues --- 1000.000001000.000001000.000001000.000001000.00000
     Eigenvalues --- 1000.000001000.000001000.000001000.000001000.00000
     Eigenvalues --- 1000.000001000.000001000.000001000.000001000.00000
     Eigenvalues --- 1000.000001000.000001000.00000
 RFO step:  Lambda=-1.21229353D-05 EMin= 2.30000000D-03
 Linear search not attempted -- first point.
 Iteration  1 RMS(Cart)=  0.00930005 RMS(Int)=  0.00002453
 Iteration  2 RMS(Cart)=  0.00004217 RMS(Int)=  0.00000023
 Iteration  3 RMS(Cart)=  0.00000000 RMS(Int)=  0.00000023
 Iteration  1 RMS(Cart)=  0.00000005 RMS(Int)=  0.00000002
 Variable       Old X    -DE/DX   Delta X   Delta X   Delta X     New X
                                 (Linear)    (Quad)   (Total)
    R1        3.67647   0.00007   0.00000   0.00032   0.00032   3.67679
    R2        3.69189  -0.00025   0.00000  -0.00123  -0.00123   3.69066
    R3        3.73835   0.00009   0.00000   0.00046   0.00046   3.73881
    R4        3.70232   0.00116   0.00000   0.00576   0.00576   3.70808
    R5        3.11688  -0.00005   0.00000  -0.00012  -0.00012   3.11676
    R6        3.09579  -0.00009   0.00000  -0.00021  -0.00021   3.09558
    R7        3.10213  -0.00001   0.00000  -0.00002  -0.00002   3.10212
    R8        3.09245   0.00038   0.00000   0.00084   0.00084   3.09330
    R9        3.11587   0.00002   0.00000   0.00004   0.00004   3.11591
   R10        3.11989   0.00002   0.00000   0.00004   0.00004   3.11993
   R11        3.14367   0.00000   0.00000   0.00001   0.00001   3.14368
   R12        3.18062   0.00001   0.00000   0.00003   0.00003   3.18066
   R13        3.10924   0.00001   0.00000   0.00003   0.00003   3.10927
   R14        3.09339  -0.00002   0.00000  -0.00005  -0.00005   3.09334
   R15        3.10179   0.00002   0.00000   0.00004   0.00004   3.10183
   R16        3.16373   0.00004   0.00000   0.00009   0.00009   3.16383
   R17        3.09830   0.00002   0.00000   0.00005   0.00005   3.09835
   R18        3.11980  -0.00006   0.00000  -0.00014  -0.00014   3.11967
   R19        3.13206  -0.00018   0.00000  -0.00043  -0.00043   3.13163
   R20        3.11779   0.00036   0.00000   0.00085   0.00085   3.11864
   R21        1.82152   0.00000   0.00000   0.00000   0.00000   1.82153
   R22        1.82106  -0.00000   0.00000  -0.00001  -0.00001   1.82106
   R23        1.82089   0.00003   0.00000   0.00006   0.00006   1.82095
   R24        1.84078  -0.00000   0.00000  -0.00001  -0.00001   1.84078
   R25        1.84565  -0.00000   0.00000  -0.00000  -0.00000   1.84564
   R26        1.82041  -0.00001   0.00000  -0.00001  -0.00001   1.82040
   R27        1.82109  -0.00001   0.00000  -0.00002  -0.00002   1.82108
   R28        1.85910  -0.00001   0.00000  -0.00002  -0.00002   1.85909
   R29        1.82145   0.00000   0.00000   0.00000   0.00000   1.82146
   R30        1.82428  -0.00000   0.00000  -0.00001  -0.00001   1.82428
   R31        1.82168  -0.00001   0.00000  -0.00003  -0.00003   1.82165
   R32        1.85224  -0.00001   0.00000  -0.00002  -0.00002   1.85222
    A1        1.85172  -0.00006   0.00000  -0.00069  -0.00069   1.85104
    A2        1.80155   0.00007   0.00000   0.00023   0.00023   1.80179
    A3        1.96889  -0.00002   0.00000  -0.00038  -0.00038   1.96850
    A4        1.83430  -0.00004   0.00000   0.00028   0.00028   1.83459
    A5        2.01802   0.00013   0.00000   0.00075   0.00075   2.01878
    A6        1.97057  -0.00009   0.00000  -0.00024  -0.00024   1.97034
    A7        2.46524  -0.00010   0.00000  -0.00039  -0.00039   2.46485
    A8        2.58826   0.00003   0.00000   0.00011   0.00011   2.58837
    A9        2.35483   0.00005   0.00000   0.00020   0.00020   2.35503
   A10        2.75762   0.00099   0.00000   0.00000   0.00000   2.75762
   A11        1.91978  -0.00002   0.00000  -0.00008  -0.00008   1.91970
   A12        1.91546   0.00006   0.00000   0.00037   0.00037   1.91583
   A13        1.95201   0.00000   0.00000   0.00004   0.00004   1.95205
   A14        2.00708  -0.00003   0.00000  -0.00017  -0.00017   2.00691
   A15        1.88610  -0.00000   0.00000  -0.00010  -0.00010   1.88600
[...]
 Alpha virt. eigenvalues --    3.47839   3.48611   3.48886   3.51049   3.51067
 Alpha virt. eigenvalues --    3.52520   3.54379   3.60333   3.61091   3.62038
 Alpha virt. eigenvalues --    3.66215   4.36087   4.62877   7.79667  31.26364
          Condensed to atoms (all electrons):
               1          2          3          4          5          6
     1  Zr  15.318316  -0.144262   0.002191  -0.167194  -0.169191  -0.622214
     2  O   -0.144262   9.059812   0.017271  -0.041950  -0.053330   0.090908
     3  O    0.002191   0.017271   8.811546   0.013247  -0.044844  -0.006678
     4  O   -0.167194  -0.041950   0.013247   8.803056  -0.063453  -0.654430
     5  O   -0.169191  -0.053330  -0.044844  -0.063453   9.372211  -0.002631
     6  Si  -0.622214   0.090908  -0.006678  -0.654430  -0.002631  13.959572
     7  Si  -0.636023  -0.026636  -0.869049  -0.005467  -0.030649   0.090333
     8  Si  -0.614478  -0.979742  -0.025546   0.079233  -0.008916  -0.019024
     9  Si  -0.401238  -0.032784  -0.004323  -0.024145  -1.215873   0.047513
    10  O   -0.018036   0.000773  -0.003002   0.000524   0.126818  -0.002838
    11  O   -0.081701   0.003368   0.002977   0.001325   0.321723  -0.000602
    12  O    0.051962  -0.000197   0.005274   0.001996   0.163015  -0.003306
    13  O   -0.033127   0.189360   0.001551  -0.014921  -0.000864   0.032002
    14  O   -0.029316   0.259178  -0.018280  -0.009483   0.001168   0.032820
    15  O   -0.084354   0.289392  -0.000638   0.001174   0.000573   0.000683
    16  O   -0.118986   0.004660  -0.000497   0.343836   0.003023  -0.428030
    17  O   -0.105897  -0.038918   0.007179   0.215451   0.000782  -0.434338
    18  O   -0.037841  -0.014420   0.003654   0.201541  -0.000746  -0.445975
    19  O   -0.000194   0.009031   0.268098   0.011075   0.002034  -0.008669
    20  O   -0.142437  -0.000585   0.156216  -0.000843   0.001084   0.009135
    21  O    0.039428   0.010384   0.153179   0.003577   0.000405  -0.013923
    22  H   -0.010721  -0.000016   0.000012  -0.000009   0.004828   0.000118
    23  H   -0.006523  -0.000012  -0.000006  -0.000058  -0.025065   0.000087
    24  H   -0.005555  -0.000152  -0.000004   0.000002  -0.003930   0.000052
    25  H    0.016314  -0.019992  -0.000106  -0.000472   0.000024   0.003302
    26  H    0.008123   0.000685   0.000014  -0.000010  -0.000003  -0.000243
    27  H    0.009734  -0.019343   0.000915  -0.001658   0.000018   0.007196
    28  H    0.004727  -0.000010  -0.018189  -0.000015  -0.000014  -0.000292
    29  H    0.004092  -0.007035  -0.020253  -0.000130  -0.000065  -0.000002
    30  H    0.000798  -0.000013   0.000140  -0.000460  -0.000007  -0.000803
    31  H    0.000483   0.000166  -0.000021  -0.018442  -0.000009   0.063715
    32  H    0.002031  -0.000026   0.000039   0.010624   0.000003   0.022795
    33  H   -0.017009   0.001025  -0.010191  -0.009763  -0.000088   0.054155
               7          8          9         10         11         12
     1  Zr  -0.636023  -0.614478  -0.401238  -0.018036  -0.081701   0.051962
     2  O   -0.026636  -0.979742  -0.032784   0.000773   0.003368  -0.000197
     3  O   -0.869049  -0.025546  -0.004323  -0.003002   0.002977   0.005274
     4  O   -0.005467   0.079233  -0.024145   0.000524   0.001325   0.001996
     5  O   -0.030649  -0.008916  -1.215873   0.126818   0.321723   0.163015
     6  Si   0.090333  -0.019024   0.047513  -0.002838  -0.000602  -0.003306
     7  Si  13.789429   0.187029   0.023935   0.000067  -0.000508   0.004259
     8  Si   0.187029  13.776122   0.030325  -0.001052   0.001495  -0.001035
     9  Si   0.023935   0.030325  14.258079  -0.046761  -0.188960  -0.256384
    10  O    0.000067  -0.001052  -0.046761   8.526975  -0.000139   0.040088
    11  O   -0.000508   0.001495  -0.188960  -0.000139   8.547088  -0.049734
    12  O    0.004259  -0.001035  -0.256384   0.040088  -0.049734   8.620119
    13  O    0.006945  -0.097619   0.000003   0.000000   0.000016   0.000012
    14  O    0.013010  -0.355306  -0.001230  -0.000001   0.000003   0.000031
    15  O   -0.002172  -0.300535  -0.000373   0.000001  -0.000026  -0.000028
    16  O    0.003505  -0.010760  -0.001257   0.000008  -0.000003   0.000000
    17  O    0.003509   0.102627   0.003262  -0.000000   0.000002  -0.000006
    18  O   -0.000866   0.076925   0.004237  -0.000000  -0.000001  -0.000001
    19  O   -0.412710  -0.017034   0.000990   0.000009  -0.000001  -0.000022
    20  O   -0.097829   0.009767   0.003476   0.000004  -0.000002  -0.000033
    21  O    0.014873  -0.042557  -0.002393   0.000001   0.000002   0.000033
    22  H   -0.000238   0.000124   0.049993  -0.005842  -0.004977   0.219179
    23  H    0.000053   0.000056   0.077976   0.229546  -0.005649   0.005876
    24  H    0.000057  -0.000078   0.037775   0.007481   0.239582  -0.007077
    25  H   -0.000421   0.057497  -0.000186   0.000000  -0.000000  -0.000000
    26  H   -0.000406   0.045380  -0.000059  -0.000000   0.000000  -0.000000
    27  H    0.000560   0.066326  -0.000056   0.000000  -0.000000  -0.000000
    28  H    0.056362  -0.000056  -0.000144  -0.000000  -0.000000  -0.000007
    29  H    0.048285   0.021876  -0.000075   0.000000  -0.000000  -0.000002
    30  H    0.040487   0.000138   0.000021  -0.000000  -0.000000  -0.000000
    31  H    0.000153  -0.002219  -0.000052   0.000000  -0.000000  -0.000000
    32  H   -0.000687   0.000064  -0.000020  -0.000000   0.000000  -0.000000
    33  H    0.020778   0.000204   0.000095  -0.000000   0.000000   0.000000
              13         14         15         16         17         18
     1  Zr  -0.033127  -0.029316  -0.084354  -0.118986  -0.105897  -0.037841
     2  O    0.189360   0.259178   0.289392   0.004660  -0.038918  -0.014420
     3  O    0.001551  -0.018280  -0.000638  -0.000497   0.007179   0.003654
     4  O   -0.014921  -0.009483   0.001174   0.343836   0.215451   0.201541
     5  O   -0.000864   0.001168   0.000573   0.003023   0.000782  -0.000746
     6  Si   0.032002   0.032820   0.000683  -0.428030  -0.434338  -0.445975
     7  Si   0.006945   0.013010  -0.002172   0.003505   0.003509  -0.000866
     8  Si  -0.097619  -0.355306  -0.300535  -0.010760   0.102627   0.076925
     9  Si   0.000003  -0.001230  -0.000373  -0.001257   0.003262   0.004237
    10  O    0.000000  -0.000001   0.000001   0.000008  -0.000000  -0.000000
    11  O    0.000016   0.000003  -0.000026  -0.000003   0.000002  -0.000001
    12  O    0.000012   0.000031  -0.000028   0.000000  -0.000006  -0.000001
    13  O    8.629161   0.087010  -0.091819   0.003732  -0.030871  -0.045407
    14  O    0.087010   8.672609   0.055613   0.003566  -0.035656  -0.027167
    15  O   -0.091819   0.055613   8.775311  -0.000174   0.003650   0.001675
    16  O    0.003732   0.003566  -0.000174   8.902336  -0.092362  -0.114686
    17  O   -0.030871  -0.035656   0.003650  -0.092362   8.933445   0.227659
    18  O   -0.045407  -0.027167   0.001675  -0.114686   0.227659   9.011804
    19  O    0.000197  -0.000246   0.000141  -0.001485  -0.029522   0.000188
    20  O    0.000008  -0.000407   0.000036   0.000058  -0.001095   0.000017
    21  O   -0.000244   0.016512  -0.000585  -0.000205  -0.005621   0.000468
    22  H   -0.000000   0.000000   0.000000   0.000000   0.000000  -0.000000
    23  H    0.000000   0.000000  -0.000000  -0.000000   0.000000  -0.000000
    24  H   -0.000000   0.000000   0.000001   0.000000  -0.000000  -0.000000
    25  H    0.218458  -0.011848   0.008932  -0.000054   0.000600   0.014717
    26  H   -0.005196  -0.010153   0.217179   0.000000  -0.000004   0.000005
    27  H   -0.009731   0.218788   0.004592   0.000200   0.017647  -0.000269
    28  H    0.000000  -0.000005  -0.000001  -0.000000   0.000003  -0.000000
    29  H    0.000786   0.017659  -0.002554  -0.000004  -0.000392   0.000007
    30  H    0.000001   0.000003   0.000000   0.000117  -0.000358  -0.000008
    31  H    0.002333   0.000171  -0.000018   0.003685  -0.000697   0.217915
    32  H   -0.000008  -0.000006   0.000000   0.233353  -0.003600   0.003837
    33  H    0.000239   0.002135  -0.000037  -0.000150   0.231172   0.002075
              19         20         21         22         23         24
     1  Zr  -0.000194  -0.142437   0.039428  -0.010721  -0.006523  -0.005555
     2  O    0.009031  -0.000585   0.010384  -0.000016  -0.000012  -0.000152
     3  O    0.268098   0.156216   0.153179   0.000012  -0.000006  -0.000004
     4  O    0.011075  -0.000843   0.003577  -0.000009  -0.000058   0.000002
     5  O    0.002034   0.001084   0.000405   0.004828  -0.025065  -0.003930
     6  Si  -0.008669   0.009135  -0.013923   0.000118   0.000087   0.000052
     7  Si  -0.412710  -0.097829   0.014873  -0.000238   0.000053   0.000057
     8  Si  -0.017034   0.009767  -0.042557   0.000124   0.000056  -0.000078
     9  Si   0.000990   0.003476  -0.002393   0.049993   0.077976   0.037775
    10  O    0.000009   0.000004   0.000001  -0.005842   0.229546   0.007481
    11  O   -0.000001  -0.000002   0.000002  -0.004977  -0.005649   0.239582
    12  O   -0.000022  -0.000033   0.000033   0.219179   0.005876  -0.007077
    13  O    0.000197   0.000008  -0.000244  -0.000000   0.000000  -0.000000
    14  O   -0.000246  -0.000407   0.016512   0.000000   0.000000   0.000000
    15  O    0.000141   0.000036  -0.000585   0.000000  -0.000000   0.000001
    16  O   -0.001485   0.000058  -0.000205   0.000000  -0.000000   0.000000
    17  O   -0.029522  -0.001095  -0.005621   0.000000   0.000000  -0.000000
    18  O    0.000188   0.000017   0.000468  -0.000000  -0.000000  -0.000000
    19  O    8.874350   0.031988   0.025282  -0.000000   0.000000  -0.000000
    20  O    0.031988   8.650859  -0.051161   0.000001   0.000000  -0.000000
    21  O    0.025282  -0.051161   8.488996  -0.000000   0.000000   0.000000
    22  H   -0.000000   0.000001  -0.000000   0.358679   0.000047   0.000113
    23  H    0.000000   0.000000   0.000000   0.000047   0.351337   0.000019
    24  H   -0.000000  -0.000000   0.000000   0.000113   0.000019   0.365550
    25  H   -0.000024   0.000000  -0.000018   0.000000   0.000000   0.000000
    26  H    0.000000  -0.000000   0.000038  -0.000000  -0.000000  -0.000000
    27  H   -0.000009   0.000196  -0.004070  -0.000000  -0.000000   0.000000
    28  H    0.004669   0.229809  -0.002062  -0.000000   0.000000  -0.000000
    29  H   -0.008595   0.007682   0.206556   0.000000  -0.000000  -0.000000
    30  H    0.224091  -0.001525  -0.007210   0.000000  -0.000000  -0.000000
    31  H    0.000004  -0.000000  -0.000000  -0.000000  -0.000000   0.000000
    32  H    0.000092   0.000000   0.000001  -0.000000  -0.000000  -0.000000
    33  H    0.014684  -0.000056   0.001420  -0.000000  -0.000000  -0.000000
              25         26         27         28         29         30
     1  Zr   0.016314   0.008123   0.009734   0.004727   0.004092   0.000798
     2  O   -0.019992   0.000685  -0.019343  -0.000010  -0.007035  -0.000013
     3  O   -0.000106   0.000014   0.000915  -0.018189  -0.020253   0.000140
     4  O   -0.000472  -0.000010  -0.001658  -0.000015  -0.000130  -0.000460
     5  O    0.000024  -0.000003   0.000018  -0.000014  -0.000065  -0.000007
     6  Si   0.003302  -0.000243   0.007196  -0.000292  -0.000002  -0.000803
     7  Si  -0.000421  -0.000406   0.000560   0.056362   0.048285   0.040487
     8  Si   0.057497   0.045380   0.066326  -0.000056   0.021876   0.000138
     9  Si  -0.000186  -0.000059  -0.000056  -0.000144  -0.000075   0.000021
    10  O    0.000000  -0.000000   0.000000  -0.000000   0.000000  -0.000000
    11  O   -0.000000   0.000000  -0.000000  -0.000000  -0.000000  -0.000000
    12  O   -0.000000  -0.000000  -0.000000  -0.000007  -0.000002  -0.000000
    13  O    0.218458  -0.005196  -0.009731   0.000000   0.000786   0.000001
    14  O   -0.011848  -0.010153   0.218788  -0.000005   0.017659   0.000003
    15  O    0.008932   0.217179   0.004592  -0.000001  -0.002554   0.000000
    16  O   -0.000054   0.000000   0.000200  -0.000000  -0.000004   0.000117
    17  O    0.000600  -0.000004   0.017647   0.000003  -0.000392  -0.000358
    18  O    0.014717   0.000005  -0.000269  -0.000000   0.000007  -0.000008
    19  O   -0.000024   0.000000  -0.000009   0.004669  -0.008595   0.224091
    20  O    0.000000  -0.000000   0.000196   0.229809   0.007682  -0.001525
    21  O   -0.000018   0.000038  -0.004070  -0.002062   0.206556  -0.007210
    22  H    0.000000  -0.000000  -0.000000  -0.000000   0.000000   0.000000
    23  H    0.000000  -0.000000  -0.000000   0.000000  -0.000000  -0.000000
    24  H    0.000000  -0.000000   0.000000  -0.000000  -0.000000  -0.000000
    25  H    0.299155  -0.000011   0.000102   0.000000   0.000001   0.000000
    26  H   -0.000011   0.366193   0.000038   0.000000   0.000021  -0.000000
    27  H    0.000102   0.000038   0.283571  -0.000000  -0.001481   0.000009
    28  H    0.000000   0.000000  -0.000000   0.349380  -0.000017  -0.000015
    29  H    0.000001   0.000021  -0.001481  -0.000017   0.285923   0.000154
    30  H    0.000000  -0.000000   0.000009  -0.000015   0.000154   0.334378
    31  H   -0.000487   0.000000   0.000012  -0.000000   0.000000  -0.000000
    32  H   -0.000001   0.000000  -0.000000   0.000000  -0.000000  -0.000000
    33  H    0.000005  -0.000000  -0.002407  -0.000002   0.000106  -0.001143
              31         32         33
     1  Zr   0.000483   0.002031  -0.017009
     2  O    0.000166  -0.000026   0.001025
     3  O   -0.000021   0.000039  -0.010191
     4  O   -0.018442   0.010624  -0.009763
     5  O   -0.000009   0.000003  -0.000088
     6  Si   0.063715   0.022795   0.054155
     7  Si   0.000153  -0.000687   0.020778
     8  Si  -0.002219   0.000064   0.000204
     9  Si  -0.000052  -0.000020   0.000095
    10  O    0.000000  -0.000000  -0.000000
    11  O   -0.000000   0.000000   0.000000
    12  O   -0.000000  -0.000000   0.000000
    13  O    0.002333  -0.000008   0.000239
    14  O    0.000171  -0.000006   0.002135
    15  O   -0.000018   0.000000  -0.000037
    16  O    0.003685   0.233353  -0.000150
    17  O   -0.000697  -0.003600   0.231172
    18  O    0.217915   0.003837   0.002075
    19  O    0.000004   0.000092   0.014684
    20  O   -0.000000   0.000000  -0.000056
    21  O   -0.000000   0.000001   0.001420
    22  H   -0.000000  -0.000000  -0.000000
    23  H   -0.000000  -0.000000  -0.000000
    24  H    0.000000  -0.000000  -0.000000
    25  H   -0.000487  -0.000001   0.000005
    26  H    0.000000   0.000000  -0.000000
    27  H    0.000012  -0.000000  -0.002407
    28  H   -0.000000   0.000000  -0.000002
    29  H    0.000000  -0.000000   0.000106
    30  H   -0.000000  -0.000000  -0.001143
    31  H    0.331679   0.000002  -0.000038
    32  H    0.000002   0.350059   0.000157
    33  H   -0.000038   0.000157   0.269215
 Mulliken charges:
               1
     1  Zr  -0.011902
     2  O   -0.556588
     3  O   -0.421877
     4  O   -0.673759
     5  O   -0.378033
     6  Si   2.229610
     7  Si   1.780032
     8  Si   2.020769
     9  Si   1.638632
    10  O   -0.854622
    11  O   -0.785281
    12  O   -0.794012
    13  O   -0.842007
    14  O   -0.881173
    15  O   -0.875638
    16  O   -0.733428
    17  O   -0.967650
    18  O   -1.079337
    19  O   -0.988413
    20  O   -0.804362
    21  O   -0.831107
    22  H    0.388708
    23  H    0.372317
    24  H    0.366167
    25  H    0.414513
    26  H    0.378409
    27  H    0.429122
    28  H    0.375878
    29  H    0.447456
    30  H    0.411205
    31  H    0.401666
    32  H    0.381289
    33  H    0.443417
 Sum of Mulliken charges =  -0.00000
 Mulliken charges with hydrogens summed into heavy atoms:
               1
     1  Zr  -0.011902
     2  O   -0.556588
     3  O   -0.421877
     4  O   -0.673759
     5  O   -0.378033
     6  Si   2.229610
     7  Si   1.780032
     8  Si   2.020769
     9  Si   1.638632
    10  O   -0.482305
    11  O   -0.419114
    12  O   -0.405304
    13  O   -0.427494
    14  O   -0.452051
    15  O   -0.497229
    16  O   -0.352139
    17  O   -0.524233
    18  O   -0.677671
    19  O   -0.577209
    20  O   -0.428484
    21  O   -0.383651
 Electronic spatial extent (au):  <R**2>=           9813.7211
 Charge=             -0.0000 electrons
 Dipole moment (field-independent basis, Debye):
    X=              1.1295    Y=             -0.7105    Z=             -2.4249  Tot=              2.7678
 Quadrupole moment (field-independent basis, Debye-Ang):
   XX=           -160.6486   YY=           -153.9850   ZZ=           -157.7807
   XY=             -4.1424   XZ=              2.3292   YZ=              5.8718
 Traceless Quadrupole moment (field-independent basis, Debye-Ang):
   XX=             -3.1771   YY=              3.4864   ZZ=             -0.3093
   XY=             -4.1424   XZ=              2.3292   YZ=              5.8718
 Octapole moment (field-independent basis, Debye-Ang**2):
  XXX=             72.3209  YYY=              6.7632  ZZZ=            -19.0826  XYY=             -0.4535
  XXY=             18.0242  XXZ=             18.5470  XZZ=              5.4122  YZZ=            -17.3927
  YYZ=            -16.9541  XYZ=             26.6463
 Hexadecapole moment (field-independent basis, Debye-Ang**3):
 XXXX=          -6058.0056 YYYY=          -2814.3894 ZZZZ=          -2254.8781 XXXY=             56.5419
 XXXZ=            -54.1611 YYYX=             14.3726 YYYZ=            200.9538 ZZZX=           -187.4851
 ZZZY=            -45.6917 XXYY=          -1456.9384 XXZZ=          -1355.3632 YYZZ=           -919.2653
 XXYZ=              8.3024 YYXZ=            151.0159 ZZXY=            -58.0543
 N-N= 2.836673756435D+03 E-N=-1.138598061132D+04  KE= 2.373154753036D+03
 1\1\GINC-GRA607\FOpt\RB3LYP\Gen\H12O16Si4Zr1\SARASHS\12-Aug-2020\0\\#n
  B3LYP/Gen Pseudo=cards EmpiricalDispersion=GD3 Opt=modredundant\\Titl
 e\\0,1\Zr,0.6581540585,-0.1228773124,-0.070549617\O,-0.2216816537,-0.9
 055684671,1.4781173291\O,0.0971776278,1.7468531506,-0.120995741\O,-0.2
 669231324,-0.9768169104,-1.5964871041\O,2.5948592302,-0.4362821344,-0.
 0820969344\Si,-1.8293601231,-1.3330548289,-1.9525365777\Si,-1.12010046
 04,2.8424211166,-0.0831683421\Si,-1.7226616812,-1.1510261373,2.1161683
 725\Si,4.1891938979,-0.0905674363,0.0534669805\O,4.9464160296,0.151848
 0738,-1.3933144442\O,4.9912270801,-1.3559427319,0.7612874216\O,4.24727
 9406,1.3186371179,0.9106200156\O,-2.3181580656,-2.6228962907,1.6998414
 184\O,-2.7234293846,0.0658327589,1.5498496652\O,-1.5966866827,-1.01455
 20853,3.7452027805\O,-1.9986957792,-1.5626798321,-3.5765582075\O,-2.82
 54687102,-0.1881823818,-1.3024513606\O,-2.3409552356,-2.7146947079,-1.
 1799199177\O,-2.0439152331,2.4396447233,-1.4310921993\O,-0.6390546677,
 4.4006383441,-0.3016146754\O,-1.9710963937,2.7631148412,1.3129253049\H
 ,5.0875680726,1.7901013932,0.9202254502\H,5.3800101195,-0.6194175933,-
 1.7757484643\H,4.5655689875,-1.7844554469,1.5121755998\H,-2.4037402734
 ,-2.8098326851,0.7477001347\H,-2.3809054548,-1.2183041945,4.2662318036
 \H,-3.0588582967,-0.0833660079,0.6447913885\H,-0.5266368842,4.92682356
 97,0.4982378049\H,-2.2719010341,1.8709484158,1.5854377346\H,-2.6521745
 962,3.1263342601,-1.7317391538\H,-2.2959441885,-3.5308817631,-1.690695
 6983\H,-1.2677561717,-1.2672255226,-4.1307312512\H,-2.6120504071,0.753
 3567051,-1.4914495161\\Version=ES64L-G16RevB.01\State=1-A\HF=-2416.946
 825\RMSD=4.803e-09\RMSF=6.718e-05\Dipole=0.4672453,-0.2620148,-0.94805
 18\Quadrupole=-2.0725208,2.3191142,-0.2465934,-3.347481,1.5110243,4.40
 01249\PG=C01 [X(H12O16Si4Zr1)]\\@


 Everywhere is walking distance if you have the time.
                                    -- Steven Wright
 Job cpu time:       0 days 18 hours 30 minutes 17.2 seconds.
 Elapsed time:       0 days  1 hours 23 minutes  4.9 seconds.
 File lengths (MBytes):  RWF=    167 Int=      0 D2E=      0 Chk=     21 Scr=      1
 Normal termination of Gaussian 16 at Wed Aug 12 21:06:13 2020.
