 Entering Gaussian System, Link 0=g16
 Initial command:
 /opt/software/gaussian/g16.b01/l1.exe "/localscratch/sarashs.36760136.0/Gau-142192.inp" -scrdir="/localscratch/sarashs.36760136.0/"
 Entering Link 1 = /opt/software/gaussian/g16.b01/l1.exe PID=    142196.
  
 Copyright (c) 1988-2017, Gaussian, Inc.  All Rights Reserved.
  
 This is part of the Gaussian(R) 16 program.  It is based on
 the Gaussian(R) 09 system (copyright 2009, Gaussian, Inc.),
 the Gaussian(R) 03 system (copyright 2003, Gaussian, Inc.),
 the Gaussian(R) 98 system (copyright 1998, Gaussian, Inc.),
 the Gaussian(R) 94 system (copyright 1995, Gaussian, Inc.),
 the Gaussian 92(TM) system (copyright 1992, Gaussian, Inc.),
 the Gaussian 90(TM) system (copyright 1990, Gaussian, Inc.),
 the Gaussian 88(TM) system (copyright 1988, Gaussian, Inc.),
 the Gaussian 86(TM) system (copyright 1986, Carnegie Mellon
 University), and the Gaussian 82(TM) system (copyright 1983,
 Carnegie Mellon University). Gaussian is a federally registered
 trademark of Gaussian, Inc.
  
 This software contains proprietary and confidential information,
 including trade secrets, belonging to Gaussian, Inc.
  
 This software is provided under written license and may be
 used, copied, transmitted, or stored only in accord with that
 written license.
  
 The following legend is applicable only to US Government
 contracts under FAR:
  
                    RESTRICTED RIGHTS LEGEND
  
 Use, reproduction and disclosure by the US Government is
 subject to restrictions as set forth in subparagraphs (a)
 and (c) of the Commercial Computer Software - Restricted
 Rights clause in FAR 52.227-19.
  
 Gaussian, Inc.
 340 Quinnipiac St., Bldg. 40, Wallingford CT 06492
  
  
 ---------------------------------------------------------------
 Warning -- This program may not be used in any manner that
 competes with the business of Gaussian, Inc. or will provide
 assistance to any competitor of Gaussian, Inc.  The licensee
 of this program is prohibited from giving any competitor of
 Gaussian, Inc. access to this program.  By using this program,
 the user acknowledges that Gaussian, Inc. is engaged in the
 business of creating and licensing software in the field of
 computational chemistry and represents and warrants to the
 licensee that it is not a competitor of Gaussian, Inc. and that
 it will not use this program in any manner prohibited above.
 ---------------------------------------------------------------
  

 Cite this work as:
 Gaussian 16, Revision B.01,
 M. J. Frisch, G. W. Trucks, H. B. Schlegel, G. E. Scuseria, 
 M. A. Robb, J. R. Cheeseman, G. Scalmani, V. Barone, 
 G. A. Petersson, H. Nakatsuji, X. Li, M. Caricato, A. V. Marenich, 
 J. Bloino, B. G. Janesko, R. Gomperts, B. Mennucci, H. P. Hratchian, 
 J. V. Ortiz, A. F. Izmaylov, J. L. Sonnenberg, D. Williams-Young, 
 F. Ding, F. Lipparini, F. Egidi, J. Goings, B. Peng, A. Petrone, 
 T. Henderson, D. Ranasinghe, V. G. Zakrzewski, J. Gao, N. Rega, 
 G. Zheng, W. Liang, M. Hada, M. Ehara, K. Toyota, R. Fukuda, 
 J. Hasegawa, M. Ishida, T. Nakajima, Y. Honda, O. Kitao, H. Nakai, 
 T. Vreven, K. Throssell, J. A. Montgomery, Jr., J. E. Peralta, 
 F. Ogliaro, M. J. Bearpark, J. J. Heyd, E. N. Brothers, K. N. Kudin, 
 V. N. Staroverov, T. A. Keith, R. Kobayashi, J. Normand, 
 K. Raghavachari, A. P. Rendell, J. C. Burant, S. S. Iyengar, 
 J. Tomasi, M. Cossi, J. M. Millam, M. Klene, C. Adamo, R. Cammi, 
 J. W. Ochterski, R. L. Martin, K. Morokuma, O. Farkas, 
 J. B. Foresman, and D. J. Fox, Gaussian, Inc., Wallingford CT, 2016.
 
 ******************************************
 Gaussian 16:  ES64L-G16RevB.01 20-Dec-2017
                 2-Aug-2020 
 ******************************************
 %NProcShared=16
 Will use up to   16 processors via shared memory.
 ------------------------------------------------------------------
 #n B3LYP/Gen Pseudo=cards EmpiricalDispersion=GD3 Opt=modredundant
 ------------------------------------------------------------------
 1/18=120,19=15,26=3,38=1/1,3;
 2/9=110,12=2,17=6,18=5,40=1/2;
 3/5=7,11=2,16=1,17=8,25=1,30=1,71=1,74=-5,124=31/1,2,3;
 4//1;
 5/5=2,38=5/2;
 6/7=2,8=2,9=2,10=2,28=1/1;
 7//1,2,3,16;
 1/18=20,19=15,26=3/3(2);
 2/9=110/2;
 99//99;
 2/9=110/2;
 3/5=7,6=1,11=2,16=1,17=8,25=1,30=1,71=1,74=-5,82=7,124=31/1,2,3;
 4/5=5,16=3,69=1/1;
 5/5=2,38=5/2;
 7//1,2,3,16;
 1/18=20,19=15,26=3/3(-5);
 2/9=110/2;
 6/7=2,8=2,9=2,10=2,19=2,28=1/1;
 99/9=1/99;
 -----
 Title
 -----
 Symbolic Z-matrix:
 Charge =  0 Multiplicity = 1
 Zr                    0.64646  -0.19013  -0.1519 
 O                    -0.19212  -0.93131   1.43939 
 O                     0.17263   1.70395  -0.1904 
 O                    -0.37772  -1.01692  -1.62844 
 O                     2.5678   -0.57883  -0.26812 
 Si                   -1.96924  -1.33216  -1.87829 
 Si                   -0.98958   2.85681  -0.11809 
 Si                   -1.67476  -1.05152   2.17706 
 Si                    4.19701  -0.73279  -0.26373 
 O                     4.93719  -0.10448  -1.59819 
 O                     4.62156  -2.33465  -0.24076 
 O                     4.69728   0.12395   1.05631 
 O                    -2.33574  -2.51245   1.83004 
 O                    -2.6209    0.20928   1.64149 
 O                    -1.552    -0.82432   3.7965 
 O                    -2.25427  -1.59164  -3.48183 
 O                    -2.88371  -0.13912  -1.19557 
 O                    -2.46027  -2.68598  -1.04579 
 O                    -2.00825   2.45605  -1.3967 
 O                    -0.44623   4.38142  -0.41555 
 O                    -1.75835   2.86715   1.32642 
 H                     5.63604   0.33487   1.10968 
 H                     5.11473  -0.72422  -2.31475 
 H                     4.12039  -2.91614   0.34141 
 H                    -2.40738  -2.74575   0.88712 
 H                    -0.93391  -1.38513   4.27638 
 H                    -3.02928   0.04705   0.77024 
 H                    -0.29029   4.93346   0.35924 
 H                    -2.09489   2.00321   1.64266 
 H                    -2.6086    3.15807  -1.6773 
 H                    -2.56602  -3.49143  -1.56436 
 H                    -1.55278  -1.33714  -4.09141 
 H                    -2.64046   0.78995  -1.40829 
 
 The following ModRedundant input section has been read:
 A       1       5       9 F                                                   
 

 GradGradGradGradGradGradGradGradGradGradGradGradGradGradGradGradGradGrad
 Berny optimization.
 Initialization pass.
                           ----------------------------
                           !    Initial Parameters    !
                           ! (Angstroms and Degrees)  !
 --------------------------                            --------------------------
 ! Name  Definition              Value          Derivative Info.                !
 --------------------------------------------------------------------------------
 ! R1    R(1,2)                  1.9454         estimate D2E/DX2                !
 ! R2    R(1,3)                  1.9528         estimate D2E/DX2                !
 ! R3    R(1,4)                  1.9781         estimate D2E/DX2                !
 ! R4    R(1,5)                  1.9637         estimate D2E/DX2                !
 ! R5    R(2,8)                  1.6604         estimate D2E/DX2                !
 ! R6    R(3,7)                  1.6386         estimate D2E/DX2                !
 ! R7    R(4,6)                  1.6416         estimate D2E/DX2                !
 ! R8    R(5,9)                  1.6365         estimate D2E/DX2                !
 ! R9    R(6,16)                 1.6492         estimate D2E/DX2                !
 ! R10   R(6,17)                 1.651          estimate D2E/DX2                !
 ! R11   R(6,18)                 1.6634         estimate D2E/DX2                !
 ! R12   R(7,19)                 1.6832         estimate D2E/DX2                !
 ! R13   R(7,20)                 1.6456         estimate D2E/DX2                !
 ! R14   R(7,21)                 1.6364         estimate D2E/DX2                !
 ! R15   R(8,13)                 1.6406         estimate D2E/DX2                !
 ! R16   R(8,14)                 1.6648         estimate D2E/DX2                !
 ! R17   R(8,15)                 1.6399         estimate D2E/DX2                !
 ! R18   R(9,10)                 1.6503         estimate D2E/DX2                !
 ! R19   R(9,11)                 1.6573         estimate D2E/DX2                !
 ! R20   R(9,12)                 1.6513         estimate D2E/DX2                !
 ! R21   R(10,23)                0.9639         estimate D2E/DX2                !
 ! R22   R(11,24)                0.9634         estimate D2E/DX2                !
 ! R23   R(12,22)                0.9636         estimate D2E/DX2                !
 ! R24   R(13,25)                0.974          estimate D2E/DX2                !
 ! R25   R(14,27)                0.9758         estimate D2E/DX2                !
 ! R26   R(15,26)                0.9627         estimate D2E/DX2                !
 ! R27   R(16,32)                0.9636         estimate D2E/DX2                !
 ! R28   R(17,33)                0.9837         estimate D2E/DX2                !
 ! R29   R(18,31)                0.9638         estimate D2E/DX2                !
 ! R30   R(19,30)                0.9654         estimate D2E/DX2                !
 ! R31   R(20,28)                0.964          estimate D2E/DX2                !
 ! R32   R(21,29)                0.9796         estimate D2E/DX2                !
 ! A1    A(2,1,3)              106.3234         estimate D2E/DX2                !
 ! A2    A(2,1,4)              103.1879         estimate D2E/DX2                !
 ! A3    A(2,1,5)              113.2501         estimate D2E/DX2                !
 ! A4    A(3,1,4)              105.3705         estimate D2E/DX2                !
 ! A5    A(3,1,5)              115.3549         estimate D2E/DX2                !
 ! A6    A(4,1,5)              112.3142         estimate D2E/DX2                !
 ! A7    A(1,2,8)              140.8859         estimate D2E/DX2                !
 ! A8    A(1,3,7)              148.6074         estimate D2E/DX2                !
 ! A9    A(1,4,6)              134.0964         estimate D2E/DX2                !
 ! A10   A(1,5,9)              172.9998         Frozen                          !
 ! A11   A(4,6,16)             110.2282         estimate D2E/DX2                !
 ! A12   A(4,6,17)             109.5909         estimate D2E/DX2                !
 ! A13   A(4,6,18)             111.4884         estimate D2E/DX2                !
 ! A14   A(16,6,17)            114.8371         estimate D2E/DX2                !
 ! A15   A(16,6,18)            107.9112         estimate D2E/DX2                !
 ! A16   A(17,6,18)            102.5719         estimate D2E/DX2                !
 ! A17   A(3,7,19)             103.1918         estimate D2E/DX2                !
 ! A18   A(3,7,20)             114.1832         estimate D2E/DX2                !
 ! A19   A(3,7,21)             112.1241         estimate D2E/DX2                !
 ! A20   A(19,7,20)            106.4451         estimate D2E/DX2                !
 ! A21   A(19,7,21)            112.8144         estimate D2E/DX2                !
 ! A22   A(20,7,21)            107.9884         estimate D2E/DX2                !
 ! A23   A(2,8,13)             109.2843         estimate D2E/DX2                !
 ! A24   A(2,8,14)             108.0427         estimate D2E/DX2                !
 ! A25   A(2,8,15)             111.2146         estimate D2E/DX2                !
 ! A26   A(13,8,14)            112.1704         estimate D2E/DX2                !
 ! A27   A(13,8,15)            111.2482         estimate D2E/DX2                !
 ! A28   A(14,8,15)            104.7916         estimate D2E/DX2                !
 ! A29   A(5,9,10)             114.1131         estimate D2E/DX2                !
 ! A30   A(5,9,11)             110.2427         estimate D2E/DX2                !
 ! A31   A(5,9,12)             104.7703         estimate D2E/DX2                !
 ! A32   A(10,9,11)            105.3254         estimate D2E/DX2                !
 ! A33   A(10,9,12)            108.24           estimate D2E/DX2                !
 ! A34   A(11,9,12)            114.3795         estimate D2E/DX2                !
 ! A35   A(9,10,23)            116.0378         estimate D2E/DX2                !
 ! A36   A(9,11,24)            117.2888         estimate D2E/DX2                !
 ! A37   A(9,12,22)            116.9342         estimate D2E/DX2                !
 ! A38   A(8,13,25)            116.5961         estimate D2E/DX2                !
 ! A39   A(8,14,27)            113.5263         estimate D2E/DX2                !
 ! A40   A(8,15,26)            117.3612         estimate D2E/DX2                !
 ! A41   A(6,16,32)            116.5984         estimate D2E/DX2                !
 ! A42   A(6,17,33)            117.1373         estimate D2E/DX2                !
 ! A43   A(6,18,31)            116.3135         estimate D2E/DX2                !
 ! A44   A(7,19,30)            115.0881         estimate D2E/DX2                !
 ! A45   A(7,20,28)            116.018          estimate D2E/DX2                !
 ! A46   A(7,21,29)            116.1544         estimate D2E/DX2                !
 ! D1    D(3,1,2,8)             54.013          estimate D2E/DX2                !
 ! D2    D(4,1,2,8)            -56.615          estimate D2E/DX2                !
 ! D3    D(5,1,2,8)           -178.2908         estimate D2E/DX2                !
 ! D4    D(2,1,3,7)            -51.1331         estimate D2E/DX2                !
 ! D5    D(4,1,3,7)             57.9568         estimate D2E/DX2                !
 ! D6    D(5,1,3,7)           -177.5709         estimate D2E/DX2                !
 ! D7    D(2,1,4,6)             41.2968         estimate D2E/DX2                !
 ! D8    D(3,1,4,6)            -70.0365         estimate D2E/DX2                !
 ! D9    D(5,1,4,6)            163.602          estimate D2E/DX2                !
 ! D10   D(2,1,9,10)          -179.5704         estimate D2E/DX2                !
 ! D11   D(2,1,9,11)            59.6356         estimate D2E/DX2                !
 ! D12   D(2,1,9,12)           -63.4523         estimate D2E/DX2                !
 ! D13   D(3,1,9,10)           -58.8772         estimate D2E/DX2                !
 ! D14   D(3,1,9,11)          -179.6712         estimate D2E/DX2                !
 ! D15   D(3,1,9,12)            57.2409         estimate D2E/DX2                !
 ! D16   D(4,1,9,10)            62.0363         estimate D2E/DX2                !
 ! D17   D(4,1,9,11)           -58.7576         estimate D2E/DX2                !
 ! D18   D(4,1,9,12)           178.1545         estimate D2E/DX2                !
 ! D19   D(1,2,8,13)            98.0767         estimate D2E/DX2                !
 ! D20   D(1,2,8,14)           -24.2296         estimate D2E/DX2                !
 ! D21   D(1,2,8,15)          -138.7156         estimate D2E/DX2                !
 ! D22   D(1,3,7,19)           -58.6416         estimate D2E/DX2                !
 ! D23   D(1,3,7,20)          -173.7291         estimate D2E/DX2                !
 ! D24   D(1,3,7,21)            63.0404         estimate D2E/DX2                !
 ! D25   D(1,4,6,16)           161.8736         estimate D2E/DX2                !
 ! D26   D(1,4,6,17)            34.551          estimate D2E/DX2                !
 ! D27   D(1,4,6,18)           -78.3045         estimate D2E/DX2                !
 ! D28   D(4,6,16,32)          -13.7229         estimate D2E/DX2                !
 ! D29   D(17,6,16,32)         110.6319         estimate D2E/DX2                !
 ! D30   D(18,6,16,32)        -135.686          estimate D2E/DX2                !
 ! D31   D(4,6,17,33)           49.7998         estimate D2E/DX2                !
 ! D32   D(16,6,17,33)         -74.8906         estimate D2E/DX2                !
 ! D33   D(18,6,17,33)         168.3378         estimate D2E/DX2                !
 ! D34   D(4,6,18,31)         -102.9126         estimate D2E/DX2                !
 ! D35   D(16,6,18,31)          18.2691         estimate D2E/DX2                !
 ! D36   D(17,6,18,31)         139.8941         estimate D2E/DX2                !
 ! D37   D(3,7,19,30)         -162.9704         estimate D2E/DX2                !
 ! D38   D(20,7,19,30)         -42.4468         estimate D2E/DX2                !
 ! D39   D(21,7,19,30)          75.8144         estimate D2E/DX2                !
 ! D40   D(3,7,20,28)         -100.1112         estimate D2E/DX2                !
 ! D41   D(19,7,20,28)         146.7232         estimate D2E/DX2                !
 ! D42   D(21,7,20,28)          25.3303         estimate D2E/DX2                !
 ! D43   D(3,7,21,29)          -50.5298         estimate D2E/DX2                !
 ! D44   D(19,7,21,29)          65.4642         estimate D2E/DX2                !
 ! D45   D(20,7,21,29)        -177.1813         estimate D2E/DX2                !
 ! D46   D(2,8,13,25)          -54.0971         estimate D2E/DX2                !
 ! D47   D(14,8,13,25)          65.6987         estimate D2E/DX2                !
 ! D48   D(15,8,13,25)        -177.2849         estimate D2E/DX2                !
 ! D49   D(2,8,14,27)           81.1206         estimate D2E/DX2                !
 ! D50   D(13,8,14,27)         -39.3971         estimate D2E/DX2                !
 ! D51   D(15,8,14,27)        -160.2179         estimate D2E/DX2                !
 ! D52   D(2,8,15,26)          -54.9076         estimate D2E/DX2                !
 ! D53   D(13,8,15,26)          67.168          estimate D2E/DX2                !
 ! D54   D(14,8,15,26)        -171.403          estimate D2E/DX2                !
 ! D55   D(5,9,10,23)          -94.3735         estimate D2E/DX2                !
 ! D56   D(11,9,10,23)          26.6717         estimate D2E/DX2                !
 ! D57   D(12,9,10,23)         149.4203         estimate D2E/DX2                !
 ! D58   D(5,9,11,24)          -42.158          estimate D2E/DX2                !
 ! D59   D(10,9,11,24)        -165.7001         estimate D2E/DX2                !
 ! D60   D(12,9,11,24)          75.5815         estimate D2E/DX2                !
 ! D61   D(5,9,12,22)         -165.321          estimate D2E/DX2                !
 ! D62   D(10,9,12,22)         -43.1977         estimate D2E/DX2                !
 ! D63   D(11,9,12,22)          73.8594         estimate D2E/DX2                !
 --------------------------------------------------------------------------------
 Trust Radius=3.00D-01 FncErr=1.00D-07 GrdErr=1.00D-06 EigMax=2.50D+02 EigMin=1.00D-04
 Number of steps in this run=    151 maximum allowed number of steps=    198.
 GradGradGradGradGradGradGradGradGradGradGradGradGradGradGradGradGradGrad

                          Input orientation:                          
 ---------------------------------------------------------------------
 Center     Atomic      Atomic             Coordinates (Angstroms)
 Number     Number       Type             X           Y           Z
 ---------------------------------------------------------------------
      1         40           0        0.646460   -0.190130   -0.151900
      2          8           0       -0.192120   -0.931310    1.439390
      3          8           0        0.172630    1.703950   -0.190400
      4          8           0       -0.377720   -1.016920   -1.628440
      5          8           0        2.567800   -0.578830   -0.268120
      6         14           0       -1.969240   -1.332160   -1.878290
      7         14           0       -0.989580    2.856810   -0.118090
      8         14           0       -1.674760   -1.051520    2.177060
      9         14           0        4.197010   -0.732790   -0.263730
     10          8           0        4.937190   -0.104480   -1.598190
     11          8           0        4.621560   -2.334650   -0.240760
     12          8           0        4.697280    0.123950    1.056310
     13          8           0       -2.335740   -2.512450    1.830040
     14          8           0       -2.620900    0.209280    1.641490
     15          8           0       -1.552000   -0.824320    3.796500
     16          8           0       -2.254270   -1.591640   -3.481830
     17          8           0       -2.883710   -0.139120   -1.195570
     18          8           0       -2.460270   -2.685980   -1.045790
     19          8           0       -2.008250    2.456050   -1.396700
     20          8           0       -0.446230    4.381420   -0.415550
     21          8           0       -1.758350    2.867150    1.326420
     22          1           0        5.636040    0.334870    1.109680
     23          1           0        5.114730   -0.724220   -2.314750
     24          1           0        4.120390   -2.916140    0.341410
     25          1           0       -2.407380   -2.745750    0.887120
     26          1           0       -0.933910   -1.385130    4.276380
     27          1           0       -3.029280    0.047050    0.770240
     28          1           0       -0.290290    4.933460    0.359240
     29          1           0       -2.094890    2.003210    1.642660
     30          1           0       -2.608600    3.158070   -1.677300
     31          1           0       -2.566020   -3.491430   -1.564360
     32          1           0       -1.552780   -1.337140   -4.091410
     33          1           0       -2.640460    0.789950   -1.408290
 ---------------------------------------------------------------------
                    Distance matrix (angstroms):
                    1          2          3          4          5
     1  Zr   0.000000
     2  O    1.945448   0.000000
     3  O    1.952828   3.119912   0.000000
     4  O    1.978054   3.074631   3.126336   0.000000
     5  O    1.963706   3.264505   3.309677   3.273909   0.000000
     6  Si   3.335647   3.784949   4.080998   1.641565   4.872872
     7  Si   3.458557   4.172714   1.638611   4.202537   4.947836
     8  Si   3.399134   1.660370   4.075577   4.020614   4.919518
     9  Si   3.593521   4.712164   4.705179   4.782397   1.636474
    10  O    4.528737   6.018335   5.287090   5.392748   2.758279
    11  O    4.517553   5.288079   6.008811   5.353024   2.702144
    12  O    4.238816   5.016628   4.952085   5.853639   2.604362
    13  O    4.267877   2.692159   5.305858   4.246356   5.673259
    14  O    3.748522   2.690866   3.659736   4.150646   5.584831
    15  O    4.563473   2.723360   5.026119   5.553918   5.792595
    16  O    4.633238   5.376514   5.252073   2.699407   5.882693
    17  O    3.681569   3.849056   3.707895   2.690334   5.547294
    18  O    4.084125   3.794666   5.189927   2.731713   5.506936
    19  O    3.949592   4.776604   2.603277   3.843677   5.605749
    20  O    4.707712   5.632981   2.757268   5.533342   5.806048
    21  O    4.161190   4.110248   2.717068   5.071818   5.756119
    22  H    5.173308   5.973221   5.780436   6.744624   3.485294
    23  H    4.992856   6.503777   5.901968   5.542897   3.270579
    24  H    4.443273   4.872664   6.100235   5.265011   2.871425
    25  H    4.115422   2.916260   5.255219   3.665572   5.548201
    26  H    4.851315   2.967274   5.542470   5.942375   5.793494
    27  H    3.797060   3.074805   3.731002   3.730478   5.726886
    28  H    5.233540   5.964217   3.308494   6.274196   6.240801
    29  H    3.942865   3.503321   2.931094   4.771787   5.662039
    30  H    4.912505   5.681211   3.472834   4.733894   6.537991
    31  H    4.818055   4.605663   6.031579   3.303931   6.043144
    32  H    4.655322   5.710153   5.238621   2.747640   5.672016
    33  H    3.652796   4.131148   3.198770   2.904004   5.504500
                    6          7          8          9         10
     6  Si   0.000000
     7  Si   4.648172   0.000000
     8  Si   4.075701   4.583910   0.000000
     9  Si   6.402241   6.309291   6.366846   0.000000
    10  O    7.020287   6.788707   7.672502   1.650280   0.000000
    11  O    6.864775   7.645338   6.865561   1.657325   2.629809
    12  O    7.427962   6.417797   6.575766   1.651296   2.675090
    13  O    3.908851   5.868246   1.640620   7.087163   8.393247
    14  O    3.897377   3.573058   1.664822   7.141516   8.229137
    15  O    5.712725   5.402874   1.639901   7.038818   8.469382
    16  O    1.649216   5.718645   5.714070   7.260358   7.581348
    17  O    1.650971   3.704631   3.697116   7.166405   7.831333
    18  O    1.663429   5.809137   3.698006   6.981830   7.854407
    19  O    3.818898   1.683194   5.018568   7.068067   7.405137
    20  O    6.091319   1.645645   6.143920   6.909260   7.106557
    21  O    5.286667   1.636375   4.010804   7.138239   7.887597
    22  H    8.339499   7.194890   7.517258   2.257645   2.830897
    23  H    7.123392   7.410242   8.147433   2.246991   0.963876
    24  H    6.672305   7.723334   6.358473   2.266954   3.512071
    25  H    3.136510   5.865943   2.251909   6.999602   8.191201
    26  H    6.241368   6.108070   2.251066   6.882186   8.403598
    27  H    3.168693   3.583889   2.240697   7.341424   8.312465
    28  H    6.861735   2.242616   6.406342   7.254677   7.519237
    29  H    4.851553   2.247350   3.129452   7.120957   8.024688
    30  H    4.539972   2.267845   5.783493   7.965758   8.221280
    31  H    2.262111   6.699031   4.554748   7.418916   8.232298
    32  H    2.251969   5.804626   6.276159   6.933719   7.060829
    33  H    2.274816   2.943116   4.144674   7.097869   7.632617
                   11         12         13         14         15
    11  O    0.000000
    12  O    2.780798   0.000000
    13  O    7.261119   7.550671   0.000000
    14  O    7.903649   7.342035   2.743115   0.000000
    15  O    7.529503   6.889220   2.707581   2.618195   0.000000
    16  O    7.637646   8.477146   5.391706   5.442990   7.352282
    17  O    7.877886   7.912748   3.884235   2.870429   5.211882
    18  O    7.136093   7.971515   2.883751   3.953455   5.266736
    19  O    8.260834   7.511330   5.933388   3.828043   6.159409
    20  O    8.415381   6.837260   7.492554   5.134915   6.787033
    21  O    8.379620   7.019492   5.433885   2.812034   4.446440
    22  H    3.158986   0.963642   8.495612   8.275002   7.760840
    23  H    2.671729   3.501100   8.711289   8.738606   9.044484
    24  H    0.963444   3.175851   6.637816   7.543437   6.963431
    25  H    7.130716   7.664202   0.973991   3.057265   3.589994
    26  H    7.222838   6.660066   3.036537   3.511513   0.962719
    27  H    8.076507   7.732236   2.855734   0.975792   3.478490
    28  H    8.792707   6.963702   7.860578   5.421604   6.823394
    29  H    8.214317   7.071704   4.525959   1.869458   3.595648
    30  H    9.192869   8.369850   6.673131   4.439581   6.851155
    31  H    7.399416   8.526102   3.540252   4.896503   6.072934
    32  H    7.344726   8.227822   6.087524   6.033112   7.904563
    33  H    7.991445   7.769185   4.635243   3.104629   5.557018
                   16         17         18         19         20
    16  O    0.000000
    17  O    2.780826   0.000000
    18  O    2.678490   2.586162   0.000000
    19  O    4.559834   2.746232   5.173774   0.000000
    20  O    6.953311   5.194711   7.375751   2.666385   0.000000
    21  O    6.576170   4.082221   6.079254   2.765291   2.655020
    22  H    9.330080   8.838834   8.906280   8.319646   7.462902
    23  H    7.511102   8.097527   7.927130   7.854539   7.784523
    24  H    7.550348   7.689705   6.729219   8.333167   8.641839
    25  H    4.521409   3.370313   1.934557   5.695073   7.505972
    26  H    7.872472   5.941086   5.687484   6.934891   7.450177
    27  H    4.622342   1.979964   3.330344   3.397265   5.183147
    28  H    7.822274   5.905449   8.046042   3.488878   0.964036
    29  H    6.261689   3.642439   5.417543   3.074131   3.551083
    30  H    5.093292   3.343533   5.879943   0.965396   2.786475
    31  H    2.717183   3.387464   0.963767   5.975930   8.233774
    32  H    0.963559   3.404778   3.452348   4.675169   6.887549
    33  H    3.181302   0.983662   3.499423   1.782053   4.324215
                   21         22         23         24         25
    21  O    0.000000
    22  H    7.818978   0.000000
    23  H    8.567105   3.622176   0.000000
    24  H    8.305195   3.668310   3.584468   0.000000
    25  H    5.667351   8.616052   8.421443   6.552756   0.000000
    26  H    5.240596   7.493373   8.970276   6.585889   3.938208
    27  H    3.142859   8.676741   8.742821   7.751269   2.863591
    28  H    2.712983   7.538672   8.268846   9.003923   7.983169
    29  H    0.979622   7.926834   8.664790   8.032619   4.818829
    30  H    3.135266   9.149416   8.667661   9.287116   6.439863
    31  H    7.031392   9.437418   8.198442   6.976460   2.567286
    32  H    6.860845   9.029180   6.927329   7.370752   5.244071
    33  H    3.545633   8.663009   7.953449   7.906051   4.221896
                   26         27         28         29         30
    26  H    0.000000
    27  H    4.328364   0.000000
    28  H    7.462092   5.616760   0.000000
    29  H    4.445807   2.336828   3.672889   0.000000
    30  H    7.674084   3.980687   3.560065   3.552426   0.000000
    31  H    6.419854   4.264482   8.936328   6.379499   6.650595
    32  H    8.390781   5.266087   7.792470   6.658181   5.210527
    33  H    6.321294   2.334325   5.080958   3.328354   2.383563
                   31         32         33
    31  H    0.000000
    32  H    3.471830   0.000000
    33  H    4.284870   3.592589   0.000000
 Stoichiometry    H12O16Si4Zr
 Framework group  C1[X(H12O16Si4Zr)]
 Deg. of freedom    93
 Full point group                 C1      NOp   1
 Largest Abelian subgroup         C1      NOp   1
 Largest concise Abelian subgroup C1      NOp   1
                         Standard orientation:                         
 ---------------------------------------------------------------------
 Center     Atomic      Atomic             Coordinates (Angstroms)
 Number     Number       Type             X           Y           Z
 ---------------------------------------------------------------------
      1         40           0        0.653313   -0.026887   -0.063886
      2          8           0       -0.179532   -0.835917    1.497077
      3          8           0       -0.041955    1.794604   -0.174834
      4          8           0       -0.177937   -0.998221   -1.573266
      5          8           0        2.610939   -0.181293   -0.065526
      6         14           0       -1.703085   -1.508895   -1.901705
      7         14           0       -1.336632    2.798831   -0.194451
      8         14           0       -1.676643   -1.122170    2.155521
      9         14           0        4.243908   -0.136074    0.031510
     10          8           0        4.978137    0.553573   -1.275669
     11          8           0        4.856068   -1.673821    0.117067
     12          8           0        4.561252    0.798538    1.355358
     13          8           0       -2.136162   -2.658545    1.809072
     14          8           0       -2.735436    0.004573    1.538239
     15          8           0       -1.674815   -0.852851    3.773155
     16          8           0       -1.862762   -1.829680   -3.511523
     17          8           0       -2.791932   -0.423791   -1.299484
     18          8           0       -2.074432   -2.897256   -1.064119
     19          8           0       -2.224980    2.254507   -1.516454
     20          8           0       -0.964541    4.372602   -0.499311
     21          8           0       -2.182313    2.741493    1.205285
     22          1           0        5.463227    1.122867    1.454637
     23          1           0        5.269583   -0.052706   -1.965990
     24          1           0        4.396060   -2.301400    0.685188
     25          1           0       -2.125236   -2.915625    0.869684
     26          1           0       -1.022177   -1.325753    4.299706
     27          1           0       -3.070894   -0.221605    0.650275
     28          1           0       -0.920659    4.953248    0.268992
     29          1           0       -2.429988    1.848853    1.523891
     30          1           0       -2.888407    2.873265   -1.846594
     31          1           0       -2.052722   -3.718720   -1.567680
     32          1           0       -1.163316   -1.502768   -4.088021
     33          1           0       -2.650464    0.524001   -1.521449
 ---------------------------------------------------------------------
 Rotational constants (GHZ):           0.2112165           0.1334175           0.1233820
 General basis read from cards:  (5D, 7F)
 ======================================================================================================
                                       Pseudopotential Parameters
 ======================================================================================================
  Center     Atomic      Valence      Angular      Power
  Number     Number     Electrons     Momentum     of R      Exponent        Coefficient   SO-Coeffient
 ======================================================================================================
    1         40           12
                                      G and up 
                                                     2        1.0000000        0.00000000    0.00000000
                                      S - G
                                                     2        8.6365280      150.24299400    0.00000000
                                                     2        3.7176390       18.78003600    0.00000000
                                      P - G
                                                     2        7.6267280       33.19279100    0.00000000
                                                     2        7.4532070       66.38903900    0.00000000
                                                     2        3.3583890        4.62072600    0.00000000
                                                     2        3.2297380        9.26027000    0.00000000
                                      D - G
                                                     2        5.9380860       13.99338300    0.00000000
                                                     2        5.8255440       20.99588200    0.00000000
                                                     2        2.2050190        2.28516600    0.00000000
                                                     2        2.2062920        3.44126000    0.00000000
                                      F - G
                                                     2        4.8002150       -5.23932000    0.00000000
                                                     2        4.7989920       -6.98742400    0.00000000
    2          8
                                   No pseudopotential on this center.
    3          8
                                   No pseudopotential on this center.
    4          8
                                   No pseudopotential on this center.
    5          8
                                   No pseudopotential on this center.
    6         14
                                   No pseudopotential on this center.
    7         14
                                   No pseudopotential on this center.
    8         14
                                   No pseudopotential on this center.
    9         14
                                   No pseudopotential on this center.
   10          8
                                   No pseudopotential on this center.
   11          8
                                   No pseudopotential on this center.
   12          8
                                   No pseudopotential on this center.
   13          8
                                   No pseudopotential on this center.
   14          8
                                   No pseudopotential on this center.
   15          8
                                   No pseudopotential on this center.
   16          8
                                   No pseudopotential on this center.
   17          8
                                   No pseudopotential on this center.
   18          8
                                   No pseudopotential on this center.
   19          8
                                   No pseudopotential on this center.
   20          8
                                   No pseudopotential on this center.
   21          8
                                   No pseudopotential on this center.
   22          1
                                   No pseudopotential on this center.
   23          1
                                   No pseudopotential on this center.
   24          1
                                   No pseudopotential on this center.
   25          1
                                   No pseudopotential on this center.
   26          1
                                   No pseudopotential on this center.
   27          1
                                   No pseudopotential on this center.
   28          1
                                   No pseudopotential on this center.
   29          1
                                   No pseudopotential on this center.
   30          1
                                   No pseudopotential on this center.
   31          1
                                   No pseudopotential on this center.
   32          1
                                   No pseudopotential on this center.
   33          1
                                   No pseudopotential on this center.
 ======================================================================================================
 There are   570 symmetry adapted cartesian basis functions of A   symmetry.
 There are   524 symmetry adapted basis functions of A   symmetry.
   524 basis functions,  1074 primitive gaussians,   570 cartesian basis functions
   104 alpha electrons      104 beta electrons
       nuclear repulsion energy      2829.5490212133 Hartrees.
 NAtoms=   33 NActive=   33 NUniq=   33 SFac= 1.00D+00 NAtFMM=   60 NAOKFM=F Big=F
 Integral buffers will be    131072 words long.
 Raffenetti 2 integral format.
 Two-electron integral symmetry is turned on.
 Nuclear repulsion after empirical dispersion term =     2829.5082427341 Hartrees.
 One-electron integrals computed using PRISM.
 PrsmSu:  requested number of processors reduced to:   4 ShMem   1 Linda.
   1 Symmetry operations used in ECPInt.
 ECPInt:  NShTT=   13203 NPrTT=   78401 LenC2=   11519 LenP2D=   44651.
 LDataN:  DoStor=T MaxTD1= 8 Len=  415
 Number of processors reduced to  13 by ecpmxn.
 NBasis=   524 RedAO= T EigKep=  3.24D-05  NBF=   524
 NBsUse=   524 1.00D-06 EigRej= -1.00D+00 NBFU=   524
 Defaulting to unpruned grid for atomic number  40.
 ExpMin= 1.01D-02 ExpMax= 1.61D+04 ExpMxC= 2.43D+03 IAcc=3 IRadAn=         5 AccDes= 0.00D+00
 Harris functional with IExCor=  402 and IRadAn=       5 diagonalized for initial guess.
 HarFok:  IExCor=  402 AccDes= 0.00D+00 IRadAn=         5 IDoV= 1 UseB2=F ITyADJ=14
 ICtDFT=  3500011 ScaDFX=  1.000000  1.000000  1.000000  1.000000
 Defaulting to unpruned grid for atomic number  40.
 FoFCou: FMM=F IPFlag=           0 FMFlag=      100000 FMFlg1=           0
         NFxFlg=           0 DoJE=T BraDBF=F KetDBF=T FulRan=T
         wScrn=  0.000000 ICntrl=       500 IOpCl=  0 I1Cent=   200000004 NGrid=           0
         NMat0=    1 NMatS0=      1 NMatT0=    0 NMatD0=    1 NMtDS0=    0 NMtDT0=    0
 Petite list used in FoFCou.
 Requested convergence on RMS density matrix=1.00D-08 within 128 cycles.
 Requested convergence on MAX density matrix=1.00D-06.
 Requested convergence on             energy=1.00D-06.
 No special actions if energy rises.
 Defaulting to unpruned grid for atomic number  40.
 Defaulting to unpruned grid for atomic number  40.
 Defaulting to unpruned grid for atomic number  40.
 Defaulting to unpruned grid for atomic number  40.
 Defaulting to unpruned grid for atomic number  40.
 Defaulting to unpruned grid for atomic number  40.
 Defaulting to unpruned grid for atomic number  40.
 Defaulting to unpruned grid for atomic number  40.
 Defaulting to unpruned grid for atomic number  40.
 Defaulting to unpruned grid for atomic number  40.
 Defaulting to unpruned grid for atomic number  40.
 Defaulting to unpruned grid for atomic number  40.
 Defaulting to unpruned grid for atomic number  40.
 Defaulting to unpruned grid for atomic number  40.
 Defaulting to unpruned grid for atomic number  40.
 Defaulting to unpruned grid for atomic number  40.
 SCF Done:  E(RB3LYP) =  -2416.94557128     A.U. after   14 cycles
            NFock= 14  Conv=0.35D-08     -V/T= 2.0185

 **********************************************************************

            Population analysis using the SCF Density.

 **********************************************************************

 Orbital symmetries:
       Occupied  (A) (A) (A) (A) (A) (A) (A) (A) (A) (A) (A) (A)
                 (A) (A) (A) (A) (A) (A) (A) (A) (A) (A) (A) (A)
                 (A) (A) (A) (A) (A) (A) (A) (A) (A) (A) (A) (A)
                 (A) (A) (A) (A) (A) (A) (A) (A) (A) (A) (A) (A)
                 (A) (A) (A) (A) (A) (A) (A) (A) (A) (A) (A) (A)
                 (A) (A) (A) (A) (A) (A) (A) (A) (A) (A) (A) (A)
                 (A) (A) (A) (A) (A) (A) (A) (A) (A) (A) (A) (A)
                 (A) (A) (A) (A) (A) (A) (A) (A) (A) (A) (A) (A)
                 (A) (A) (A) (A) (A) (A) (A) (A)
       Virtual   (A) (A) (A) (A) (A) (A) (A) (A) (A) (A) (A) (A)
                 (A) (A) (A) (A) (A) (A) (A) (A) (A) (A) (A) (A)
                 (A) (A) (A) (A) (A) (A) (A) (A) (A) (A) (A) (A)
                 (A) (A) (A) (A) (A) (A) (A) (A) (A) (A) (A) (A)
                 (A) (A) (A) (A) (A) (A) (A) (A) (A) (A) (A) (A)
                 (A) (A) (A) (A) (A) (A) (A) (A) (A) (A) (A) (A)
                 (A) (A) (A) (A) (A) (A) (A) (A) (A) (A) (A) (A)
                 (A) (A) (A) (A) (A) (A) (A) (A) (A) (A) (A) (A)
                 (A) (A) (A) (A) (A) (A) (A) (A) (A) (A) (A) (A)
                 (A) (A) (A) (A) (A) (A) (A) (A) (A) (A) (A) (A)
                 (A) (A) (A) (A) (A) (A) (A) (A) (A) (A) (A) (A)
                 (A) (A) (A) (A) (A) (A) (A) (A) (A) (A) (A) (A)
                 (A) (A) (A) (A) (A) (A) (A) (A) (A) (A) (A) (A)
                 (A) (A) (A) (A) (A) (A) (A) (A) (A) (A) (A) (A)
                 (A) (A) (A) (A) (A) (A) (A) (A) (A) (A) (A) (A)
                 (A) (A) (A) (A) (A) (A) (A) (A) (A) (A) (A) (A)
                 (A) (A) (A) (A) (A) (A) (A) (A) (A) (A) (A) (A)
                 (A) (A) (A) (A) (A) (A) (A) (A) (A) (A) (A) (A)
                 (A) (A) (A) (A) (A) (A) (A) (A) (A) (A) (A) (A)
                 (A) (A) (A) (A) (A) (A) (A) (A) (A) (A) (A) (A)
                 (A) (A) (A) (A) (A) (A) (A) (A) (A) (A) (A) (A)
                 (A) (A) (A) (A) (A) (A) (A) (A) (A) (A) (A) (A)
                 (A) (A) (A) (A) (A) (A) (A) (A) (A) (A) (A) (A)
                 (A) (A) (A) (A) (A) (A) (A) (A) (A) (A) (A) (A)
                 (A) (A) (A) (A) (A) (A) (A) (A) (A) (A) (A) (A)
                 (A) (A) (A) (A) (A) (A) (A) (A) (A) (A) (A) (A)
                 (A) (A) (A) (A) (A) (A) (A) (A) (A) (A) (A) (A)
                 (A) (A) (A) (A) (A) (A) (A) (A) (A) (A) (A) (A)
                 (A) (A) (A) (A) (A) (A) (A) (A) (A) (A) (A) (A)
                 (A) (A) (A) (A) (A) (A) (A) (A) (A) (A) (A) (A)
                 (A) (A) (A) (A) (A) (A) (A) (A) (A) (A) (A) (A)
                 (A) (A) (A) (A) (A) (A) (A) (A) (A) (A) (A) (A)
                 (A) (A) (A) (A) (A) (A) (A) (A) (A) (A) (A) (A)
                 (A) (A) (A) (A) (A) (A) (A) (A) (A) (A) (A) (A)
                 (A) (A) (A) (A) (A) (A) (A) (A) (A) (A) (A) (A)
 The electronic state is 1-A.
 Alpha  occ. eigenvalues --  -66.22876 -66.21792 -66.21639 -66.21101 -19.18612
 Alpha  occ. eigenvalues --  -19.18389 -19.17880 -19.17033 -19.16805 -19.16745
 Alpha  occ. eigenvalues --  -19.16587 -19.16248 -19.16241 -19.16123 -19.16053
 Alpha  occ. eigenvalues --  -19.15591 -19.15422 -19.15400 -19.14914 -19.14696
 Alpha  occ. eigenvalues --   -5.36935  -5.35872  -5.35706  -5.35160  -3.72921
 Alpha  occ. eigenvalues --   -3.72897  -3.72841  -3.71863  -3.71817  -3.71782
 Alpha  occ. eigenvalues --   -3.71675  -3.71670  -3.71627  -3.71141  -3.71121
 Alpha  occ. eigenvalues --   -3.71068  -2.13479  -1.29693  -1.29641  -1.29480
 Alpha  occ. eigenvalues --   -1.05723  -1.04808  -1.04297  -1.03584  -1.02619
 Alpha  occ. eigenvalues --   -1.02198  -1.01506  -1.01096  -1.00864  -1.00757
 Alpha  occ. eigenvalues --   -0.99869  -0.99406  -0.97434  -0.96375  -0.95793
 Alpha  occ. eigenvalues --   -0.95380  -0.60990  -0.59200  -0.59122  -0.59010
 Alpha  occ. eigenvalues --   -0.55639  -0.54567  -0.54021  -0.53149  -0.53118
 Alpha  occ. eigenvalues --   -0.52647  -0.51925  -0.50249  -0.48750  -0.47963
 Alpha  occ. eigenvalues --   -0.47518  -0.47189  -0.43461  -0.42927  -0.41903
 Alpha  occ. eigenvalues --   -0.41517  -0.41230  -0.40683  -0.39894  -0.39511
 Alpha  occ. eigenvalues --   -0.39022  -0.38895  -0.38646  -0.38274  -0.38091
 Alpha  occ. eigenvalues --   -0.37653  -0.37529  -0.37166  -0.36536  -0.36370
 Alpha  occ. eigenvalues --   -0.36215  -0.35823  -0.35508  -0.35225  -0.34962
 Alpha  occ. eigenvalues --   -0.34531  -0.34144  -0.33814  -0.33618  -0.33123
 Alpha  occ. eigenvalues --   -0.32672  -0.32239  -0.32052  -0.31386
 Alpha virt. eigenvalues --   -0.04504  -0.03289  -0.03090  -0.02901  -0.02142
 Alpha virt. eigenvalues --   -0.01452  -0.00675  -0.00415  -0.00025   0.00253
 Alpha virt. eigenvalues --    0.00620   0.00793   0.00928   0.01755   0.02160
 Alpha virt. eigenvalues --    0.03135   0.03265   0.03782   0.03879   0.04040
 Alpha virt. eigenvalues --    0.04157   0.04769   0.05772   0.05848   0.06194
 Alpha virt. eigenvalues --    0.06195   0.07213   0.07412   0.07646   0.08341
 Alpha virt. eigenvalues --    0.08507   0.08761   0.08992   0.09437   0.09548
 Alpha virt. eigenvalues --    0.10173   0.10675   0.10826   0.11071   0.11602
 Alpha virt. eigenvalues --    0.11743   0.12455   0.13117   0.13305   0.13858
 Alpha virt. eigenvalues --    0.13919   0.14268   0.14739   0.15073   0.15244
 Alpha virt. eigenvalues --    0.15473   0.15898   0.16205   0.16535   0.16716
 Alpha virt. eigenvalues --    0.17077   0.17274   0.17660   0.17862   0.18498
 Alpha virt. eigenvalues --    0.18585   0.18784   0.18874   0.19312   0.19583
 Alpha virt. eigenvalues --    0.19753   0.20174   0.20796   0.21063   0.21236
 Alpha virt. eigenvalues --    0.21374   0.21793   0.22030   0.22443   0.22947
 Alpha virt. eigenvalues --    0.23581   0.23775   0.23987   0.24148   0.24526
 Alpha virt. eigenvalues --    0.24992   0.25285   0.25402   0.25778   0.26029
 Alpha virt. eigenvalues --    0.26170   0.26620   0.26745   0.27200   0.27537
 Alpha virt. eigenvalues --    0.27808   0.28166   0.28319   0.28720   0.28977
 Alpha virt. eigenvalues --    0.29275   0.29793   0.30047   0.30096   0.30267
 Alpha virt. eigenvalues --    0.30649   0.30802   0.31233   0.31355   0.32074
 Alpha virt. eigenvalues --    0.32357   0.32534   0.33122   0.33746   0.33992
 Alpha virt. eigenvalues --    0.34388   0.34680   0.35399   0.35998   0.36212
 Alpha virt. eigenvalues --    0.36535   0.37528   0.38029   0.38542   0.38726
 Alpha virt. eigenvalues --    0.39484   0.39712   0.40473   0.40941   0.41216
 Alpha virt. eigenvalues --    0.41865   0.42195   0.43465   0.43717   0.44292
 Alpha virt. eigenvalues --    0.45146   0.45568   0.45948   0.46288   0.46980
 Alpha virt. eigenvalues --    0.47453   0.47784   0.48538   0.48789   0.49154
 Alpha virt. eigenvalues --    0.49674   0.50120   0.51019   0.52183   0.52567
 Alpha virt. eigenvalues --    0.53362   0.54360   0.55090   0.56590   0.57214
 Alpha virt. eigenvalues --    0.58227   0.58794   0.59119   0.59715   0.60040
 Alpha virt. eigenvalues --    0.61232   0.61819   0.62164   0.63063   0.66174
 Alpha virt. eigenvalues --    0.66498   0.67208   0.67893   0.69166   0.69729
 Alpha virt. eigenvalues --    0.70451   0.71024   0.72204   0.74229   0.75038
 Alpha virt. eigenvalues --    0.75284   0.77125   0.78419   0.78793   0.80469
 Alpha virt. eigenvalues --    0.80970   0.81769   0.83096   0.83666   0.85126
 Alpha virt. eigenvalues --    0.86690   0.87636   0.89441   0.90524   0.90939
 Alpha virt. eigenvalues --    0.93484   0.95623   0.96416   0.96661   0.97398
 Alpha virt. eigenvalues --    0.98391   0.98936   0.98978   0.99194   0.99564
 Alpha virt. eigenvalues --    1.00627   1.01112   1.02098   1.03149   1.03609
 Alpha virt. eigenvalues --    1.04358   1.04617   1.05288   1.06822   1.07893
 Alpha virt. eigenvalues --    1.09363   1.12759   1.15245   1.16160   1.16740
 Alpha virt. eigenvalues --    1.18534   1.18811   1.19991   1.20137   1.20693
 Alpha virt. eigenvalues --    1.21619   1.21873   1.22240   1.22528   1.23462
 Alpha virt. eigenvalues --    1.23587   1.23727   1.24153   1.25244   1.25586
 Alpha virt. eigenvalues --    1.25692   1.26152   1.27396   1.27797   1.27936
 Alpha virt. eigenvalues --    1.28694   1.29566   1.29872   1.30557   1.31313
 Alpha virt. eigenvalues --    1.31684   1.32707   1.33185   1.33770   1.34717
 Alpha virt. eigenvalues --    1.35438   1.36254   1.36505   1.37127   1.38240
 Alpha virt. eigenvalues --    1.39056   1.39752   1.40167   1.40800   1.41517
 Alpha virt. eigenvalues --    1.41639   1.42473   1.42987   1.44348   1.45266
 Alpha virt. eigenvalues --    1.47658   1.49236   1.50229   1.52617   1.53229
 Alpha virt. eigenvalues --    1.56391   1.57531   1.58035   1.58557   1.59902
 Alpha virt. eigenvalues --    1.60289   1.60932   1.61504   1.61978   1.63031
 Alpha virt. eigenvalues --    1.63572   1.63731   1.64872   1.65834   1.66379
 Alpha virt. eigenvalues --    1.66904   1.67949   1.68916   1.69517   1.69975
 Alpha virt. eigenvalues --    1.70438   1.71088   1.71868   1.72285   1.73472
 Alpha virt. eigenvalues --    1.74571   1.74945   1.75192   1.75638   1.76314
 Alpha virt. eigenvalues --    1.76615   1.77241   1.78414   1.79191   1.80069
 Alpha virt. eigenvalues --    1.80647   1.81300   1.81986   1.82287   1.83203
 Alpha virt. eigenvalues --    1.83305   1.83886   1.85319   1.85593   1.86234
 Alpha virt. eigenvalues --    1.87812   1.88507   1.88834   1.89438   1.90151
 Alpha virt. eigenvalues --    1.90936   1.91784   1.91850   1.92958   1.93152
 Alpha virt. eigenvalues --    1.93864   1.95324   1.96892   1.97138   1.97712
 Alpha virt. eigenvalues --    1.98841   1.99841   2.00471   2.01948   2.04976
 Alpha virt. eigenvalues --    2.05865   2.06766   2.09386   2.09976   2.10494
 Alpha virt. eigenvalues --    2.11922   2.13384   2.14393   2.14936   2.16122
 Alpha virt. eigenvalues --    2.17228   2.18114   2.19802   2.20644   2.28974
 Alpha virt. eigenvalues --    2.31637   2.33060   2.35770   2.39440   2.40264
 Alpha virt. eigenvalues --    2.40756   2.41248   2.41540   2.42901   2.43870
 Alpha virt. eigenvalues --    2.43999   2.45094   2.46693   2.47778   2.48871
 Alpha virt. eigenvalues --    2.49502   2.50555   2.50816   2.52525   2.53572
 Alpha virt. eigenvalues --    2.54574   2.56936   2.58406   2.59939   2.60779
 Alpha virt. eigenvalues --    2.60976   2.61712   2.61959   2.62241   2.62630
 Alpha virt. eigenvalues --    2.63061   2.63487   2.64301   2.65132   2.65558
 Alpha virt. eigenvalues --    2.65832   2.66198   2.66899   2.67430   2.67829
 Alpha virt. eigenvalues --    2.69013   2.69692   2.71134   2.71858   2.72342
 Alpha virt. eigenvalues --    2.73396   2.74566   2.75539   2.76475   2.77952
 Alpha virt. eigenvalues --    2.79582   2.80390   2.80834   2.82876   2.83186
 Alpha virt. eigenvalues --    2.83950   2.84789   2.86303   2.87501   2.88095
 Alpha virt. eigenvalues --    3.14634   3.21244   3.36647   3.41049   3.46870
 Alpha virt. eigenvalues --    3.47669   3.47994   3.48741   3.48845   3.52176
 Alpha virt. eigenvalues --    3.53005   3.53737   3.59949   3.61133   3.62103
 Alpha virt. eigenvalues --    3.65856   4.28815   4.57940   8.05314  31.31048
          Condensed to atoms (all electrons):
               1          2          3          4          5          6
     1  Zr  14.653257  -0.006213  -0.025671  -0.066766  -0.184338  -0.670097
     2  O   -0.006213   8.872153   0.019562  -0.045000  -0.059734   0.063316
     3  O   -0.025671   0.019562   8.863946   0.018849  -0.057155   0.002268
     4  O   -0.066766  -0.045000   0.018849   8.829299  -0.054340  -0.728241
     5  O   -0.184338  -0.059734  -0.057155  -0.054340   9.479677  -0.016276
     6  Si  -0.670097   0.063316   0.002268  -0.728241  -0.016276  14.201303
     7  Si  -0.526655  -0.026372  -0.877167  -0.015367  -0.040941   0.072426
     8  Si  -0.637385  -0.809841  -0.006443   0.054169  -0.022338   0.036176
     9  Si  -0.208531  -0.045238  -0.043706  -0.039541  -1.201062   0.028915
    10  O   -0.018593   0.001338   0.000473   0.000728   0.130371  -0.001261
    11  O   -0.059712   0.002548   0.003065   0.002108   0.310421  -0.000364
    12  O    0.032754   0.001351   0.002441   0.001985   0.134518  -0.002641
    13  O   -0.028116   0.254645   0.001920  -0.016876  -0.000047   0.042305
    14  O   -0.006081   0.263057  -0.015010  -0.000843   0.002687  -0.003115
    15  O   -0.050883   0.266311   0.000011   0.002751   0.000892  -0.008824
    16  O   -0.142957   0.005654  -0.000365   0.351723   0.003457  -0.438727
    17  O   -0.016012  -0.041508   0.011762   0.213529   0.001588  -0.487114
    18  O   -0.000152  -0.018717   0.004135   0.191197  -0.000636  -0.477775
    19  O    0.001063   0.008406   0.258682   0.009489   0.002413  -0.004083
    20  O   -0.140963  -0.000698   0.170071  -0.000752   0.001980   0.008996
    21  O    0.024464   0.010610   0.148455   0.003340   0.000069  -0.009164
    22  H   -0.004809  -0.000009  -0.000006  -0.000006   0.006619   0.000051
    23  H   -0.008401  -0.000008  -0.000007  -0.000025  -0.024218   0.000132
    24  H   -0.005167  -0.000123  -0.000018  -0.000006  -0.003498   0.000174
    25  H    0.024042  -0.022036  -0.000150  -0.000497  -0.000034  -0.001276
    26  H   -0.007475  -0.012961   0.000024  -0.000011  -0.000021   0.000346
    27  H   -0.003696  -0.020436   0.000698  -0.001745   0.000017   0.013126
    28  H    0.004914  -0.000011  -0.019022  -0.000012  -0.000015  -0.000239
    29  H    0.001735  -0.005443  -0.020232  -0.000209  -0.000081   0.000820
    30  H    0.000898  -0.000015   0.000306  -0.000473  -0.000011  -0.000882
    31  H    0.001481   0.000305  -0.000019  -0.017863  -0.000014   0.060780
    32  H    0.001972  -0.000025   0.000037   0.010719   0.000008   0.020768
    33  H   -0.014313   0.000964  -0.010291  -0.008953  -0.000105   0.050760
               7          8          9         10         11         12
     1  Zr  -0.526655  -0.637385  -0.208531  -0.018593  -0.059712   0.032754
     2  O   -0.026372  -0.809841  -0.045238   0.001338   0.002548   0.001351
     3  O   -0.877167  -0.006443  -0.043706   0.000473   0.003065   0.002441
     4  O   -0.015367   0.054169  -0.039541   0.000728   0.002108   0.001985
     5  O   -0.040941  -0.022338  -1.201062   0.130371   0.310421   0.134518
     6  Si   0.072426   0.036176   0.028915  -0.001261  -0.000364  -0.002641
     7  Si  13.760816   0.158093   0.014455   0.000356  -0.001424   0.002072
     8  Si   0.158093  13.839494   0.027772  -0.001206   0.000691  -0.001279
     9  Si   0.014455   0.027772  14.110973  -0.070309  -0.172380  -0.143816
    10  O    0.000356  -0.001206  -0.070309   8.511764   0.026598   0.020681
    11  O   -0.001424   0.000691  -0.172380   0.026598   8.485830  -0.047940
    12  O    0.002072  -0.001279  -0.143816   0.020681  -0.047940   8.585877
    13  O    0.004101  -0.133081   0.000775   0.000000   0.000008  -0.000012
    14  O    0.004728  -0.535421  -0.001548  -0.000004  -0.000002   0.000004
    15  O   -0.003913  -0.391981  -0.001436  -0.000002  -0.000006   0.000010
    16  O    0.003575  -0.007892  -0.000479   0.000002  -0.000016  -0.000003
    17  O   -0.012533   0.081288   0.001336   0.000002   0.000006  -0.000005
    18  O   -0.001134   0.075177   0.003441   0.000001   0.000030   0.000003
    19  O   -0.407809  -0.015219   0.000897   0.000002  -0.000002  -0.000018
    20  O   -0.119817   0.009555   0.002482   0.000012  -0.000002  -0.000022
    21  O    0.032180  -0.042474  -0.000852  -0.000002  -0.000001   0.000002
    22  H   -0.000030   0.000045   0.041287  -0.006426  -0.004557   0.221180
    23  H    0.000057   0.000058   0.080449   0.229596  -0.006173   0.005886
    24  H    0.000028   0.000145   0.029853   0.006835   0.246980  -0.007060
    25  H   -0.000403   0.053105  -0.000268  -0.000000  -0.000000  -0.000000
    26  H    0.000596   0.062719  -0.000106   0.000000   0.000000  -0.000001
    27  H    0.002434   0.081349   0.000071   0.000000  -0.000000   0.000000
    28  H    0.058247   0.000036  -0.000129   0.000000  -0.000000  -0.000000
    29  H    0.047427   0.023922  -0.000063   0.000000   0.000000  -0.000000
    30  H    0.040643  -0.000015   0.000012   0.000000   0.000000   0.000000
    31  H    0.000100  -0.002304  -0.000052   0.000000  -0.000000   0.000000
    32  H   -0.000538   0.000058   0.000071  -0.000000   0.000000  -0.000000
    33  H    0.021680  -0.000115   0.000059  -0.000000   0.000000   0.000000
              13         14         15         16         17         18
     1  Zr  -0.028116  -0.006081  -0.050883  -0.142957  -0.016012  -0.000152
     2  O    0.254645   0.263057   0.266311   0.005654  -0.041508  -0.018717
     3  O    0.001920  -0.015010   0.000011  -0.000365   0.011762   0.004135
     4  O   -0.016876  -0.000843   0.002751   0.351723   0.213529   0.191197
     5  O   -0.000047   0.002687   0.000892   0.003457   0.001588  -0.000636
     6  Si   0.042305  -0.003115  -0.008824  -0.438727  -0.487114  -0.477775
     7  Si   0.004101   0.004728  -0.003913   0.003575  -0.012533  -0.001134
     8  Si  -0.133081  -0.535421  -0.391981  -0.007892   0.081288   0.075177
     9  Si   0.000775  -0.001548  -0.001436  -0.000479   0.001336   0.003441
    10  O    0.000000  -0.000004  -0.000002   0.000002   0.000002   0.000001
    11  O    0.000008  -0.000002  -0.000006  -0.000016   0.000006   0.000030
    12  O   -0.000012   0.000004   0.000010  -0.000003  -0.000005   0.000003
    13  O    8.638120   0.025930  -0.112838   0.003912  -0.028506  -0.042599
    14  O    0.025930   8.816678   0.154968   0.002976  -0.028792  -0.022572
    15  O   -0.112838   0.154968   8.774579  -0.000167   0.003722   0.001230
    16  O    0.003912   0.002976  -0.000167   8.918267  -0.093785  -0.104411
    17  O   -0.028506  -0.028792   0.003722  -0.093785   8.940311   0.221138
    18  O   -0.042599  -0.022572   0.001230  -0.104411   0.221138   9.031058
    19  O    0.000204   0.002406   0.000325  -0.001164  -0.032350   0.000099
    20  O    0.000011  -0.000630   0.000014   0.000067  -0.000610   0.000008
    21  O   -0.000558   0.024504   0.000857  -0.000196  -0.005483   0.000406
    22  H   -0.000000  -0.000000   0.000000   0.000000   0.000000  -0.000000
    23  H    0.000000   0.000000   0.000000  -0.000000   0.000000   0.000000
    24  H   -0.000000   0.000000   0.000001   0.000000  -0.000000  -0.000001
    25  H    0.216624  -0.009562   0.007453  -0.000252   0.000654   0.015623
    26  H   -0.006575   0.001241   0.226071   0.000000  -0.000019   0.000012
    27  H   -0.004624   0.207203   0.000089   0.000258   0.018282  -0.000757
    28  H    0.000000  -0.000004  -0.000001  -0.000000   0.000002   0.000000
    29  H    0.000780   0.013583  -0.001349  -0.000003  -0.000731  -0.000004
    30  H    0.000001  -0.000040   0.000001   0.000101  -0.000559  -0.000007
    31  H    0.002393   0.000064  -0.000020   0.005150  -0.001247   0.217230
    32  H   -0.000007  -0.000006   0.000000   0.235209  -0.003456   0.003946
    33  H    0.000218   0.001875  -0.000050   0.000261   0.230474   0.002251
              19         20         21         22         23         24
     1  Zr   0.001063  -0.140963   0.024464  -0.004809  -0.008401  -0.005167
     2  O    0.008406  -0.000698   0.010610  -0.000009  -0.000008  -0.000123
     3  O    0.258682   0.170071   0.148455  -0.000006  -0.000007  -0.000018
     4  O    0.009489  -0.000752   0.003340  -0.000006  -0.000025  -0.000006
     5  O    0.002413   0.001980   0.000069   0.006619  -0.024218  -0.003498
     6  Si  -0.004083   0.008996  -0.009164   0.000051   0.000132   0.000174
     7  Si  -0.407809  -0.119817   0.032180  -0.000030   0.000057   0.000028
     8  Si  -0.015219   0.009555  -0.042474   0.000045   0.000058   0.000145
     9  Si   0.000897   0.002482  -0.000852   0.041287   0.080449   0.029853
    10  O    0.000002   0.000012  -0.000002  -0.006426   0.229596   0.006835
    11  O   -0.000002  -0.000002  -0.000001  -0.004557  -0.006173   0.246980
    12  O   -0.000018  -0.000022   0.000002   0.221180   0.005886  -0.007060
    13  O    0.000204   0.000011  -0.000558  -0.000000   0.000000  -0.000000
    14  O    0.002406  -0.000630   0.024504  -0.000000   0.000000   0.000000
    15  O    0.000325   0.000014   0.000857   0.000000   0.000000   0.000001
    16  O   -0.001164   0.000067  -0.000196   0.000000  -0.000000   0.000000
    17  O   -0.032350  -0.000610  -0.005483   0.000000   0.000000  -0.000000
    18  O    0.000099   0.000008   0.000406  -0.000000   0.000000  -0.000001
    19  O    8.873815   0.035156   0.021705  -0.000000   0.000000  -0.000000
    20  O    0.035156   8.662810  -0.054238   0.000000   0.000000  -0.000000
    21  O    0.021705  -0.054238   8.479046  -0.000000   0.000000   0.000000
    22  H   -0.000000   0.000000  -0.000000   0.364494   0.000063   0.000110
    23  H    0.000000   0.000000   0.000000   0.000063   0.351320   0.000024
    24  H   -0.000000  -0.000000   0.000000   0.000110   0.000024   0.367494
    25  H   -0.000034   0.000000  -0.000015   0.000000   0.000000   0.000000
    26  H    0.000000  -0.000000   0.000042  -0.000000   0.000000  -0.000000
    27  H   -0.000157   0.000215  -0.004605  -0.000000  -0.000000   0.000000
    28  H    0.004198   0.228751  -0.001761  -0.000000   0.000000   0.000000
    29  H   -0.008621   0.007962   0.208235   0.000000  -0.000000  -0.000000
    30  H    0.224162  -0.001612  -0.007106   0.000000  -0.000000  -0.000000
    31  H    0.000003  -0.000000  -0.000000  -0.000000   0.000000  -0.000000
    32  H    0.000103  -0.000000   0.000001  -0.000000  -0.000000  -0.000000
    33  H    0.013911  -0.000121   0.001438  -0.000000  -0.000000  -0.000000
              25         26         27         28         29         30
     1  Zr   0.024042  -0.007475  -0.003696   0.004914   0.001735   0.000898
     2  O   -0.022036  -0.012961  -0.020436  -0.000011  -0.005443  -0.000015
     3  O   -0.000150   0.000024   0.000698  -0.019022  -0.020232   0.000306
     4  O   -0.000497  -0.000011  -0.001745  -0.000012  -0.000209  -0.000473
     5  O   -0.000034  -0.000021   0.000017  -0.000015  -0.000081  -0.000011
     6  Si  -0.001276   0.000346   0.013126  -0.000239   0.000820  -0.000882
     7  Si  -0.000403   0.000596   0.002434   0.058247   0.047427   0.040643
     8  Si   0.053105   0.062719   0.081349   0.000036   0.023922  -0.000015
     9  Si  -0.000268  -0.000106   0.000071  -0.000129  -0.000063   0.000012
    10  O   -0.000000   0.000000   0.000000   0.000000   0.000000   0.000000
    11  O   -0.000000   0.000000  -0.000000  -0.000000   0.000000   0.000000
    12  O   -0.000000  -0.000001   0.000000  -0.000000  -0.000000   0.000000
    13  O    0.216624  -0.006575  -0.004624   0.000000   0.000780   0.000001
    14  O   -0.009562   0.001241   0.207203  -0.000004   0.013583  -0.000040
    15  O    0.007453   0.226071   0.000089  -0.000001  -0.001349   0.000001
    16  O   -0.000252   0.000000   0.000258  -0.000000  -0.000003   0.000101
    17  O    0.000654  -0.000019   0.018282   0.000002  -0.000731  -0.000559
    18  O    0.015623   0.000012  -0.000757   0.000000  -0.000004  -0.000007
    19  O   -0.000034   0.000000  -0.000157   0.004198  -0.008621   0.224162
    20  O    0.000000  -0.000000   0.000215   0.228751   0.007962  -0.001612
    21  O   -0.000015   0.000042  -0.004605  -0.001761   0.208235  -0.007106
    22  H    0.000000  -0.000000  -0.000000  -0.000000   0.000000   0.000000
    23  H    0.000000   0.000000  -0.000000   0.000000  -0.000000  -0.000000
    24  H    0.000000  -0.000000   0.000000   0.000000  -0.000000  -0.000000
    25  H    0.301411  -0.000033   0.000054   0.000000   0.000001   0.000000
    26  H   -0.000033   0.369213  -0.000036   0.000000   0.000018  -0.000000
    27  H    0.000054  -0.000036   0.284497  -0.000000  -0.000996   0.000010
    28  H    0.000000   0.000000  -0.000000   0.348662  -0.000015  -0.000009
    29  H    0.000001   0.000018  -0.000996  -0.000015   0.286303   0.000165
    30  H    0.000000  -0.000000   0.000010  -0.000009   0.000165   0.334044
    31  H   -0.000232   0.000000   0.000015   0.000000   0.000000  -0.000000
    32  H   -0.000001  -0.000000  -0.000000   0.000000  -0.000000  -0.000000
    33  H    0.000007   0.000000  -0.002512  -0.000002   0.000119  -0.001025
              31         32         33
     1  Zr   0.001481   0.001972  -0.014313
     2  O    0.000305  -0.000025   0.000964
     3  O   -0.000019   0.000037  -0.010291
     4  O   -0.017863   0.010719  -0.008953
     5  O   -0.000014   0.000008  -0.000105
     6  Si   0.060780   0.020768   0.050760
     7  Si   0.000100  -0.000538   0.021680
     8  Si  -0.002304   0.000058  -0.000115
     9  Si  -0.000052   0.000071   0.000059
    10  O    0.000000  -0.000000  -0.000000
    11  O   -0.000000   0.000000   0.000000
    12  O    0.000000  -0.000000   0.000000
    13  O    0.002393  -0.000007   0.000218
    14  O    0.000064  -0.000006   0.001875
    15  O   -0.000020   0.000000  -0.000050
    16  O    0.005150   0.235209   0.000261
    17  O   -0.001247  -0.003456   0.230474
    18  O    0.217230   0.003946   0.002251
    19  O    0.000003   0.000103   0.013911
    20  O   -0.000000  -0.000000  -0.000121
    21  O   -0.000000   0.000001   0.001438
    22  H   -0.000000  -0.000000  -0.000000
    23  H    0.000000  -0.000000  -0.000000
    24  H   -0.000000  -0.000000  -0.000000
    25  H   -0.000232  -0.000001   0.000007
    26  H    0.000000  -0.000000   0.000000
    27  H    0.000015  -0.000000  -0.002512
    28  H    0.000000   0.000000  -0.000002
    29  H    0.000000  -0.000000   0.000119
    30  H   -0.000000  -0.000000  -0.001025
    31  H    0.327258  -0.000010  -0.000036
    32  H   -0.000010   0.349226   0.000145
    33  H   -0.000036   0.000145   0.270657
 Mulliken charges:
               1
     1  Zr   0.086406
     2  O   -0.655833
     3  O   -0.431442
     4  O   -0.692358
     5  O   -0.409852
     6  Si   2.247414
     7  Si   1.810089
     8  Si   2.103144
     9  Si   1.586665
    10  O   -0.830955
    11  O   -0.785703
    12  O   -0.805967
    13  O   -0.818108
    14  O   -0.898272
    15  O   -0.867816
    16  O   -0.740195
    17  O   -0.971384
    18  O   -1.098217
    19  O   -0.987582
    20  O   -0.808623
    21  O   -0.828899
    22  H    0.381993
    23  H    0.371248
    24  H    0.364227
    25  H    0.415818
    26  H    0.366956
    27  H    0.431247
    28  H    0.376410
    29  H    0.446676
    30  H    0.411413
    31  H    0.407019
    32  H    0.381778
    33  H    0.442704
 Sum of Mulliken charges =  -0.00000
 Mulliken charges with hydrogens summed into heavy atoms:
               1
     1  Zr   0.086406
     2  O   -0.655833
     3  O   -0.431442
     4  O   -0.692358
     5  O   -0.409852
     6  Si   2.247414
     7  Si   1.810089
     8  Si   2.103144
     9  Si   1.586665
    10  O   -0.459707
    11  O   -0.421476
    12  O   -0.423974
    13  O   -0.402291
    14  O   -0.467026
    15  O   -0.500860
    16  O   -0.358417
    17  O   -0.528680
    18  O   -0.691198
    19  O   -0.576169
    20  O   -0.432214
    21  O   -0.382223
 Electronic spatial extent (au):  <R**2>=           9914.3173
 Charge=              0.0000 electrons
 Dipole moment (field-independent basis, Debye):
    X=              2.9364    Y=             -1.4585    Z=             -3.0309  Tot=              4.4650
 Quadrupole moment (field-independent basis, Debye-Ang):
   XX=           -167.7892   YY=           -154.0273   ZZ=           -157.8410
   XY=             -9.0231   XZ=             12.0292   YZ=              3.1260
 Traceless Quadrupole moment (field-independent basis, Debye-Ang):
   XX=             -7.9034   YY=              5.8585   ZZ=              2.0448
   XY=             -9.0231   XZ=             12.0292   YZ=              3.1260
 Octapole moment (field-independent basis, Debye-Ang**2):
  XXX=             85.6750  YYY=             -4.9206  ZZZ=            -31.9502  XYY=             -5.9604
  XXY=             31.2889  XXZ=            -24.3371  XZZ=             61.3494  YZZ=            -19.3744
  YYZ=             -1.5509  XYZ=             12.9771
 Hexadecapole moment (field-independent basis, Debye-Ang**3):
 XXXX=          -6051.6703 YYYY=          -2791.4430 ZZZZ=          -2243.2607 XXXY=             12.8540
 XXXZ=            161.4151 YYYX=            -40.3180 YYYZ=            206.2205 ZZZX=             11.8852
 ZZZY=            -89.4233 XXYY=          -1572.1735 XXZZ=          -1489.6057 YYZZ=           -949.7337
 XXYZ=             -0.1974 YYXZ=            150.9544 ZZXY=            -87.7056
 N-N= 2.829508242734D+03 E-N=-1.137145765050D+04  KE= 2.373146211664D+03
 PrsmSu:  requested number of processors reduced to:   2 ShMem   1 Linda.
 PrsmSu:  requested number of processors reduced to:  10 ShMem   1 Linda.
   1 Symmetry operations used in ECPInt.
 ECPInt:  NShTT=   13203 NPrTT=   78401 LenC2=   11519 LenP2D=   44651.
 LDataN:  DoStor=T MaxTD1= 9 Len=  602
 Number of processors reduced to  14 by ecpmxn.
 Calling FoFJK, ICntrl=      2127 FMM=F ISym2X=0 I1Cent= 0 IOpClX= 0 NMat=1 NMatS=1 NMatT=0.
 CoulSu:  requested number of processors reduced to:  10 ShMem   1 Linda.
 Defaulting to unpruned grid for atomic number  40.
 Defaulting to unpruned grid for atomic number  40.
 Defaulting to unpruned grid for atomic number  40.
 Defaulting to unpruned grid for atomic number  40.
 Defaulting to unpruned grid for atomic number  40.
 Defaulting to unpruned grid for atomic number  40.
 Defaulting to unpruned grid for atomic number  40.
 Defaulting to unpruned grid for atomic number  40.
 Defaulting to unpruned grid for atomic number  40.
 Defaulting to unpruned grid for atomic number  40.
 Defaulting to unpruned grid for atomic number  40.
 Defaulting to unpruned grid for atomic number  40.
 Defaulting to unpruned grid for atomic number  40.
 Defaulting to unpruned grid for atomic number  40.
 Defaulting to unpruned grid for atomic number  40.
 Defaulting to unpruned grid for atomic number  40.
 ***** Axes restored to original set *****
 -------------------------------------------------------------------
 Center     Atomic                   Forces (Hartrees/Bohr)
 Number     Number              X              Y              Z
 -------------------------------------------------------------------
      1       40           0.002454954   -0.000367810   -0.000149051
      2        8           0.000179976   -0.000032977   -0.000200515
      3        8          -0.000089127    0.000342815   -0.000035356
      4        8           0.000058237    0.000053419    0.000205929
      5        8          -0.001904486   -0.001122102   -0.000719921
      6       14          -0.000294941    0.000023091   -0.000076599
      7       14          -0.000056087    0.000159071   -0.000054132
      8       14          -0.000286565    0.000008802    0.000200907
      9       14          -0.000572270    0.002903044    0.002014464
     10        8          -0.000093870   -0.000309444   -0.000350951
     11        8          -0.000124201   -0.000656587   -0.000280273
     12        8           0.000093521   -0.000724548   -0.000568776
     13        8           0.000105373    0.000012002   -0.000039828
     14        8           0.000118386   -0.000101858   -0.000021949
     15        8           0.000044412   -0.000003932   -0.000087222
     16        8           0.000062196   -0.000003727    0.000064674
     17        8           0.000091026   -0.000076466    0.000013884
     18        8           0.000099343    0.000015830    0.000002094
     19        8           0.000036674   -0.000047196    0.000040998
     20        8           0.000014948   -0.000073720    0.000020180
     21        8           0.000038627   -0.000022972    0.000022034
     22        1          -0.000056353   -0.000140783   -0.000174697
     23        1           0.000068780    0.000014787    0.000023861
     24        1           0.000220401    0.000015640    0.000172045
     25        1          -0.000056904   -0.000004869    0.000009270
     26        1          -0.000007681   -0.000010935    0.000042887
     27        1          -0.000030402    0.000013220   -0.000009979
     28        1          -0.000010293    0.000041688    0.000001650
     29        1          -0.000071092    0.000029915   -0.000005386
     30        1          -0.000002026    0.000011137   -0.000013498
     31        1          -0.000032371   -0.000005922   -0.000010375
     32        1          -0.000015326    0.000009839   -0.000034471
     33        1           0.000017138    0.000051548   -0.000001899
 -------------------------------------------------------------------
 Cartesian Forces:  Max     0.002903044 RMS     0.000519905

 GradGradGradGradGradGradGradGradGradGradGradGradGradGradGradGradGradGrad
 Berny optimization.
 FormGI is forming the generalized inverse of G from B-inverse, IUseBI=4.
 Internal  Forces:  Max     0.002315797 RMS     0.000331724
 Search for a local minimum.
 Step number   1 out of a maximum of  151
 All quantities printed in internal units (Hartrees-Bohrs-Radians)
 Mixed Optimization -- En-DIIS/RFO-DIIS
 Second derivative matrix not updated -- first step.
 ITU=  0
     Eigenvalues ---    0.00230   0.00230   0.00230   0.00230   0.00230
     Eigenvalues ---    0.03239   0.03482   0.03500   0.03541   0.03581
     Eigenvalues ---    0.03661   0.03665   0.03674   0.03688   0.03735
     Eigenvalues ---    0.03789   0.03802   0.03811   0.03828   0.03858
     Eigenvalues ---    0.05928   0.06570   0.07662   0.11097   0.11247
     Eigenvalues ---    0.11629   0.11979   0.12167   0.12205   0.12217
     Eigenvalues ---    0.12658   0.12970   0.13105   0.13178   0.13263
     Eigenvalues ---    0.16000   0.16000   0.16000   0.16000   0.16000
     Eigenvalues ---    0.16000   0.16000   0.16000   0.16000   0.16000
     Eigenvalues ---    0.16000   0.16000   0.19003   0.19184   0.19390
     Eigenvalues ---    0.19953   0.20200   0.20253   0.20380   0.20422
     Eigenvalues ---    0.20563   0.20992   0.21009   0.21136   0.21189
     Eigenvalues ---    0.21570   0.25000   0.25000   0.25000   0.37992
     Eigenvalues ---    0.40480   0.40678   0.41116   0.41559   0.42453
     Eigenvalues ---    0.42502   0.42607   0.42768   0.43316   0.43953
     Eigenvalues ---    0.44102   0.44216   0.44422   0.44763   0.44782
     Eigenvalues ---    0.50680   0.51458   0.52211   0.52570   0.54329
     Eigenvalues ---    0.54614   0.54648   0.54671   0.54697   0.54715
     Eigenvalues ---    0.54739   0.548931000.000001000.000001000.00000
     Eigenvalues --- 1000.000001000.000001000.000001000.000001000.00000
     Eigenvalues --- 1000.000001000.000001000.000001000.000001000.00000
     Eigenvalues --- 1000.000001000.000001000.000001000.000001000.00000
     Eigenvalues --- 1000.000001000.000001000.000001000.000001000.00000
     Eigenvalues --- 1000.000001000.000001000.000001000.000001000.00000
     Eigenvalues --- 1000.000001000.000001000.000001000.000001000.00000
     Eigenvalues --- 1000.000001000.000001000.000001000.000001000.00000
     Eigenvalues --- 1000.000001000.000001000.000001000.000001000.00000
     Eigenvalues --- 1000.000001000.000001000.000001000.000001000.00000
     Eigenvalues --- 1000.00000
 RFO step:  Lambda=-2.71761473D-04 EMin= 2.30000000D-03
 Linear search not attempted -- first point.
 Iteration  1 RMS(Cart)=  0.06558700 RMS(Int)=  0.01996040
 Iteration  2 RMS(Cart)=  0.09691075 RMS(Int)=  0.01480142
 Iteration  3 RMS(Cart)=  0.04404454 RMS(Int)=  0.01173199
 Iteration  4 RMS(Cart)=  0.01117293 RMS(Int)=  0.01174027
 Iteration  5 RMS(Cart)=  0.01748400 RMS(Int)=  0.01176390
 Iteration  6 RMS(Cart)=  0.02592693 RMS(Int)=  0.01181122
 Iteration  7 RMS(Cart)=  0.03523875 RMS(Int)=  0.01188249
 Iteration  8 RMS(Cart)=  0.04334175 RMS(Int)=  0.01197419
 Iteration  9 RMS(Cart)=  0.04857924 RMS(Int)=  0.01203978
 Iteration 10 RMS(Cart)=  0.05527442 RMS(Int)=  0.01217894
 Iteration 11 RMS(Cart)=  0.05481785 RMS(Int)=  0.01213280
 Iteration 12 RMS(Cart)=  0.05619101 RMS(Int)=  0.01218947
 Iteration 13 RMS(Cart)=  0.05306439 RMS(Int)=  0.01208283
 Iteration 14 RMS(Cart)=  0.04949977 RMS(Int)=  0.01206151
 Iteration 15 RMS(Cart)=  0.05019728 RMS(Int)=  0.01203561
 Iteration 16 RMS(Cart)=  0.05202154 RMS(Int)=  0.01211920
 Iteration 17 RMS(Cart)=  0.05159282 RMS(Int)=  0.01205533
 Iteration 18 RMS(Cart)=  0.05067228 RMS(Int)=  0.01208880
 Iteration 19 RMS(Cart)=  0.05089236 RMS(Int)=  0.01204497
 Iteration 20 RMS(Cart)=  0.05137990 RMS(Int)=  0.01210458
 Iteration 21 RMS(Cart)=  0.05126538 RMS(Int)=  0.01205038
 Iteration 22 RMS(Cart)=  0.05101435 RMS(Int)=  0.01209637
 Iteration 23 RMS(Cart)=  0.05107403 RMS(Int)=  0.01204758
 Iteration 24 RMS(Cart)=  0.05120538 RMS(Int)=  0.01210064
 Iteration 25 RMS(Cart)=  0.05117434 RMS(Int)=  0.01204904
 Iteration 26 RMS(Cart)=  0.05110619 RMS(Int)=  0.01209842
 Iteration 27 RMS(Cart)=  0.05112234 RMS(Int)=  0.01204828
 Iteration 28 RMS(Cart)=  0.05115785 RMS(Int)=  0.01209958
 Iteration 29 RMS(Cart)=  0.05114945 RMS(Int)=  0.01204867
 Iteration 30 RMS(Cart)=  0.05113099 RMS(Int)=  0.01209898
 Iteration 31 RMS(Cart)=  0.05113536 RMS(Int)=  0.01204847
 Iteration 32 RMS(Cart)=  0.05114497 RMS(Int)=  0.01209929
 Iteration 33 RMS(Cart)=  0.05114269 RMS(Int)=  0.01204857
 Iteration 34 RMS(Cart)=  0.05113769 RMS(Int)=  0.01209913
 Iteration 35 RMS(Cart)=  0.05113888 RMS(Int)=  0.01204852
 Iteration 36 RMS(Cart)=  0.05114149 RMS(Int)=  0.01209921
 Iteration 37 RMS(Cart)=  0.05114086 RMS(Int)=  0.01204855
 Iteration 38 RMS(Cart)=  0.05113950 RMS(Int)=  0.01209917
 Iteration 39 RMS(Cart)=  0.05113983 RMS(Int)=  0.01204853
 Iteration 40 RMS(Cart)=  0.05114054 RMS(Int)=  0.01209919
 Iteration 41 RMS(Cart)=  0.05114037 RMS(Int)=  0.01204854
 Iteration 42 RMS(Cart)=  0.05114001 RMS(Int)=  0.01209918
 Iteration 43 RMS(Cart)=  0.05114010 RMS(Int)=  0.01204854
 Iteration 44 RMS(Cart)=  0.05114027 RMS(Int)=  0.01209918
 Iteration 45 RMS(Cart)=  0.05114023 RMS(Int)=  0.01204854
 Iteration 46 RMS(Cart)=  0.05114014 RMS(Int)=  0.01209918
 Iteration 47 RMS(Cart)=  0.05114016 RMS(Int)=  0.01204854
 Iteration 48 RMS(Cart)=  0.05114022 RMS(Int)=  0.01209918
 Iteration 49 RMS(Cart)=  0.05114019 RMS(Int)=  0.01204854
 Iteration 50 RMS(Cart)=  0.05114016 RMS(Int)=  0.01209918
 Iteration 51 RMS(Cart)=  0.05114018 RMS(Int)=  0.01204854
 Iteration 52 RMS(Cart)=  0.05114020 RMS(Int)=  0.01209918
 Iteration 53 RMS(Cart)=  0.05114020 RMS(Int)=  0.01204854
 Iteration 54 RMS(Cart)=  0.05114017 RMS(Int)=  0.01209918
 Iteration 55 RMS(Cart)=  0.05114018 RMS(Int)=  0.01204854
 Iteration 56 RMS(Cart)=  0.05114020 RMS(Int)=  0.01209918
 Iteration 57 RMS(Cart)=  0.05114018 RMS(Int)=  0.01204854
 Iteration 58 RMS(Cart)=  0.05114017 RMS(Int)=  0.01209918
 Iteration 59 RMS(Cart)=  0.05114018 RMS(Int)=  0.01204854
 Iteration 60 RMS(Cart)=  0.05114019 RMS(Int)=  0.01209918
 Iteration 61 RMS(Cart)=  0.05114019 RMS(Int)=  0.01204854
 Iteration 62 RMS(Cart)=  0.05114019 RMS(Int)=  0.01209918
[...]
 Alpha virt. eigenvalues --    3.47704   3.48208   3.48710   3.48891   3.52273
 Alpha virt. eigenvalues --    3.53029   3.54036   3.60226   3.61214   3.62056
 Alpha virt. eigenvalues --    3.65926   4.27868   4.58180   8.02753  31.31478
          Condensed to atoms (all electrons):
               1          2          3          4          5          6
     1  Zr  14.708164  -0.046460  -0.031327  -0.064620  -0.210359  -0.655192
     2  O   -0.046460   8.849648   0.019910  -0.046357  -0.062720   0.081728
     3  O   -0.031327   0.019910   8.878896   0.016637  -0.054083   0.002091
     4  O   -0.064620  -0.046357   0.016637   8.825312  -0.051084  -0.729974
     5  O   -0.210359  -0.062720  -0.054083  -0.051084   9.510653  -0.012399
     6  Si  -0.655192   0.081728   0.002091  -0.729974  -0.012399  14.182304
     7  Si  -0.556006  -0.022960  -0.895780  -0.011898  -0.039099   0.077457
     8  Si  -0.569718  -0.761280  -0.005729   0.051459  -0.022139   0.009430
     9  Si  -0.202826  -0.046436  -0.044878  -0.040460  -1.239740   0.027452
    10  O   -0.010683   0.001429  -0.000790   0.001342   0.125686  -0.001801
    11  O   -0.053050   0.003354   0.002827   0.000950   0.291846  -0.000776
    12  O    0.022436   0.000411   0.003835   0.002196   0.148472  -0.002740
    13  O   -0.040109   0.256853   0.002233  -0.016710   0.000197   0.046439
    14  O   -0.016439   0.260322  -0.016091  -0.001523   0.002695   0.001488
    15  O   -0.043327   0.232977  -0.000906   0.002533   0.000367  -0.011185
    16  O   -0.142727   0.005383  -0.000239   0.342575   0.003340  -0.428317
    17  O   -0.015866  -0.042273   0.009269   0.221887   0.001363  -0.500892
    18  O    0.001169  -0.018287   0.003961   0.195668  -0.000660  -0.481167
    19  O   -0.002799   0.008654   0.259631   0.008358   0.002320  -0.002750
    20  O   -0.141263  -0.000792   0.171561  -0.000838   0.001908   0.008515
    21  O    0.025584   0.011244   0.149316   0.003093   0.000159  -0.008869
    22  H   -0.004530  -0.000011  -0.000015  -0.000008   0.006459   0.000046
    23  H   -0.008927  -0.000010  -0.000000  -0.000031  -0.024331   0.000074
    24  H   -0.005744  -0.000221  -0.000017   0.000009  -0.007135   0.000140
    25  H    0.024326  -0.020731  -0.000151  -0.000469  -0.000029  -0.002100
    26  H   -0.006001  -0.018562   0.000018  -0.000013  -0.000025   0.000339
    27  H    0.001424  -0.021754   0.000626  -0.001680   0.000017   0.011231
    28  H    0.005114  -0.000011  -0.018763  -0.000013  -0.000015  -0.000254
    29  H    0.002560  -0.005668  -0.020207  -0.000215  -0.000085   0.000676
    30  H    0.000683  -0.000016   0.000166  -0.000442  -0.000011  -0.000789
    31  H    0.000971   0.000396  -0.000018  -0.017768  -0.000010   0.060024
    32  H    0.001895  -0.000024   0.000035   0.010621   0.000004   0.021184
    33  H   -0.015872   0.000936  -0.010281  -0.008738  -0.000105   0.051610
               7          8          9         10         11         12
     1  Zr  -0.556006  -0.569718  -0.202826  -0.010683  -0.053050   0.022436
     2  O   -0.022960  -0.761280  -0.046436   0.001429   0.003354   0.000411
     3  O   -0.895780  -0.005729  -0.044878  -0.000790   0.002827   0.003835
     4  O   -0.011898   0.051459  -0.040460   0.001342   0.000950   0.002196
     5  O   -0.039099  -0.022139  -1.239740   0.125686   0.291846   0.148472
     6  Si   0.077457   0.009430   0.027452  -0.001801  -0.000776  -0.002740
     7  Si  13.795891   0.160994   0.018718  -0.000703  -0.001345   0.003408
     8  Si   0.160994  13.740202   0.024509  -0.001069   0.000520  -0.000725
     9  Si   0.018718   0.024509  14.177818  -0.084552  -0.154340  -0.156247
    10  O   -0.000703  -0.001069  -0.084552   8.519573   0.035556   0.018979
    11  O   -0.001345   0.000520  -0.154340   0.035556   8.480656  -0.055209
    12  O    0.003408  -0.000725  -0.156247   0.018979  -0.055209   8.594638
    13  O    0.004820  -0.123278   0.000644   0.000001   0.000023   0.000002
    14  O    0.005095  -0.544628  -0.001366  -0.000004  -0.000005   0.000007
    15  O   -0.004334  -0.352340  -0.001637  -0.000002  -0.000023  -0.000010
    16  O    0.004203  -0.007159  -0.000572   0.000001  -0.000003  -0.000003
    17  O   -0.012225   0.080529   0.001421  -0.000003   0.000005  -0.000005
    18  O   -0.000882   0.069933   0.003973  -0.000003   0.000009  -0.000001
    19  O   -0.406203  -0.015483   0.000991   0.000006  -0.000003  -0.000018
    20  O   -0.119227   0.009363   0.002648   0.000003  -0.000002  -0.000040
    21  O    0.029320  -0.043532  -0.001140   0.000000  -0.000001   0.000007
    22  H   -0.000104   0.000043   0.041951  -0.007112  -0.004723   0.221799
    23  H    0.000078   0.000064   0.082660   0.228224  -0.006696   0.005733
    24  H    0.000045  -0.000045   0.037469   0.007151   0.245737  -0.007789
    25  H   -0.000461   0.050541  -0.000262  -0.000000  -0.000000  -0.000000
    26  H    0.000605   0.071059  -0.000067   0.000000   0.000000  -0.000000
    27  H    0.002134   0.082428   0.000056   0.000000  -0.000000  -0.000000
    28  H    0.057525  -0.000014  -0.000117  -0.000000  -0.000000  -0.000001
    29  H    0.047717   0.023771  -0.000066   0.000000   0.000000  -0.000000
    30  H    0.040756   0.000062   0.000020  -0.000000   0.000000   0.000000
    31  H    0.000118  -0.002027  -0.000062   0.000000  -0.000000   0.000000
    32  H   -0.000536   0.000053   0.000044  -0.000000   0.000000   0.000000
    33  H    0.021871  -0.000052   0.000054  -0.000000   0.000000   0.000000
              13         14         15         16         17         18
     1  Zr  -0.040109  -0.016439  -0.043327  -0.142727  -0.015866   0.001169
     2  O    0.256853   0.260322   0.232977   0.005383  -0.042273  -0.018287
     3  O    0.002233  -0.016091  -0.000906  -0.000239   0.009269   0.003961
     4  O   -0.016710  -0.001523   0.002533   0.342575   0.221887   0.195668
     5  O    0.000197   0.002695   0.000367   0.003340   0.001363  -0.000660
     6  Si   0.046439   0.001488  -0.011185  -0.428317  -0.500892  -0.481167
     7  Si   0.004820   0.005095  -0.004334   0.004203  -0.012225  -0.000882
     8  Si  -0.123278  -0.544628  -0.352340  -0.007159   0.080529   0.069933
     9  Si   0.000644  -0.001366  -0.001637  -0.000572   0.001421   0.003973
    10  O    0.000001  -0.000004  -0.000002   0.000001  -0.000003  -0.000003
    11  O    0.000023  -0.000005  -0.000023  -0.000003   0.000005   0.000009
    12  O    0.000002   0.000007  -0.000010  -0.000003  -0.000005  -0.000001
    13  O    8.641874   0.023084  -0.118865   0.003855  -0.027924  -0.041703
    14  O    0.023084   8.832840   0.158484   0.002894  -0.028585  -0.022878
    15  O   -0.118865   0.158484   8.769342  -0.000171   0.003742   0.001170
    16  O    0.003855   0.002894  -0.000171   8.918022  -0.094408  -0.106981
    17  O   -0.027924  -0.028585   0.003742  -0.094408   8.949684   0.222797
    18  O   -0.041703  -0.022878   0.001170  -0.106981   0.222797   9.034546
    19  O    0.000216   0.002280   0.000301  -0.001371  -0.033436   0.000112
    20  O    0.000011  -0.000649   0.000003   0.000065  -0.000707   0.000009
    21  O   -0.000538   0.025342   0.000840  -0.000199  -0.005185   0.000406
    22  H    0.000000  -0.000000  -0.000000   0.000000   0.000000  -0.000000
    23  H    0.000000   0.000000   0.000000  -0.000000   0.000000  -0.000000
    24  H   -0.000001   0.000000   0.000002   0.000000  -0.000000  -0.000000
    25  H    0.218349  -0.009421   0.007834  -0.000233   0.000612   0.015706
    26  H   -0.006519   0.002155   0.223952   0.000000  -0.000019   0.000012
    27  H   -0.004762   0.204637  -0.000105   0.000294   0.018902  -0.000842
    28  H   -0.000000  -0.000003  -0.000001  -0.000000   0.000002   0.000000
    29  H    0.000754   0.013403  -0.001564  -0.000003  -0.000762  -0.000003
    30  H    0.000001  -0.000035   0.000001   0.000107  -0.000524  -0.000006
    31  H    0.002504   0.000061  -0.000020   0.005542  -0.001359   0.217647
    32  H   -0.000006  -0.000007   0.000000   0.235272  -0.003603   0.004025
    33  H    0.000203   0.001848  -0.000050   0.000288   0.230788   0.002309
              19         20         21         22         23         24
     1  Zr  -0.002799  -0.141263   0.025584  -0.004530  -0.008927  -0.005744
     2  O    0.008654  -0.000792   0.011244  -0.000011  -0.000010  -0.000221
     3  O    0.259631   0.171561   0.149316  -0.000015  -0.000000  -0.000017
     4  O    0.008358  -0.000838   0.003093  -0.000008  -0.000031   0.000009
     5  O    0.002320   0.001908   0.000159   0.006459  -0.024331  -0.007135
     6  Si  -0.002750   0.008515  -0.008869   0.000046   0.000074   0.000140
     7  Si  -0.406203  -0.119227   0.029320  -0.000104   0.000078   0.000045
     8  Si  -0.015483   0.009363  -0.043532   0.000043   0.000064  -0.000045
     9  Si   0.000991   0.002648  -0.001140   0.041951   0.082660   0.037469
    10  O    0.000006   0.000003   0.000000  -0.007112   0.228224   0.007151
    11  O   -0.000003  -0.000002  -0.000001  -0.004723  -0.006696   0.245737
    12  O   -0.000018  -0.000040   0.000007   0.221799   0.005733  -0.007789
    13  O    0.000216   0.000011  -0.000538   0.000000   0.000000  -0.000001
    14  O    0.002280  -0.000649   0.025342  -0.000000   0.000000   0.000000
    15  O    0.000301   0.000003   0.000840  -0.000000   0.000000   0.000002
    16  O   -0.001371   0.000065  -0.000199   0.000000  -0.000000   0.000000
    17  O   -0.033436  -0.000707  -0.005185   0.000000   0.000000  -0.000000
    18  O    0.000112   0.000009   0.000406  -0.000000  -0.000000  -0.000000
    19  O    8.874183   0.035283   0.022694  -0.000000   0.000000  -0.000000
    20  O    0.035283   8.660876  -0.054133   0.000000   0.000000  -0.000000
    21  O    0.022694  -0.054133   8.478304  -0.000000   0.000000   0.000000
    22  H   -0.000000   0.000000  -0.000000   0.363698   0.000073   0.000137
    23  H    0.000000   0.000000   0.000000   0.000073   0.350691   0.000013
    24  H   -0.000000  -0.000000   0.000000   0.000137   0.000013   0.366717
    25  H   -0.000034   0.000000  -0.000016   0.000000   0.000000   0.000000
    26  H    0.000000  -0.000000   0.000034  -0.000000   0.000000  -0.000000
    27  H   -0.000125   0.000222  -0.004772  -0.000000  -0.000000   0.000000
    28  H    0.004218   0.228865  -0.001773  -0.000000   0.000000   0.000000
    29  H   -0.008634   0.007961   0.208171   0.000000   0.000000  -0.000000
    30  H    0.223861  -0.001566  -0.007131   0.000000   0.000000  -0.000000
    31  H    0.000003  -0.000000  -0.000000  -0.000000  -0.000000   0.000000
    32  H    0.000100   0.000000   0.000001  -0.000000   0.000000   0.000000
    33  H    0.014333  -0.000122   0.001404  -0.000000  -0.000000  -0.000000
              25         26         27         28         29         30
     1  Zr   0.024326  -0.006001   0.001424   0.005114   0.002560   0.000683
     2  O   -0.020731  -0.018562  -0.021754  -0.000011  -0.005668  -0.000016
     3  O   -0.000151   0.000018   0.000626  -0.018763  -0.020207   0.000166
     4  O   -0.000469  -0.000013  -0.001680  -0.000013  -0.000215  -0.000442
     5  O   -0.000029  -0.000025   0.000017  -0.000015  -0.000085  -0.000011
     6  Si  -0.002100   0.000339   0.011231  -0.000254   0.000676  -0.000789
     7  Si  -0.000461   0.000605   0.002134   0.057525   0.047717   0.040756
     8  Si   0.050541   0.071059   0.082428  -0.000014   0.023771   0.000062
     9  Si  -0.000262  -0.000067   0.000056  -0.000117  -0.000066   0.000020
    10  O   -0.000000   0.000000   0.000000  -0.000000   0.000000  -0.000000
    11  O   -0.000000   0.000000  -0.000000  -0.000000   0.000000   0.000000
    12  O   -0.000000  -0.000000  -0.000000  -0.000001  -0.000000   0.000000
    13  O    0.218349  -0.006519  -0.004762  -0.000000   0.000754   0.000001
    14  O   -0.009421   0.002155   0.204637  -0.000003   0.013403  -0.000035
    15  O    0.007834   0.223952  -0.000105  -0.000001  -0.001564   0.000001
    16  O   -0.000233   0.000000   0.000294  -0.000000  -0.000003   0.000107
    17  O    0.000612  -0.000019   0.018902   0.000002  -0.000762  -0.000524
    18  O    0.015706   0.000012  -0.000842   0.000000  -0.000003  -0.000006
    19  O   -0.000034   0.000000  -0.000125   0.004218  -0.008634   0.223861
    20  O    0.000000  -0.000000   0.000222   0.228865   0.007961  -0.001566
    21  O   -0.000016   0.000034  -0.004772  -0.001773   0.208171  -0.007131
    22  H    0.000000  -0.000000  -0.000000  -0.000000   0.000000   0.000000
    23  H    0.000000   0.000000  -0.000000   0.000000   0.000000   0.000000
    24  H    0.000000  -0.000000   0.000000   0.000000  -0.000000  -0.000000
    25  H    0.300392  -0.000043   0.000080   0.000000   0.000000   0.000000
    26  H   -0.000043   0.365289  -0.000041   0.000000   0.000013  -0.000000
    27  H    0.000080  -0.000041   0.283828  -0.000000  -0.001024   0.000009
    28  H    0.000000   0.000000  -0.000000   0.348916  -0.000015  -0.000010
    29  H    0.000000   0.000013  -0.001024  -0.000015   0.286707   0.000163
    30  H    0.000000  -0.000000   0.000009  -0.000010   0.000163   0.334036
    31  H   -0.000268   0.000000   0.000016   0.000000   0.000000  -0.000000
    32  H   -0.000001  -0.000000  -0.000000   0.000000  -0.000000  -0.000000
    33  H    0.000008   0.000000  -0.002603  -0.000002   0.000121  -0.001016
              31         32         33
     1  Zr   0.000971   0.001895  -0.015872
     2  O    0.000396  -0.000024   0.000936
     3  O   -0.000018   0.000035  -0.010281
     4  O   -0.017768   0.010621  -0.008738
     5  O   -0.000010   0.000004  -0.000105
     6  Si   0.060024   0.021184   0.051610
     7  Si   0.000118  -0.000536   0.021871
     8  Si  -0.002027   0.000053  -0.000052
     9  Si  -0.000062   0.000044   0.000054
    10  O    0.000000  -0.000000  -0.000000
    11  O   -0.000000   0.000000   0.000000
    12  O    0.000000   0.000000   0.000000
    13  O    0.002504  -0.000006   0.000203
    14  O    0.000061  -0.000007   0.001848
    15  O   -0.000020   0.000000  -0.000050
    16  O    0.005542   0.235272   0.000288
    17  O   -0.001359  -0.003603   0.230788
    18  O    0.217647   0.004025   0.002309
    19  O    0.000003   0.000100   0.014333
    20  O   -0.000000   0.000000  -0.000122
    21  O   -0.000000   0.000001   0.001404
    22  H   -0.000000  -0.000000  -0.000000
    23  H   -0.000000   0.000000  -0.000000
    24  H    0.000000   0.000000  -0.000000
    25  H   -0.000268  -0.000001   0.000008
    26  H    0.000000  -0.000000   0.000000
    27  H    0.000016  -0.000000  -0.002603
    28  H    0.000000   0.000000  -0.000002
    29  H    0.000000  -0.000000   0.000121
    30  H   -0.000000  -0.000000  -0.001016
    31  H    0.327032  -0.000013  -0.000036
    32  H   -0.000013   0.348894   0.000149
    33  H   -0.000036   0.000149   0.269720
 Mulliken charges:
               1
     1  Zr   0.049518
     2  O   -0.618674
     3  O   -0.421740
     4  O   -0.689802
     5  O   -0.371456
     6  Si   2.256973
     7  Si   1.801009
     8  Si   2.074259
     9  Si   1.554343
    10  O   -0.831227
    11  O   -0.785310
    12  O   -0.799134
    13  O   -0.821646
    14  O   -0.895001
    15  O   -0.867007
    16  O   -0.739454
    17  O   -0.973223
    18  O   -1.100038
    19  O   -0.986687
    20  O   -0.807951
    21  O   -0.828632
    22  H    0.382297
    23  H    0.372387
    24  H    0.363531
    25  H    0.416372
    26  H    0.367815
    27  H    0.431804
    28  H    0.376351
    29  H    0.446231
    30  H    0.411682
    31  H    0.407265
    32  H    0.381912
    33  H    0.443235
 Sum of Mulliken charges =  -0.00000
 Mulliken charges with hydrogens summed into heavy atoms:
               1
     1  Zr   0.049518
     2  O   -0.618674
     3  O   -0.421740
     4  O   -0.689802
     5  O   -0.371456
     6  Si   2.256973
     7  Si   1.801009
     8  Si   2.074259
     9  Si   1.554343
    10  O   -0.458841
    11  O   -0.421779
    12  O   -0.416837
    13  O   -0.405275
    14  O   -0.463197
    15  O   -0.499192
    16  O   -0.357542
    17  O   -0.529988
    18  O   -0.692773
    19  O   -0.575006
    20  O   -0.431599
    21  O   -0.382401
 Electronic spatial extent (au):  <R**2>=           9911.9808
 Charge=             -0.0000 electrons
 Dipole moment (field-independent basis, Debye):
    X=              2.9566    Y=             -1.4922    Z=             -2.4814  Tot=              4.1382
 Quadrupole moment (field-independent basis, Debye-Ang):
   XX=           -166.8776   YY=           -153.7429   ZZ=           -157.0695
   XY=             -8.2010   XZ=             12.5634   YZ=              2.3321
 Traceless Quadrupole moment (field-independent basis, Debye-Ang):
   XX=             -7.6476   YY=              5.4871   ZZ=              2.1605
   XY=             -8.2010   XZ=             12.5634   YZ=              2.3321
 Octapole moment (field-independent basis, Debye-Ang**2):
  XXX=             96.5675  YYY=              1.8645  ZZZ=            -17.6439  XYY=             -3.9798
  XXY=             32.3573  XXZ=            -22.0309  XZZ=             52.6487  YZZ=            -31.6788
  YYZ=             -4.3732  XYZ=             17.2314
 Hexadecapole moment (field-independent basis, Debye-Ang**3):
 XXXX=          -6000.1230 YYYY=          -2828.7208 ZZZZ=          -2233.7538 XXXY=             29.6858
 XXXZ=            137.9232 YYYX=             -6.8876 YYYZ=            204.9487 ZZZX=             30.7008
 ZZZY=           -121.9743 XXYY=          -1531.2154 XXZZ=          -1522.8767 YYZZ=           -912.6879
 XXYZ=             15.7794 YYXZ=            119.3954 ZZXY=           -114.0725
 N-N= 2.829759997125D+03 E-N=-1.137203376254D+04  KE= 2.373154420100D+03
 1\1\GINC-GRA1308\FOpt\RB3LYP\Gen\H12O16Si4Zr1\SARASHS\02-Aug-2020\0\\#
 n B3LYP/Gen Pseudo=cards EmpiricalDispersion=GD3 Opt=modredundant\\Tit
 le\\0,1\Zr,0.6476251086,-0.1963564312,-0.1400211052\O,-0.2094267364,-0
 .9750200993,1.4232681146\O,0.1818460962,1.7017248928,-0.1341972578\O,-
 0.3648871327,-0.9814769934,-1.6469930788\O,2.5639647038,-0.589959799,-
 0.2269691417\Si,-1.9558617526,-1.2829803413,-1.9153068534\Si,-0.975357
 0233,2.857761126,-0.0439423432\Si,-1.6975202871,-1.1100152735,2.147112
 4346\Si,4.1926363333,-0.7210513576,-0.2951558531\O,4.8081003005,-0.540
 2406498,-1.8163899172\O,4.6682647537,-2.2362764104,0.1835105363\O,4.76
 69229345,0.4978522552,0.6559040443\O,-2.3571684586,-2.5620043939,1.760
 4328397\O,-2.6298132943,0.1703177393,1.6353824785\O,-1.5923773052,-0.9
 29842845,3.7738961318\O,-2.2328796959,-1.4994833585,-3.5263916844\O,-2
 .8680891329,-0.1026435059,-1.2071272842\O,-2.458103483,-2.6555319453,-
 1.1209555523\O,-1.9853277865,2.4925997198,-1.3401438462\O,-0.423794748
 5,4.3869209392,-0.2996721871\O,-1.7569401667,2.8369722676,1.3939716729
 \H,5.7021011512,0.7124740778,0.5668919767\H,4.973768739,-1.3555337291,
 -2.3031355438\H,4.2816018944,-2.5877696597,0.9929814226\H,-2.418762056
 1,-2.773580608,0.8116729778\H,-1.1084486988,-1.6024927074,4.2639150258
 \H,-3.0199456899,0.0376448211,0.7504588378\H,-0.2727320998,4.919949455
 5,0.4892611534\H,-2.0993807054,1.9674825695,1.6871493748\H,-2.57972147
 24,3.2040741097,-1.6093891088\H,-2.5663994367,-3.4458327351,-1.6618865
 423\H,-1.5286475031,-1.2289458195,-4.1258863787\H,-2.6209073494,0.8303
 746893,-1.3977753435\\Version=ES64L-G16RevB.01\State=1-A\HF=-2416.9456
 933\RMSD=9.220e-09\RMSF=8.141e-05\Dipole=1.0221351,-0.6783449,-1.07042
 65\Quadrupole=-5.7709089,5.2984302,0.4724787,-5.12406,9.7428099,1.1076
 051\PG=C01 [X(H12O16Si4Zr1)]\\@


 IF YOU GET CONFUSED, LOGIC OUT YOUR DILEMMA

           --  PICKER X-RAY CORP.    DIGITAL PRINTER MANUAL CA. 1964
 Job cpu time:       1 days 13 hours 21 minutes 57.0 seconds.
 Elapsed time:       0 days  3 hours 11 minutes  9.6 seconds.
 File lengths (MBytes):  RWF=    167 Int=      0 D2E=      0 Chk=     21 Scr=      1
 Normal termination of Gaussian 16 at Sun Aug  2 10:05:49 2020.
