 Entering Gaussian System, Link 0=g16
 Initial command:
 /opt/software/gaussian/g16.b01/l1.exe "/localscratch/sarashs.36760151.0/Gau-27864.inp" -scrdir="/localscratch/sarashs.36760151.0/"
 Entering Link 1 = /opt/software/gaussian/g16.b01/l1.exe PID=     27865.
  
 Copyright (c) 1988-2017, Gaussian, Inc.  All Rights Reserved.
  
 This is part of the Gaussian(R) 16 program.  It is based on
 the Gaussian(R) 09 system (copyright 2009, Gaussian, Inc.),
 the Gaussian(R) 03 system (copyright 2003, Gaussian, Inc.),
 the Gaussian(R) 98 system (copyright 1998, Gaussian, Inc.),
 the Gaussian(R) 94 system (copyright 1995, Gaussian, Inc.),
 the Gaussian 92(TM) system (copyright 1992, Gaussian, Inc.),
 the Gaussian 90(TM) system (copyright 1990, Gaussian, Inc.),
 the Gaussian 88(TM) system (copyright 1988, Gaussian, Inc.),
 the Gaussian 86(TM) system (copyright 1986, Carnegie Mellon
 University), and the Gaussian 82(TM) system (copyright 1983,
 Carnegie Mellon University). Gaussian is a federally registered
 trademark of Gaussian, Inc.
  
 This software contains proprietary and confidential information,
 including trade secrets, belonging to Gaussian, Inc.
  
 This software is provided under written license and may be
 used, copied, transmitted, or stored only in accord with that
 written license.
  
 The following legend is applicable only to US Government
 contracts under FAR:
  
                    RESTRICTED RIGHTS LEGEND
  
 Use, reproduction and disclosure by the US Government is
 subject to restrictions as set forth in subparagraphs (a)
 and (c) of the Commercial Computer Software - Restricted
 Rights clause in FAR 52.227-19.
  
 Gaussian, Inc.
 340 Quinnipiac St., Bldg. 40, Wallingford CT 06492
  
  
 ---------------------------------------------------------------
 Warning -- This program may not be used in any manner that
 competes with the business of Gaussian, Inc. or will provide
 assistance to any competitor of Gaussian, Inc.  The licensee
 of this program is prohibited from giving any competitor of
 Gaussian, Inc. access to this program.  By using this program,
 the user acknowledges that Gaussian, Inc. is engaged in the
 business of creating and licensing software in the field of
 computational chemistry and represents and warrants to the
 licensee that it is not a competitor of Gaussian, Inc. and that
 it will not use this program in any manner prohibited above.
 ---------------------------------------------------------------
  

 Cite this work as:
 Gaussian 16, Revision B.01,
 M. J. Frisch, G. W. Trucks, H. B. Schlegel, G. E. Scuseria, 
 M. A. Robb, J. R. Cheeseman, G. Scalmani, V. Barone, 
 G. A. Petersson, H. Nakatsuji, X. Li, M. Caricato, A. V. Marenich, 
 J. Bloino, B. G. Janesko, R. Gomperts, B. Mennucci, H. P. Hratchian, 
 J. V. Ortiz, A. F. Izmaylov, J. L. Sonnenberg, D. Williams-Young, 
 F. Ding, F. Lipparini, F. Egidi, J. Goings, B. Peng, A. Petrone, 
 T. Henderson, D. Ranasinghe, V. G. Zakrzewski, J. Gao, N. Rega, 
 G. Zheng, W. Liang, M. Hada, M. Ehara, K. Toyota, R. Fukuda, 
 J. Hasegawa, M. Ishida, T. Nakajima, Y. Honda, O. Kitao, H. Nakai, 
 T. Vreven, K. Throssell, J. A. Montgomery, Jr., J. E. Peralta, 
 F. Ogliaro, M. J. Bearpark, J. J. Heyd, E. N. Brothers, K. N. Kudin, 
 V. N. Staroverov, T. A. Keith, R. Kobayashi, J. Normand, 
 K. Raghavachari, A. P. Rendell, J. C. Burant, S. S. Iyengar, 
 J. Tomasi, M. Cossi, J. M. Millam, M. Klene, C. Adamo, R. Cammi, 
 J. W. Ochterski, R. L. Martin, K. Morokuma, O. Farkas, 
 J. B. Foresman, and D. J. Fox, Gaussian, Inc., Wallingford CT, 2016.
 
 ******************************************
 Gaussian 16:  ES64L-G16RevB.01 20-Dec-2017
                 2-Aug-2020 
 ******************************************
 %NProcShared=16
 Will use up to   16 processors via shared memory.
 ------------------------------------------------------------------
 #n B3LYP/Gen Pseudo=cards EmpiricalDispersion=GD3 Opt=modredundant
 ------------------------------------------------------------------
 1/18=120,19=15,26=3,38=1/1,3;
 2/9=110,12=2,17=6,18=5,40=1/2;
 3/5=7,11=2,16=1,17=8,25=1,30=1,71=1,74=-5,124=31/1,2,3;
 4//1;
 5/5=2,38=5/2;
 6/7=2,8=2,9=2,10=2,28=1/1;
 7//1,2,3,16;
 1/18=20,19=15,26=3/3(2);
 2/9=110/2;
 99//99;
 2/9=110/2;
 3/5=7,6=1,11=2,16=1,17=8,25=1,30=1,71=1,74=-5,82=7,124=31/1,2,3;
 4/5=5,16=3,69=1/1;
 5/5=2,38=5/2;
 7//1,2,3,16;
 1/18=20,19=15,26=3/3(-5);
 2/9=110/2;
 6/7=2,8=2,9=2,10=2,19=2,28=1/1;
 99/9=1/99;
 -----
 Title
 -----
 Symbolic Z-matrix:
 Charge =  0 Multiplicity = 1
 Zr                    0.64646  -0.19013  -0.1519 
 O                    -0.19212  -0.93131   1.43939 
 O                     0.17263   1.70395  -0.1904 
 O                    -0.37772  -1.01692  -1.62844 
 O                     2.5678   -0.57883  -0.26812 
 Si                   -1.96924  -1.33216  -1.87829 
 Si                   -0.98958   2.85681  -0.11809 
 Si                   -1.67476  -1.05152   2.17706 
 Si                    3.96253   0.12187   0.22361 
 O                     4.65367   1.11088  -0.90227 
 O                     5.10274  -1.03626   0.54824 
 O                     3.53499   1.04163   1.5267 
 O                    -2.33574  -2.51245   1.83004 
 O                    -2.6209    0.20928   1.64149 
 O                    -1.552    -0.82432   3.7965 
 O                    -2.25427  -1.59164  -3.48183 
 O                    -2.88371  -0.13912  -1.19557 
 O                    -2.46027  -2.68598  -1.04579 
 O                    -2.00825   2.45605  -1.3967 
 O                    -0.44623   4.38142  -0.41555 
 O                    -1.75835   2.86715   1.32642 
 H                     4.17283   1.69965   1.82466 
 H                     5.32688   0.70856  -1.46259 
 H                     4.81111  -1.82253   1.02256 
 H                    -2.40738  -2.74575   0.88712 
 H                    -0.93391  -1.38513   4.27638 
 H                    -3.02928   0.04705   0.77024 
 H                    -0.29029   4.93346   0.35924 
 H                    -2.09489   2.00321   1.64266 
 H                    -2.6086    3.15807  -1.6773 
 H                    -2.56602  -3.49143  -1.56436 
 H                    -1.55278  -1.33714  -4.09141 
 H                    -2.64046   0.78995  -1.40829 
 
 The following ModRedundant input section has been read:
 A       1       5       9 F                                                   
 

 GradGradGradGradGradGradGradGradGradGradGradGradGradGradGradGradGradGrad
 Berny optimization.
 Initialization pass.
                           ----------------------------
                           !    Initial Parameters    !
                           ! (Angstroms and Degrees)  !
 --------------------------                            --------------------------
 ! Name  Definition              Value          Derivative Info.                !
 --------------------------------------------------------------------------------
 ! R1    R(1,2)                  1.9454         estimate D2E/DX2                !
 ! R2    R(1,3)                  1.9528         estimate D2E/DX2                !
 ! R3    R(1,4)                  1.9781         estimate D2E/DX2                !
 ! R4    R(1,5)                  1.9637         estimate D2E/DX2                !
 ! R5    R(2,8)                  1.6604         estimate D2E/DX2                !
 ! R6    R(3,7)                  1.6386         estimate D2E/DX2                !
 ! R7    R(4,6)                  1.6416         estimate D2E/DX2                !
 ! R8    R(5,9)                  1.6365         estimate D2E/DX2                !
 ! R9    R(6,16)                 1.6492         estimate D2E/DX2                !
 ! R10   R(6,17)                 1.651          estimate D2E/DX2                !
 ! R11   R(6,18)                 1.6634         estimate D2E/DX2                !
 ! R12   R(7,19)                 1.6832         estimate D2E/DX2                !
 ! R13   R(7,20)                 1.6456         estimate D2E/DX2                !
 ! R14   R(7,21)                 1.6364         estimate D2E/DX2                !
 ! R15   R(8,13)                 1.6406         estimate D2E/DX2                !
 ! R16   R(8,14)                 1.6648         estimate D2E/DX2                !
 ! R17   R(8,15)                 1.6399         estimate D2E/DX2                !
 ! R18   R(9,10)                 1.6503         estimate D2E/DX2                !
 ! R19   R(9,11)                 1.6573         estimate D2E/DX2                !
 ! R20   R(9,12)                 1.6513         estimate D2E/DX2                !
 ! R21   R(10,23)                0.9639         estimate D2E/DX2                !
 ! R22   R(11,24)                0.9635         estimate D2E/DX2                !
 ! R23   R(12,22)                0.9636         estimate D2E/DX2                !
 ! R24   R(13,25)                0.974          estimate D2E/DX2                !
 ! R25   R(14,27)                0.9758         estimate D2E/DX2                !
 ! R26   R(15,26)                0.9627         estimate D2E/DX2                !
 ! R27   R(16,32)                0.9636         estimate D2E/DX2                !
 ! R28   R(17,33)                0.9837         estimate D2E/DX2                !
 ! R29   R(18,31)                0.9638         estimate D2E/DX2                !
 ! R30   R(19,30)                0.9654         estimate D2E/DX2                !
 ! R31   R(20,28)                0.964          estimate D2E/DX2                !
 ! R32   R(21,29)                0.9796         estimate D2E/DX2                !
 ! A1    A(2,1,3)              106.3234         estimate D2E/DX2                !
 ! A2    A(2,1,4)              103.1879         estimate D2E/DX2                !
 ! A3    A(2,1,5)              113.2501         estimate D2E/DX2                !
 ! A4    A(3,1,4)              105.3705         estimate D2E/DX2                !
 ! A5    A(3,1,5)              115.3549         estimate D2E/DX2                !
 ! A6    A(4,1,5)              112.3142         estimate D2E/DX2                !
 ! A7    A(1,2,8)              140.8859         estimate D2E/DX2                !
 ! A8    A(1,3,7)              148.6074         estimate D2E/DX2                !
 ! A9    A(1,4,6)              134.0964         estimate D2E/DX2                !
 ! A10   A(1,5,9)              136.9998         Frozen                          !
 ! A11   A(4,6,16)             110.2282         estimate D2E/DX2                !
 ! A12   A(4,6,17)             109.5909         estimate D2E/DX2                !
 ! A13   A(4,6,18)             111.4884         estimate D2E/DX2                !
 ! A14   A(16,6,17)            114.8371         estimate D2E/DX2                !
 ! A15   A(16,6,18)            107.9112         estimate D2E/DX2                !
 ! A16   A(17,6,18)            102.5719         estimate D2E/DX2                !
 ! A17   A(3,7,19)             103.1918         estimate D2E/DX2                !
 ! A18   A(3,7,20)             114.1832         estimate D2E/DX2                !
 ! A19   A(3,7,21)             112.1241         estimate D2E/DX2                !
 ! A20   A(19,7,20)            106.4451         estimate D2E/DX2                !
 ! A21   A(19,7,21)            112.8144         estimate D2E/DX2                !
 ! A22   A(20,7,21)            107.9884         estimate D2E/DX2                !
 ! A23   A(2,8,13)             109.2843         estimate D2E/DX2                !
 ! A24   A(2,8,14)             108.0427         estimate D2E/DX2                !
 ! A25   A(2,8,15)             111.2146         estimate D2E/DX2                !
 ! A26   A(13,8,14)            112.1704         estimate D2E/DX2                !
 ! A27   A(13,8,15)            111.2482         estimate D2E/DX2                !
 ! A28   A(14,8,15)            104.7916         estimate D2E/DX2                !
 ! A29   A(5,9,10)             114.1133         estimate D2E/DX2                !
 ! A30   A(5,9,11)             110.2429         estimate D2E/DX2                !
 ! A31   A(5,9,12)             104.7703         estimate D2E/DX2                !
 ! A32   A(10,9,11)            105.3249         estimate D2E/DX2                !
 ! A33   A(10,9,12)            108.2402         estimate D2E/DX2                !
 ! A34   A(11,9,12)            114.3794         estimate D2E/DX2                !
 ! A35   A(9,10,23)            116.0379         estimate D2E/DX2                !
 ! A36   A(9,11,24)            117.2882         estimate D2E/DX2                !
 ! A37   A(9,12,22)            116.934          estimate D2E/DX2                !
 ! A38   A(8,13,25)            116.5961         estimate D2E/DX2                !
 ! A39   A(8,14,27)            113.5263         estimate D2E/DX2                !
 ! A40   A(8,15,26)            117.3612         estimate D2E/DX2                !
 ! A41   A(6,16,32)            116.5984         estimate D2E/DX2                !
 ! A42   A(6,17,33)            117.1373         estimate D2E/DX2                !
 ! A43   A(6,18,31)            116.3135         estimate D2E/DX2                !
 ! A44   A(7,19,30)            115.0881         estimate D2E/DX2                !
 ! A45   A(7,20,28)            116.018          estimate D2E/DX2                !
 ! A46   A(7,21,29)            116.1544         estimate D2E/DX2                !
 ! D1    D(3,1,2,8)             54.013          estimate D2E/DX2                !
 ! D2    D(4,1,2,8)            -56.615          estimate D2E/DX2                !
 ! D3    D(5,1,2,8)           -178.2908         estimate D2E/DX2                !
 ! D4    D(2,1,3,7)            -51.1331         estimate D2E/DX2                !
 ! D5    D(4,1,3,7)             57.9568         estimate D2E/DX2                !
 ! D6    D(5,1,3,7)           -177.5709         estimate D2E/DX2                !
 ! D7    D(2,1,4,6)             41.2968         estimate D2E/DX2                !
 ! D8    D(3,1,4,6)            -70.0365         estimate D2E/DX2                !
 ! D9    D(5,1,4,6)            163.602          estimate D2E/DX2                !
 ! D10   D(2,1,5,9)            -89.6362         estimate D2E/DX2                !
 ! D11   D(3,1,5,9)             33.1904         estimate D2E/DX2                !
 ! D12   D(4,1,5,9)            153.9571         estimate D2E/DX2                !
 ! D13   D(1,2,8,13)            98.0767         estimate D2E/DX2                !
 ! D14   D(1,2,8,14)           -24.2296         estimate D2E/DX2                !
 ! D15   D(1,2,8,15)          -138.7156         estimate D2E/DX2                !
 ! D16   D(1,3,7,19)           -58.6416         estimate D2E/DX2                !
 ! D17   D(1,3,7,20)          -173.7291         estimate D2E/DX2                !
 ! D18   D(1,3,7,21)            63.0404         estimate D2E/DX2                !
 ! D19   D(1,4,6,16)           161.8736         estimate D2E/DX2                !
 ! D20   D(1,4,6,17)            34.551          estimate D2E/DX2                !
 ! D21   D(1,4,6,18)           -78.3045         estimate D2E/DX2                !
 ! D22   D(1,5,9,10)           -93.014          estimate D2E/DX2                !
 ! D23   D(1,5,9,11)           148.7122         estimate D2E/DX2                !
 ! D24   D(1,5,9,12)            25.1929         estimate D2E/DX2                !
 ! D25   D(4,6,16,32)          -13.7229         estimate D2E/DX2                !
 ! D26   D(17,6,16,32)         110.6319         estimate D2E/DX2                !
 ! D27   D(18,6,16,32)        -135.686          estimate D2E/DX2                !
 ! D28   D(4,6,17,33)           49.7998         estimate D2E/DX2                !
 ! D29   D(16,6,17,33)         -74.8906         estimate D2E/DX2                !
 ! D30   D(18,6,17,33)         168.3378         estimate D2E/DX2                !
 ! D31   D(4,6,18,31)         -102.9126         estimate D2E/DX2                !
 ! D32   D(16,6,18,31)          18.2691         estimate D2E/DX2                !
 ! D33   D(17,6,18,31)         139.8941         estimate D2E/DX2                !
 ! D34   D(3,7,19,30)         -162.9704         estimate D2E/DX2                !
 ! D35   D(20,7,19,30)         -42.4468         estimate D2E/DX2                !
 ! D36   D(21,7,19,30)          75.8144         estimate D2E/DX2                !
 ! D37   D(3,7,20,28)         -100.1112         estimate D2E/DX2                !
 ! D38   D(19,7,20,28)         146.7232         estimate D2E/DX2                !
 ! D39   D(21,7,20,28)          25.3303         estimate D2E/DX2                !
 ! D40   D(3,7,21,29)          -50.5298         estimate D2E/DX2                !
 ! D41   D(19,7,21,29)          65.4642         estimate D2E/DX2                !
 ! D42   D(20,7,21,29)        -177.1813         estimate D2E/DX2                !
 ! D43   D(2,8,13,25)          -54.0971         estimate D2E/DX2                !
 ! D44   D(14,8,13,25)          65.6987         estimate D2E/DX2                !
 ! D45   D(15,8,13,25)        -177.2849         estimate D2E/DX2                !
 ! D46   D(2,8,14,27)           81.1206         estimate D2E/DX2                !
 ! D47   D(13,8,14,27)         -39.3971         estimate D2E/DX2                !
 ! D48   D(15,8,14,27)        -160.2179         estimate D2E/DX2                !
 ! D49   D(2,8,15,26)          -54.9076         estimate D2E/DX2                !
 ! D50   D(13,8,15,26)          67.168          estimate D2E/DX2                !
 ! D51   D(14,8,15,26)        -171.403          estimate D2E/DX2                !
 ! D52   D(5,9,10,23)          -94.3733         estimate D2E/DX2                !
 ! D53   D(11,9,10,23)          26.6718         estimate D2E/DX2                !
 ! D54   D(12,9,10,23)         149.4202         estimate D2E/DX2                !
 ! D55   D(5,9,11,24)          -42.1579         estimate D2E/DX2                !
 ! D56   D(10,9,11,24)        -165.7            estimate D2E/DX2                !
 ! D57   D(12,9,11,24)          75.5818         estimate D2E/DX2                !
 ! D58   D(5,9,12,22)         -165.3212         estimate D2E/DX2                !
 ! D59   D(10,9,12,22)         -43.1976         estimate D2E/DX2                !
 ! D60   D(11,9,12,22)          73.8589         estimate D2E/DX2                !
 --------------------------------------------------------------------------------
 Trust Radius=3.00D-01 FncErr=1.00D-07 GrdErr=1.00D-06 EigMax=2.50D+02 EigMin=1.00D-04
 Number of steps in this run=    148 maximum allowed number of steps=    198.
 GradGradGradGradGradGradGradGradGradGradGradGradGradGradGradGradGradGrad

                          Input orientation:                          
 ---------------------------------------------------------------------
 Center     Atomic      Atomic             Coordinates (Angstroms)
 Number     Number       Type             X           Y           Z
 ---------------------------------------------------------------------
      1         40           0        0.646460   -0.190130   -0.151900
      2          8           0       -0.192120   -0.931310    1.439390
      3          8           0        0.172630    1.703950   -0.190400
      4          8           0       -0.377720   -1.016920   -1.628440
      5          8           0        2.567800   -0.578830   -0.268120
      6         14           0       -1.969240   -1.332160   -1.878290
      7         14           0       -0.989580    2.856810   -0.118090
      8         14           0       -1.674760   -1.051520    2.177060
      9         14           0        3.962530    0.121870    0.223610
     10          8           0        4.653670    1.110880   -0.902270
     11          8           0        5.102740   -1.036260    0.548240
     12          8           0        3.534990    1.041630    1.526700
     13          8           0       -2.335740   -2.512450    1.830040
     14          8           0       -2.620900    0.209280    1.641490
     15          8           0       -1.552000   -0.824320    3.796500
     16          8           0       -2.254270   -1.591640   -3.481830
     17          8           0       -2.883710   -0.139120   -1.195570
     18          8           0       -2.460270   -2.685980   -1.045790
     19          8           0       -2.008250    2.456050   -1.396700
     20          8           0       -0.446230    4.381420   -0.415550
     21          8           0       -1.758350    2.867150    1.326420
     22          1           0        4.172830    1.699650    1.824660
     23          1           0        5.326880    0.708560   -1.462590
     24          1           0        4.811110   -1.822530    1.022560
     25          1           0       -2.407380   -2.745750    0.887120
     26          1           0       -0.933910   -1.385130    4.276380
     27          1           0       -3.029280    0.047050    0.770240
     28          1           0       -0.290290    4.933460    0.359240
     29          1           0       -2.094890    2.003210    1.642660
     30          1           0       -2.608600    3.158070   -1.677300
     31          1           0       -2.566020   -3.491430   -1.564360
     32          1           0       -1.552780   -1.337140   -4.091410
     33          1           0       -2.640460    0.789950   -1.408290
 ---------------------------------------------------------------------
                    Distance matrix (angstroms):
                    1          2          3          4          5
     1  Zr   0.000000
     2  O    1.945448   0.000000
     3  O    1.952828   3.119912   0.000000
     4  O    1.978054   3.074631   3.126336   0.000000
     5  O    1.963706   3.264505   3.309677   3.273909   0.000000
     6  Si   3.335647   3.784949   4.080998   1.641565   4.872872
     7  Si   3.458557   4.172714   1.638611   4.202537   4.947836
     8  Si   3.399134   1.660370   4.075577   4.020614   4.919518
     9  Si   3.351816   4.455157   4.127678   4.854349   1.636475
    10  O    4.279418   5.756352   4.575829   5.510875   2.758282
    11  O    4.589615   5.370354   5.688614   5.896927   2.702149
    12  O    3.560693   4.217993   3.833088   5.431559   2.604367
    13  O    4.267877   2.692159   5.305858   4.246356   5.673259
    14  O    3.748522   2.690866   3.659736   4.150646   5.584831
    15  O    4.563473   2.723360   5.026119   5.553918   5.792595
    16  O    4.633238   5.376514   5.252073   2.699407   5.882693
    17  O    3.681569   3.849056   3.707895   2.690334   5.547294
    18  O    4.084125   3.794666   5.189927   2.731713   5.506936
    19  O    3.949592   4.776604   2.603277   3.843677   5.605749
    20  O    4.707712   5.632981   2.757268   5.533342   5.806048
    21  O    4.161190   4.110248   2.717068   5.071818   5.756119
    22  H    4.462437   5.111083   4.479072   6.325437   3.485301
    23  H    4.942862   6.447482   5.401441   5.962151   3.270574
    24  H    4.624759   5.099052   5.951708   5.882242   2.871425
    25  H    4.115422   2.916260   5.255219   3.665572   5.548201
    26  H    4.851315   2.967274   5.542470   5.942375   5.793494
    27  H    3.797060   3.074805   3.731002   3.730478   5.726886
    28  H    5.233540   5.964217   3.308494   6.274196   6.240801
    29  H    3.942865   3.503321   2.931094   4.771787   5.662039
    30  H    4.912505   5.681211   3.472834   4.733894   6.537991
    31  H    4.818055   4.605663   6.031579   3.303931   6.043144
    32  H    4.655322   5.710153   5.238621   2.747640   5.672016
    33  H    3.652796   4.131148   3.198770   2.904004   5.504500
                    6          7          8          9         10
     6  Si   0.000000
     7  Si   4.648172   0.000000
     8  Si   4.075701   4.583910   0.000000
     9  Si   6.458954   5.667455   6.080448   0.000000
    10  O    7.126289   5.958983   7.362559   1.650279   0.000000
    11  O    7.482547   7.260603   6.970495   1.657326   2.629801
    12  O    6.893866   5.145090   5.652056   1.651300   2.675095
    13  O    3.908851   5.868246   1.640620   7.013449   8.333420
    14  O    3.897377   3.573058   1.664822   6.734952   7.759057
    15  O    5.712725   5.402874   1.639901   6.638589   8.020834
    16  O    1.649216   5.718645   5.714070   7.437406   7.853495
    17  O    1.650971   3.704631   3.697116   6.996656   7.645955
    18  O    1.663429   5.809137   3.698006   7.123746   8.065041
    19  O    3.818898   1.683194   5.018568   6.612414   6.814332
    20  O    6.091319   1.645645   6.143920   6.163559   6.078018
    21  O    5.286667   1.636375   4.010804   6.440592   7.011815
    22  H    7.786446   5.635936   6.472050   2.257649   2.830902
    23  H    7.587537   6.805904   8.085042   2.246982   0.963863
    24  H    7.391112   7.539583   6.632785   2.266958   3.512072
    25  H    3.136510   5.865943   2.251909   7.017068   8.242205
    26  H    6.241368   6.108070   2.251066   6.532313   8.016828
    27  H    3.168693   3.583889   2.240697   7.013545   7.934529
    28  H    6.861735   2.242616   6.406342   6.423105   6.375442
    29  H    4.851553   2.247350   3.129452   6.499652   7.267461
    30  H    4.539972   2.267845   5.783493   7.484098   7.585000
    31  H    2.262111   6.699031   4.554748   7.672988   8.587406
    32  H    2.251969   5.804626   6.276159   7.153094   7.394825
    33  H    2.274816   2.943116   4.144674   6.834391   7.318701
                   11         12         13         14         15
    11  O    0.000000
    12  O    2.780800   0.000000
    13  O    7.691107   6.869423   0.000000
    14  O    7.899442   6.212967   2.743115   0.000000
    15  O    7.408217   5.874626   2.707581   2.618195   0.000000
    16  O    8.406873   8.095370   5.391706   5.442990   7.352282
    17  O    8.223692   7.071395   3.884235   2.870429   5.211882
    18  O    7.903267   7.513716   2.883751   3.953455   5.266736
    19  O    8.157524   6.424513   5.933388   3.828043   6.159409
    20  O    7.814807   5.547670   7.492554   5.134915   6.787033
    21  O    7.932007   5.602864   5.433885   2.812034   4.446440
    22  H    3.158985   0.963644   7.752632   6.957695   6.559898
    23  H    2.671717   3.501094   8.940473   8.547035   8.793562
    24  H    0.963456   3.175855   7.225336   7.729560   7.012869
    25  H    7.709676   7.075668   0.973991   3.057265   3.589994
    26  H    7.103653   5.781087   3.036537   3.511513   0.962719
    27  H    8.206863   6.682145   2.855734   0.975792   3.478490
    28  H    8.047239   5.580508   7.860578   5.421604   6.823394
    29  H    7.889361   5.712585   4.525959   1.869458   3.595648
    30  H    9.055948   7.244904   6.673131   4.439581   6.851155
    31  H    8.324711   8.205218   3.540252   4.896503   6.072934
    32  H    8.118672   7.943998   6.087524   6.033112   7.904563
    33  H    8.192692   6.842053   4.635243   3.104629   5.557018
                   16         17         18         19         20
    16  O    0.000000
    17  O    2.780826   0.000000
    18  O    2.678490   2.586162   0.000000
    19  O    4.559834   2.746232   5.173774   0.000000
    20  O    6.953311   5.194711   7.375751   2.666385   0.000000
    21  O    6.576170   4.082221   6.079254   2.765291   2.655020
    22  H    8.960973   7.892884   8.454067   7.011066   5.791904
    23  H    8.175701   8.258550   8.505077   7.540703   6.922066
    24  H    8.382269   8.183167   7.608981   8.406113   8.258134
    25  H    4.521409   3.370313   1.934557   5.695073   7.505972
    26  H    7.872472   5.941086   5.687484   6.934891   7.450177
    27  H    4.622342   1.979964   3.330344   3.397265   5.183147
    28  H    7.822274   5.905449   8.046042   3.488878   0.964036
    29  H    6.261689   3.642439   5.417543   3.074131   3.551083
    30  H    5.093292   3.343533   5.879943   0.965396   2.786475
    31  H    2.717183   3.387464   0.963767   5.975930   8.233774
    32  H    0.963559   3.404778   3.452348   4.675169   6.887549
    33  H    3.181302   0.983662   3.499423   1.782053   4.324215
                   21         22         23         24         25
    21  O    0.000000
    22  H    6.065492   0.000000
    23  H    7.914453   3.622168   0.000000
    24  H    8.077328   3.668313   3.584467   0.000000
    25  H    5.667351   7.996232   8.790459   7.278549   0.000000
    26  H    5.240596   6.450240   8.747389   6.616942   3.938208
    27  H    3.142859   7.464133   8.674591   8.064162   2.863591
    28  H    2.712983   5.703019   7.260953   8.491624   7.983169
    29  H    0.979622   6.277706   8.148703   7.919195   4.818829
    30  H    3.135266   7.770361   8.307710   9.335294   6.439863
    31  H    7.031392   9.156684   8.941373   7.993712   2.567286
    32  H    6.860845   8.775226   7.643645   8.178471   5.244071
    33  H    3.545633   7.596081   7.967941   8.261960   4.221896
                   26         27         28         29         30
    26  H    0.000000
    27  H    4.328364   0.000000
    28  H    7.462092   5.616760   0.000000
    29  H    4.445807   2.336828   3.672889   0.000000
    30  H    7.674084   3.980687   3.560065   3.552426   0.000000
    31  H    6.419854   4.264482   8.936328   6.379499   6.650595
    32  H    8.390781   5.266087   7.792470   6.658181   5.210527
    33  H    6.321294   2.334325   5.080958   3.328354   2.383563
                   31         32         33
    31  H    0.000000
    32  H    3.471830   0.000000
    33  H    4.284870   3.592589   0.000000
 Stoichiometry    H12O16Si4Zr
 Framework group  C1[X(H12O16Si4Zr)]
 Deg. of freedom    93
 Full point group                 C1      NOp   1
 Largest Abelian subgroup         C1      NOp   1
 Largest concise Abelian subgroup C1      NOp   1
                         Standard orientation:                         
 ---------------------------------------------------------------------
 Center     Atomic      Atomic             Coordinates (Angstroms)
 Number     Number       Type             X           Y           Z
 ---------------------------------------------------------------------
      1         40           0        0.626004   -0.367691   -0.271460
      2          8           0       -0.206810   -1.084103    1.334137
      3          8           0        0.430479    1.572781   -0.172078
      4          8           0       -0.600380   -0.945125   -1.712032
      5          8           0        2.459087   -1.015045   -0.548737
      6         14           0       -2.233564   -1.016146   -1.861718
      7         14           0       -0.545077    2.870887    0.047602
      8         14           0       -1.640496   -1.041336    2.170525
      9         14           0        3.969499   -0.551044   -0.122817
     10          8           0        4.722720    0.401042   -1.240677
     11          8           0        4.948176   -1.876795    0.054112
     12          8           0        3.764876    0.334028    1.256157
     13          8           0       -2.527419   -2.369124    1.793719
     14          8           0       -2.426278    0.372062    1.774941
     15          8           0       -1.381863   -0.938383    3.786627
     16          8           0       -2.656065   -1.129139   -3.451887
     17          8           0       -2.919315    0.247459   -1.050080
     18          8           0       -2.861062   -2.337966   -1.070496
     19          8           0       -1.691448    2.700825   -1.173076
     20          8           0        0.193370    4.319634   -0.205331
     21          8           0       -1.209411    2.896522    1.542837
     22          1           0        4.509307    0.875022    1.542092
     23          1           0        5.292880   -0.055260   -1.869754
     24          1           0        4.576778   -2.642981    0.504968
     25          1           0       -2.692823   -2.528838    0.847256
     26          1           0       -0.822014   -1.610421    4.188823
     27          1           0       -2.909217    0.325414    0.928323
     28          1           0        0.477399    4.793173    0.584892
     29          1           0       -1.646615    2.070106    1.835323
     30          1           0       -2.200441    3.497044   -1.370431
     31          1           0       -3.115772   -3.085416   -1.623026
     32          1           0       -1.965876   -0.937371   -4.096332
     33          1           0       -2.558091    1.144707   -1.229116
 ---------------------------------------------------------------------
 Rotational constants (GHZ):           0.2168968           0.1400497           0.1307738
 General basis read from cards:  (5D, 7F)
 ======================================================================================================
                                       Pseudopotential Parameters
 ======================================================================================================
  Center     Atomic      Valence      Angular      Power
  Number     Number     Electrons     Momentum     of R      Exponent        Coefficient   SO-Coeffient
 ======================================================================================================
    1         40           12
                                      G and up 
                                                     2        1.0000000        0.00000000    0.00000000
                                      S - G
                                                     2        8.6365280      150.24299400    0.00000000
                                                     2        3.7176390       18.78003600    0.00000000
                                      P - G
                                                     2        7.6267280       33.19279100    0.00000000
                                                     2        7.4532070       66.38903900    0.00000000
                                                     2        3.3583890        4.62072600    0.00000000
                                                     2        3.2297380        9.26027000    0.00000000
                                      D - G
                                                     2        5.9380860       13.99338300    0.00000000
                                                     2        5.8255440       20.99588200    0.00000000
                                                     2        2.2050190        2.28516600    0.00000000
                                                     2        2.2062920        3.44126000    0.00000000
                                      F - G
                                                     2        4.8002150       -5.23932000    0.00000000
                                                     2        4.7989920       -6.98742400    0.00000000
    2          8
                                   No pseudopotential on this center.
    3          8
                                   No pseudopotential on this center.
    4          8
                                   No pseudopotential on this center.
    5          8
                                   No pseudopotential on this center.
    6         14
                                   No pseudopotential on this center.
    7         14
                                   No pseudopotential on this center.
    8         14
                                   No pseudopotential on this center.
    9         14
                                   No pseudopotential on this center.
   10          8
                                   No pseudopotential on this center.
   11          8
                                   No pseudopotential on this center.
   12          8
                                   No pseudopotential on this center.
   13          8
                                   No pseudopotential on this center.
   14          8
                                   No pseudopotential on this center.
   15          8
                                   No pseudopotential on this center.
   16          8
                                   No pseudopotential on this center.
   17          8
                                   No pseudopotential on this center.
   18          8
                                   No pseudopotential on this center.
   19          8
                                   No pseudopotential on this center.
   20          8
                                   No pseudopotential on this center.
   21          8
                                   No pseudopotential on this center.
   22          1
                                   No pseudopotential on this center.
   23          1
                                   No pseudopotential on this center.
   24          1
                                   No pseudopotential on this center.
   25          1
                                   No pseudopotential on this center.
   26          1
                                   No pseudopotential on this center.
   27          1
                                   No pseudopotential on this center.
   28          1
                                   No pseudopotential on this center.
   29          1
                                   No pseudopotential on this center.
   30          1
                                   No pseudopotential on this center.
   31          1
                                   No pseudopotential on this center.
   32          1
                                   No pseudopotential on this center.
   33          1
                                   No pseudopotential on this center.
 ======================================================================================================
 There are   570 symmetry adapted cartesian basis functions of A   symmetry.
 There are   524 symmetry adapted basis functions of A   symmetry.
   524 basis functions,  1074 primitive gaussians,   570 cartesian basis functions
   104 alpha electrons      104 beta electrons
       nuclear repulsion energy      2862.5473017854 Hartrees.
 NAtoms=   33 NActive=   33 NUniq=   33 SFac= 1.00D+00 NAtFMM=   60 NAOKFM=F Big=F
 Integral buffers will be    131072 words long.
 Raffenetti 2 integral format.
 Two-electron integral symmetry is turned on.
 Nuclear repulsion after empirical dispersion term =     2862.5060112899 Hartrees.
 One-electron integrals computed using PRISM.
 PrsmSu:  requested number of processors reduced to:   4 ShMem   1 Linda.
   1 Symmetry operations used in ECPInt.
 ECPInt:  NShTT=   13203 NPrTT=   78401 LenC2=   11598 LenP2D=   45030.
 LDataN:  DoStor=T MaxTD1= 8 Len=  415
 Number of processors reduced to  13 by ecpmxn.
 NBasis=   524 RedAO= T EigKep=  2.82D-05  NBF=   524
 NBsUse=   524 1.00D-06 EigRej= -1.00D+00 NBFU=   524
 Defaulting to unpruned grid for atomic number  40.
 ExpMin= 1.01D-02 ExpMax= 1.61D+04 ExpMxC= 2.43D+03 IAcc=3 IRadAn=         5 AccDes= 0.00D+00
 Harris functional with IExCor=  402 and IRadAn=       5 diagonalized for initial guess.
 HarFok:  IExCor=  402 AccDes= 0.00D+00 IRadAn=         5 IDoV= 1 UseB2=F ITyADJ=14
 ICtDFT=  3500011 ScaDFX=  1.000000  1.000000  1.000000  1.000000
 Defaulting to unpruned grid for atomic number  40.
 FoFCou: FMM=F IPFlag=           0 FMFlag=      100000 FMFlg1=           0
         NFxFlg=           0 DoJE=T BraDBF=F KetDBF=T FulRan=T
         wScrn=  0.000000 ICntrl=       500 IOpCl=  0 I1Cent=   200000004 NGrid=           0
         NMat0=    1 NMatS0=      1 NMatT0=    0 NMatD0=    1 NMtDS0=    0 NMtDT0=    0
 Petite list used in FoFCou.
 Requested convergence on RMS density matrix=1.00D-08 within 128 cycles.
 Requested convergence on MAX density matrix=1.00D-06.
 Requested convergence on             energy=1.00D-06.
 No special actions if energy rises.
 Defaulting to unpruned grid for atomic number  40.
 Defaulting to unpruned grid for atomic number  40.
 Defaulting to unpruned grid for atomic number  40.
 Defaulting to unpruned grid for atomic number  40.
 Defaulting to unpruned grid for atomic number  40.
 Defaulting to unpruned grid for atomic number  40.
 Defaulting to unpruned grid for atomic number  40.
 Defaulting to unpruned grid for atomic number  40.
 Defaulting to unpruned grid for atomic number  40.
 Defaulting to unpruned grid for atomic number  40.
 Defaulting to unpruned grid for atomic number  40.
 Defaulting to unpruned grid for atomic number  40.
 Defaulting to unpruned grid for atomic number  40.
 Defaulting to unpruned grid for atomic number  40.
 Defaulting to unpruned grid for atomic number  40.
 Defaulting to unpruned grid for atomic number  40.
 SCF Done:  E(RB3LYP) =  -2416.94512903     A.U. after   14 cycles
            NFock= 14  Conv=0.37D-08     -V/T= 2.0184

 **********************************************************************

            Population analysis using the SCF Density.

 **********************************************************************

 Orbital symmetries:
       Occupied  (A) (A) (A) (A) (A) (A) (A) (A) (A) (A) (A) (A)
                 (A) (A) (A) (A) (A) (A) (A) (A) (A) (A) (A) (A)
                 (A) (A) (A) (A) (A) (A) (A) (A) (A) (A) (A) (A)
                 (A) (A) (A) (A) (A) (A) (A) (A) (A) (A) (A) (A)
                 (A) (A) (A) (A) (A) (A) (A) (A) (A) (A) (A) (A)
                 (A) (A) (A) (A) (A) (A) (A) (A) (A) (A) (A) (A)
                 (A) (A) (A) (A) (A) (A) (A) (A) (A) (A) (A) (A)
                 (A) (A) (A) (A) (A) (A) (A) (A) (A) (A) (A) (A)
                 (A) (A) (A) (A) (A) (A) (A) (A)
       Virtual   (A) (A) (A) (A) (A) (A) (A) (A) (A) (A) (A) (A)
                 (A) (A) (A) (A) (A) (A) (A) (A) (A) (A) (A) (A)
                 (A) (A) (A) (A) (A) (A) (A) (A) (A) (A) (A) (A)
                 (A) (A) (A) (A) (A) (A) (A) (A) (A) (A) (A) (A)
                 (A) (A) (A) (A) (A) (A) (A) (A) (A) (A) (A) (A)
                 (A) (A) (A) (A) (A) (A) (A) (A) (A) (A) (A) (A)
                 (A) (A) (A) (A) (A) (A) (A) (A) (A) (A) (A) (A)
                 (A) (A) (A) (A) (A) (A) (A) (A) (A) (A) (A) (A)
                 (A) (A) (A) (A) (A) (A) (A) (A) (A) (A) (A) (A)
                 (A) (A) (A) (A) (A) (A) (A) (A) (A) (A) (A) (A)
                 (A) (A) (A) (A) (A) (A) (A) (A) (A) (A) (A) (A)
                 (A) (A) (A) (A) (A) (A) (A) (A) (A) (A) (A) (A)
                 (A) (A) (A) (A) (A) (A) (A) (A) (A) (A) (A) (A)
                 (A) (A) (A) (A) (A) (A) (A) (A) (A) (A) (A) (A)
                 (A) (A) (A) (A) (A) (A) (A) (A) (A) (A) (A) (A)
                 (A) (A) (A) (A) (A) (A) (A) (A) (A) (A) (A) (A)
                 (A) (A) (A) (A) (A) (A) (A) (A) (A) (A) (A) (A)
                 (A) (A) (A) (A) (A) (A) (A) (A) (A) (A) (A) (A)
                 (A) (A) (A) (A) (A) (A) (A) (A) (A) (A) (A) (A)
                 (A) (A) (A) (A) (A) (A) (A) (A) (A) (A) (A) (A)
                 (A) (A) (A) (A) (A) (A) (A) (A) (A) (A) (A) (A)
                 (A) (A) (A) (A) (A) (A) (A) (A) (A) (A) (A) (A)
                 (A) (A) (A) (A) (A) (A) (A) (A) (A) (A) (A) (A)
                 (A) (A) (A) (A) (A) (A) (A) (A) (A) (A) (A) (A)
                 (A) (A) (A) (A) (A) (A) (A) (A) (A) (A) (A) (A)
                 (A) (A) (A) (A) (A) (A) (A) (A) (A) (A) (A) (A)
                 (A) (A) (A) (A) (A) (A) (A) (A) (A) (A) (A) (A)
                 (A) (A) (A) (A) (A) (A) (A) (A) (A) (A) (A) (A)
                 (A) (A) (A) (A) (A) (A) (A) (A) (A) (A) (A) (A)
                 (A) (A) (A) (A) (A) (A) (A) (A) (A) (A) (A) (A)
                 (A) (A) (A) (A) (A) (A) (A) (A) (A) (A) (A) (A)
                 (A) (A) (A) (A) (A) (A) (A) (A) (A) (A) (A) (A)
                 (A) (A) (A) (A) (A) (A) (A) (A) (A) (A) (A) (A)
                 (A) (A) (A) (A) (A) (A) (A) (A) (A) (A) (A) (A)
                 (A) (A) (A) (A) (A) (A) (A) (A) (A) (A) (A) (A)
 The electronic state is 1-A.
 Alpha  occ. eigenvalues --  -66.22652 -66.21759 -66.21602 -66.20859 -19.18395
 Alpha  occ. eigenvalues --  -19.18216 -19.17679 -19.17018 -19.16831 -19.16829
 Alpha  occ. eigenvalues --  -19.16719 -19.16601 -19.16030 -19.15857 -19.15847
 Alpha  occ. eigenvalues --  -19.15579 -19.15344 -19.15070 -19.14727 -19.14470
 Alpha  occ. eigenvalues --   -5.36710  -5.35874  -5.35682  -5.34916  -3.72696
 Alpha  occ. eigenvalues --   -3.72670  -3.72616  -3.71839  -3.71829  -3.71797
 Alpha  occ. eigenvalues --   -3.71673  -3.71626  -3.71592  -3.70897  -3.70879
 Alpha  occ. eigenvalues --   -3.70825  -2.13143  -1.29437  -1.29325  -1.29169
 Alpha  occ. eigenvalues --   -1.05514  -1.04638  -1.04583  -1.03364  -1.02411
 Alpha  occ. eigenvalues --   -1.02021  -1.01511  -1.01320  -1.01067  -1.00555
 Alpha  occ. eigenvalues --   -0.99670  -0.99193  -0.97384  -0.96156  -0.95713
 Alpha  occ. eigenvalues --   -0.95125  -0.60779  -0.59343  -0.58990  -0.58795
 Alpha  occ. eigenvalues --   -0.55437  -0.54400  -0.54345  -0.53455  -0.52959
 Alpha  occ. eigenvalues --   -0.52441  -0.51726  -0.50037  -0.48517  -0.47630
 Alpha  occ. eigenvalues --   -0.47307  -0.46799  -0.43267  -0.42715  -0.41727
 Alpha  occ. eigenvalues --   -0.41603  -0.41299  -0.40381  -0.39738  -0.39505
 Alpha  occ. eigenvalues --   -0.39073  -0.38786  -0.38563  -0.38090  -0.37933
 Alpha  occ. eigenvalues --   -0.37579  -0.37347  -0.36954  -0.36623  -0.36364
 Alpha  occ. eigenvalues --   -0.36163  -0.35923  -0.35347  -0.35319  -0.34851
 Alpha  occ. eigenvalues --   -0.34343  -0.33959  -0.33791  -0.33499  -0.33006
 Alpha  occ. eigenvalues --   -0.32810  -0.32229  -0.31860  -0.31148
 Alpha virt. eigenvalues --   -0.04319  -0.02986  -0.02946  -0.02889  -0.01979
 Alpha virt. eigenvalues --   -0.01236  -0.00374  -0.00210   0.00005   0.00284
 Alpha virt. eigenvalues --    0.00733   0.01025   0.01287   0.02028   0.02250
 Alpha virt. eigenvalues --    0.02739   0.03324   0.03830   0.03925   0.04175
 Alpha virt. eigenvalues --    0.04494   0.04997   0.05836   0.06104   0.06169
 Alpha virt. eigenvalues --    0.06558   0.06788   0.07587   0.07807   0.08350
 Alpha virt. eigenvalues --    0.08687   0.08848   0.09236   0.09523   0.10073
 Alpha virt. eigenvalues --    0.10338   0.10809   0.11029   0.11115   0.11553
 Alpha virt. eigenvalues --    0.11973   0.12490   0.13059   0.13567   0.13725
 Alpha virt. eigenvalues --    0.14018   0.14224   0.14568   0.15050   0.15363
 Alpha virt. eigenvalues --    0.15583   0.15696   0.16372   0.16648   0.16860
 Alpha virt. eigenvalues --    0.17210   0.17389   0.17442   0.17817   0.18444
 Alpha virt. eigenvalues --    0.18638   0.18919   0.19237   0.19495   0.19846
 Alpha virt. eigenvalues --    0.20371   0.20652   0.21150   0.21350   0.21552
 Alpha virt. eigenvalues --    0.21828   0.22052   0.22426   0.22583   0.23237
 Alpha virt. eigenvalues --    0.23616   0.23982   0.24288   0.24562   0.24695
 Alpha virt. eigenvalues --    0.25113   0.25768   0.26036   0.26276   0.26335
 Alpha virt. eigenvalues --    0.26581   0.27110   0.27299   0.27443   0.27717
 Alpha virt. eigenvalues --    0.28074   0.28248   0.28716   0.28841   0.29310
 Alpha virt. eigenvalues --    0.29641   0.29945   0.30294   0.30655   0.31031
 Alpha virt. eigenvalues --    0.31135   0.31226   0.31955   0.32255   0.32518
 Alpha virt. eigenvalues --    0.32897   0.33026   0.33411   0.33746   0.34170
 Alpha virt. eigenvalues --    0.34725   0.35105   0.35368   0.36058   0.36662
 Alpha virt. eigenvalues --    0.37288   0.37703   0.38551   0.38710   0.39845
 Alpha virt. eigenvalues --    0.40043   0.40372   0.40610   0.41091   0.41453
 Alpha virt. eigenvalues --    0.41825   0.43075   0.43294   0.43909   0.44467
 Alpha virt. eigenvalues --    0.45245   0.45957   0.46294   0.46637   0.47112
 Alpha virt. eigenvalues --    0.47407   0.48555   0.49133   0.50091   0.50130
 Alpha virt. eigenvalues --    0.50312   0.51244   0.51418   0.52845   0.53348
 Alpha virt. eigenvalues --    0.54188   0.54859   0.55403   0.55975   0.56957
 Alpha virt. eigenvalues --    0.57529   0.58818   0.59419   0.60216   0.60688
 Alpha virt. eigenvalues --    0.61072   0.62321   0.62618   0.65261   0.66139
 Alpha virt. eigenvalues --    0.66337   0.67193   0.67980   0.68285   0.69308
 Alpha virt. eigenvalues --    0.70416   0.72239   0.72541   0.73327   0.74357
 Alpha virt. eigenvalues --    0.76233   0.77077   0.77825   0.78945   0.79972
 Alpha virt. eigenvalues --    0.81194   0.82364   0.83767   0.84284   0.85754
 Alpha virt. eigenvalues --    0.86701   0.87924   0.89540   0.91226   0.91294
 Alpha virt. eigenvalues --    0.92534   0.95973   0.96324   0.96894   0.97490
 Alpha virt. eigenvalues --    0.97806   0.98310   0.98834   0.99594   1.00159
 Alpha virt. eigenvalues --    1.01123   1.01431   1.02108   1.03422   1.03881
 Alpha virt. eigenvalues --    1.04556   1.04976   1.05438   1.07980   1.08564
 Alpha virt. eigenvalues --    1.09697   1.11979   1.15281   1.16386   1.17041
 Alpha virt. eigenvalues --    1.18943   1.19389   1.20306   1.20666   1.20856
 Alpha virt. eigenvalues --    1.21873   1.22448   1.22629   1.22986   1.23517
 Alpha virt. eigenvalues --    1.24312   1.24506   1.24610   1.25493   1.25761
 Alpha virt. eigenvalues --    1.26709   1.27032   1.28174   1.28233   1.28567
 Alpha virt. eigenvalues --    1.29763   1.30276   1.30550   1.31617   1.31993
 Alpha virt. eigenvalues --    1.32328   1.32728   1.33641   1.34488   1.35276
 Alpha virt. eigenvalues --    1.36599   1.36679   1.37073   1.37599   1.38075
 Alpha virt. eigenvalues --    1.39514   1.40503   1.40582   1.41392   1.41707
 Alpha virt. eigenvalues --    1.42219   1.42745   1.43704   1.44900   1.46125
 Alpha virt. eigenvalues --    1.47779   1.49106   1.50403   1.51537   1.53163
 Alpha virt. eigenvalues --    1.56753   1.56860   1.57863   1.59080   1.59431
 Alpha virt. eigenvalues --    1.60445   1.61065   1.61336   1.61809   1.62999
 Alpha virt. eigenvalues --    1.64193   1.64541   1.65037   1.65885   1.66670
 Alpha virt. eigenvalues --    1.67446   1.67916   1.69033   1.69851   1.70542
 Alpha virt. eigenvalues --    1.71172   1.71590   1.72317   1.72547   1.73057
 Alpha virt. eigenvalues --    1.74373   1.75064   1.75563   1.76825   1.76917
 Alpha virt. eigenvalues --    1.77103   1.78276   1.78929   1.79753   1.80081
 Alpha virt. eigenvalues --    1.80489   1.81086   1.82094   1.82366   1.83010
 Alpha virt. eigenvalues --    1.83885   1.84899   1.85235   1.86253   1.86472
 Alpha virt. eigenvalues --    1.87450   1.87801   1.89647   1.90168   1.90751
 Alpha virt. eigenvalues --    1.91441   1.92357   1.93089   1.93827   1.94193
 Alpha virt. eigenvalues --    1.94359   1.95873   1.96350   1.97722   1.98136
 Alpha virt. eigenvalues --    1.98749   1.99921   2.02202   2.04421   2.05884
 Alpha virt. eigenvalues --    2.06849   2.07461   2.08668   2.10747   2.10884
 Alpha virt. eigenvalues --    2.12664   2.13738   2.14081   2.16156   2.16362
 Alpha virt. eigenvalues --    2.16556   2.19880   2.20211   2.22875   2.29428
 Alpha virt. eigenvalues --    2.32144   2.34623   2.37329   2.39692   2.40254
 Alpha virt. eigenvalues --    2.41126   2.41608   2.43175   2.43601   2.43878
 Alpha virt. eigenvalues --    2.44714   2.45590   2.45914   2.48288   2.49385
 Alpha virt. eigenvalues --    2.49527   2.50482   2.50995   2.53041   2.53686
 Alpha virt. eigenvalues --    2.54746   2.57790   2.60174   2.60527   2.60992
 Alpha virt. eigenvalues --    2.61221   2.61577   2.61891   2.62300   2.62980
 Alpha virt. eigenvalues --    2.63439   2.63643   2.65108   2.65497   2.65803
 Alpha virt. eigenvalues --    2.66670   2.66925   2.67579   2.68020   2.68138
 Alpha virt. eigenvalues --    2.69661   2.71235   2.71403   2.72345   2.73480
 Alpha virt. eigenvalues --    2.74730   2.75813   2.76537   2.78052   2.78816
 Alpha virt. eigenvalues --    2.79865   2.80409   2.82179   2.83382   2.83548
 Alpha virt. eigenvalues --    2.84286   2.85677   2.87448   2.88234   2.88364
 Alpha virt. eigenvalues --    3.15275   3.26970   3.37191   3.39664   3.46278
 Alpha virt. eigenvalues --    3.47892   3.48879   3.49111   3.49320   3.52399
 Alpha virt. eigenvalues --    3.52929   3.54469   3.60101   3.61408   3.62246
 Alpha virt. eigenvalues --    3.65975   4.35150   5.24172   7.51269  31.17824
          Condensed to atoms (all electrons):
               1          2          3          4          5          6
     1  Zr  16.073768  -0.132142   0.005965  -0.213931   0.016705  -0.849926
     2  O   -0.132142   8.840683   0.011580  -0.052701  -0.053186   0.085461
     3  O    0.005965   0.011580   8.855659   0.010685  -0.058156  -0.005032
     4  O   -0.213931  -0.052701   0.010685   8.913759  -0.068760  -0.833332
     5  O    0.016705  -0.053186  -0.058156  -0.068760   9.153395  -0.003528
     6  Si  -0.849926   0.085461  -0.005032  -0.833332  -0.003528  14.366571
     7  Si  -0.669754  -0.010413  -0.930187  -0.015970  -0.031028   0.122605
     8  Si  -0.681021  -0.686202  -0.036215   0.086167  -0.010368   0.001197
     9  Si  -0.884965   0.007609   0.044972   0.021264  -0.962430   0.088559
    10  O   -0.040867   0.000200  -0.001525  -0.000852   0.111514  -0.000670
    11  O   -0.161220   0.000632   0.001855   0.001535   0.310352   0.000250
    12  O    0.052282   0.001625   0.012077   0.000930   0.123240  -0.003570
    13  O    0.025833   0.269487   0.000989  -0.013552  -0.000374   0.012569
    14  O   -0.090006   0.240595  -0.019533  -0.004092  -0.000656   0.022817
    15  O   -0.068505   0.238683   0.000726   0.002488   0.000612   0.001376
    16  O   -0.102681   0.005342  -0.000317   0.344422   0.002309  -0.456204
    17  O   -0.138786  -0.038136   0.007565   0.220332  -0.000955  -0.427279
    18  O   -0.078178  -0.022341   0.003153   0.246295  -0.001049  -0.498562
    19  O   -0.004336   0.007718   0.284072   0.015700   0.001955  -0.002957
    20  O   -0.133922  -0.000865   0.145336  -0.000390   0.000781   0.010831
    21  O    0.054835   0.010977   0.167727   0.004551   0.001290  -0.021234
    22  H   -0.018192   0.000045   0.000354   0.000004   0.003107   0.000234
    23  H   -0.004651  -0.000010   0.000010  -0.000026  -0.023564   0.000098
    24  H   -0.008638  -0.000012   0.000028   0.000012  -0.001461   0.000092
    25  H    0.017877  -0.021350  -0.000109  -0.001716  -0.000017   0.002355
    26  H   -0.008083  -0.012085   0.000010  -0.000013  -0.000020  -0.000041
    27  H    0.017291  -0.021292   0.000794  -0.001436   0.000041   0.007501
    28  H    0.003925  -0.000013  -0.017113  -0.000014  -0.000005  -0.000341
    29  H    0.000054  -0.004813  -0.019324  -0.000196  -0.000039   0.000757
    30  H    0.000548  -0.000010  -0.000126  -0.000554  -0.000007  -0.001638
    31  H    0.004876   0.000297  -0.000022  -0.019142  -0.000013   0.063069
    32  H    0.003432  -0.000031   0.000037   0.011794   0.000017   0.017499
    33  H   -0.022168   0.000979  -0.010900  -0.009290  -0.000046   0.057216
               7          8          9         10         11         12
     1  Zr  -0.669754  -0.681021  -0.884965  -0.040867  -0.161220   0.052282
     2  O   -0.010413  -0.686202   0.007609   0.000200   0.000632   0.001625
     3  O   -0.930187  -0.036215   0.044972  -0.001525   0.001855   0.012077
     4  O   -0.015970   0.086167   0.021264  -0.000852   0.001535   0.000930
     5  O   -0.031028  -0.010368  -0.962430   0.111514   0.310352   0.123240
     6  Si   0.122605   0.001197   0.088559  -0.000670   0.000250  -0.003570
     7  Si  13.867151   0.184318   0.048668   0.002058  -0.000503   0.000300
     8  Si   0.184318  13.651702   0.056334  -0.001579   0.003114  -0.006989
     9  Si   0.048668   0.056334  13.965003  -0.005031  -0.147791  -0.243724
    10  O    0.002058  -0.001579  -0.005031   8.564950  -0.046349   0.064679
    11  O   -0.000503   0.003114  -0.147791  -0.046349   8.632072  -0.057829
    12  O    0.000300  -0.006989  -0.243724   0.064679  -0.057829   8.674588
    13  O    0.000664  -0.157804  -0.003380  -0.000002   0.000024  -0.000115
    14  O    0.031421  -0.460826   0.001492   0.000002   0.000013   0.000197
    15  O   -0.001184  -0.373191   0.000407   0.000007  -0.000037   0.000422
    16  O    0.004018  -0.011663  -0.002301   0.000008  -0.000005   0.000001
    17  O    0.005913   0.110224   0.005259   0.000013   0.000007  -0.000019
    18  O   -0.002928   0.089743   0.004356   0.000009   0.000004   0.000001
    19  O   -0.454087  -0.018465   0.001757  -0.000021   0.000005  -0.000175
    20  O   -0.090479   0.009080   0.005179   0.000121   0.000002  -0.000157
    21  O   -0.004055  -0.050077  -0.005408  -0.000018   0.000010  -0.000358
    22  H    0.000440   0.000419   0.056274  -0.003121  -0.004017   0.226396
    23  H   -0.000051   0.000052   0.070892   0.233371  -0.004908   0.005124
    24  H    0.000057   0.000194   0.043289   0.008092   0.231755  -0.006617
    25  H   -0.000194   0.055091  -0.000192  -0.000000   0.000000  -0.000000
    26  H    0.000544   0.065275  -0.000666   0.000000   0.000000  -0.000014
    27  H   -0.001378   0.073071  -0.000131  -0.000000  -0.000000   0.000001
    28  H    0.055641   0.000087  -0.000167  -0.000000  -0.000000  -0.000013
    29  H    0.047855   0.021934   0.000026   0.000000  -0.000000   0.000008
    30  H    0.044892   0.000220  -0.000039   0.000000  -0.000000  -0.000000
    31  H    0.000093  -0.003418  -0.000066  -0.000000  -0.000000   0.000000
    32  H   -0.000652   0.000212  -0.000073  -0.000000   0.000000  -0.000000
    33  H    0.022404   0.000580   0.000230  -0.000000  -0.000000   0.000001
              13         14         15         16         17         18
     1  Zr   0.025833  -0.090006  -0.068505  -0.102681  -0.138786  -0.078178
     2  O    0.269487   0.240595   0.238683   0.005342  -0.038136  -0.022341
     3  O    0.000989  -0.019533   0.000726  -0.000317   0.007565   0.003153
     4  O   -0.013552  -0.004092   0.002488   0.344422   0.220332   0.246295
     5  O   -0.000374  -0.000656   0.000612   0.002309  -0.000955  -0.001049
     6  Si   0.012569   0.022817   0.001376  -0.456204  -0.427279  -0.498562
     7  Si   0.000664   0.031421  -0.001184   0.004018   0.005913  -0.002928
     8  Si  -0.157804  -0.460826  -0.373191  -0.011663   0.110224   0.089743
     9  Si  -0.003380   0.001492   0.000407  -0.002301   0.005259   0.004356
    10  O   -0.000002   0.000002   0.000007   0.000008   0.000013   0.000009
    11  O    0.000024   0.000013  -0.000037  -0.000005   0.000007   0.000004
    12  O   -0.000115   0.000197   0.000422   0.000001  -0.000019   0.000001
    13  O    8.646263   0.022820  -0.122902   0.004095  -0.028975  -0.043301
    14  O    0.022820   8.815480   0.156379   0.002241  -0.026893  -0.023184
    15  O   -0.122902   0.156379   8.795601  -0.000171   0.003955   0.001386
    16  O    0.004095   0.002241  -0.000171   8.900694  -0.098583  -0.099359
    17  O   -0.028975  -0.026893   0.003955  -0.098583   8.938623   0.229961
    18  O   -0.043301  -0.023184   0.001386  -0.099359   0.229961   9.050415
    19  O    0.000227   0.000707   0.000343  -0.000860  -0.029923   0.000077
    20  O    0.000006  -0.001338   0.000002   0.000024  -0.000976   0.000025
    21  O   -0.000336   0.024732   0.000760  -0.000137  -0.006286   0.000402
    22  H   -0.000000  -0.000000   0.000003  -0.000000   0.000000   0.000000
    23  H    0.000000  -0.000000   0.000000  -0.000000   0.000000  -0.000000
    24  H   -0.000000   0.000000   0.000000   0.000000  -0.000000  -0.000000
    25  H    0.218070  -0.009074   0.007366  -0.000287   0.000571   0.014972
    26  H   -0.006620   0.001009   0.224772   0.000000  -0.000024   0.000005
    27  H   -0.004616   0.205774   0.000136   0.000340   0.017132  -0.000915
    28  H    0.000000  -0.000004  -0.000001   0.000000   0.000002   0.000000
    29  H    0.000770   0.015013  -0.001313  -0.000004  -0.000597  -0.000003
    30  H    0.000001   0.000013   0.000001   0.000115  -0.000545  -0.000012
    31  H    0.002238   0.000084  -0.000018   0.005059  -0.001374   0.214441
    32  H   -0.000007  -0.000007   0.000000   0.236668  -0.003461   0.003957
    33  H    0.000250   0.002264  -0.000057   0.000353   0.231103   0.002180
              19         20         21         22         23         24
     1  Zr  -0.004336  -0.133922   0.054835  -0.018192  -0.004651  -0.008638
     2  O    0.007718  -0.000865   0.010977   0.000045  -0.000010  -0.000012
     3  O    0.284072   0.145336   0.167727   0.000354   0.000010   0.000028
     4  O    0.015700  -0.000390   0.004551   0.000004  -0.000026   0.000012
     5  O    0.001955   0.000781   0.001290   0.003107  -0.023564  -0.001461
     6  Si  -0.002957   0.010831  -0.021234   0.000234   0.000098   0.000092
     7  Si  -0.454087  -0.090479  -0.004055   0.000440  -0.000051   0.000057
     8  Si  -0.018465   0.009080  -0.050077   0.000419   0.000052   0.000194
     9  Si   0.001757   0.005179  -0.005408   0.056274   0.070892   0.043289
    10  O   -0.000021   0.000121  -0.000018  -0.003121   0.233371   0.008092
    11  O    0.000005   0.000002   0.000010  -0.004017  -0.004908   0.231755
    12  O   -0.000175  -0.000157  -0.000358   0.226396   0.005124  -0.006617
    13  O    0.000227   0.000006  -0.000336  -0.000000   0.000000  -0.000000
    14  O    0.000707  -0.001338   0.024732  -0.000000  -0.000000   0.000000
    15  O    0.000343   0.000002   0.000760   0.000003   0.000000   0.000000
    16  O   -0.000860   0.000024  -0.000137  -0.000000  -0.000000   0.000000
    17  O   -0.029923  -0.000976  -0.006286   0.000000   0.000000  -0.000000
    18  O    0.000077   0.000025   0.000402   0.000000  -0.000000  -0.000000
    19  O    8.895997   0.034752   0.026455  -0.000000   0.000000  -0.000000
    20  O    0.034752   8.649952  -0.056226   0.000001  -0.000000  -0.000000
    21  O    0.026455  -0.056226   8.492110  -0.000007   0.000000   0.000000
    22  H   -0.000000   0.000001  -0.000007   0.341956   0.000039   0.000103
    23  H    0.000000  -0.000000   0.000000   0.000039   0.350720   0.000036
    24  H   -0.000000  -0.000000   0.000000   0.000103   0.000036   0.368883
    25  H   -0.000032   0.000000  -0.000009   0.000000   0.000000   0.000000
    26  H    0.000000  -0.000000   0.000051  -0.000000  -0.000000  -0.000000
    27  H   -0.000233   0.000227  -0.004734  -0.000000   0.000000   0.000000
    28  H    0.004249   0.228687  -0.001272  -0.000000   0.000000  -0.000000
    29  H   -0.008291   0.008178   0.208745   0.000000  -0.000000  -0.000000
    30  H    0.221683  -0.001847  -0.007461   0.000000  -0.000000  -0.000000
    31  H    0.000002  -0.000000  -0.000000  -0.000000   0.000000   0.000000
    32  H    0.000082   0.000000   0.000001   0.000000  -0.000000  -0.000000
    33  H    0.013118   0.000011   0.001273  -0.000000  -0.000000   0.000000
              25         26         27         28         29         30
     1  Zr   0.017877  -0.008083   0.017291   0.003925   0.000054   0.000548
     2  O   -0.021350  -0.012085  -0.021292  -0.000013  -0.004813  -0.000010
     3  O   -0.000109   0.000010   0.000794  -0.017113  -0.019324  -0.000126
     4  O   -0.001716  -0.000013  -0.001436  -0.000014  -0.000196  -0.000554
     5  O   -0.000017  -0.000020   0.000041  -0.000005  -0.000039  -0.000007
     6  Si   0.002355  -0.000041   0.007501  -0.000341   0.000757  -0.001638
     7  Si  -0.000194   0.000544  -0.001378   0.055641   0.047855   0.044892
     8  Si   0.055091   0.065275   0.073071   0.000087   0.021934   0.000220
     9  Si  -0.000192  -0.000666  -0.000131  -0.000167   0.000026  -0.000039
    10  O   -0.000000   0.000000  -0.000000  -0.000000   0.000000   0.000000
    11  O    0.000000   0.000000  -0.000000  -0.000000  -0.000000  -0.000000
    12  O   -0.000000  -0.000014   0.000001  -0.000013   0.000008  -0.000000
    13  O    0.218070  -0.006620  -0.004616   0.000000   0.000770   0.000001
    14  O   -0.009074   0.001009   0.205774  -0.000004   0.015013   0.000013
    15  O    0.007366   0.224772   0.000136  -0.000001  -0.001313   0.000001
    16  O   -0.000287   0.000000   0.000340   0.000000  -0.000004   0.000115
    17  O    0.000571  -0.000024   0.017132   0.000002  -0.000597  -0.000545
    18  O    0.014972   0.000005  -0.000915   0.000000  -0.000003  -0.000012
    19  O   -0.000032   0.000000  -0.000233   0.004249  -0.008291   0.221683
    20  O    0.000000  -0.000000   0.000227   0.228687   0.008178  -0.001847
    21  O   -0.000009   0.000051  -0.004734  -0.001272   0.208745  -0.007461
    22  H    0.000000  -0.000000  -0.000000  -0.000000   0.000000   0.000000
    23  H    0.000000  -0.000000   0.000000   0.000000  -0.000000  -0.000000
    24  H    0.000000  -0.000000   0.000000  -0.000000  -0.000000  -0.000000
    25  H    0.301471  -0.000029   0.000016   0.000000   0.000001   0.000000
    26  H   -0.000029   0.369597  -0.000036   0.000000   0.000017  -0.000000
    27  H    0.000016  -0.000036   0.285024  -0.000000  -0.001040   0.000005
    28  H    0.000000   0.000000  -0.000000   0.350216  -0.000022  -0.000006
    29  H    0.000001   0.000017  -0.001040  -0.000022   0.285743   0.000166
    30  H    0.000000  -0.000000   0.000005  -0.000006   0.000166   0.335326
    31  H   -0.000140   0.000000   0.000014   0.000000   0.000000  -0.000000
    32  H   -0.000001  -0.000000  -0.000000  -0.000000  -0.000000  -0.000000
    33  H    0.000004   0.000000  -0.002437  -0.000002   0.000128  -0.000998
              31         32         33
     1  Zr   0.004876   0.003432  -0.022168
     2  O    0.000297  -0.000031   0.000979
     3  O   -0.000022   0.000037  -0.010900
     4  O   -0.019142   0.011794  -0.009290
     5  O   -0.000013   0.000017  -0.000046
     6  Si   0.063069   0.017499   0.057216
     7  Si   0.000093  -0.000652   0.022404
     8  Si  -0.003418   0.000212   0.000580
     9  Si  -0.000066  -0.000073   0.000230
    10  O   -0.000000  -0.000000  -0.000000
    11  O   -0.000000   0.000000  -0.000000
    12  O    0.000000  -0.000000   0.000001
    13  O    0.002238  -0.000007   0.000250
    14  O    0.000084  -0.000007   0.002264
    15  O   -0.000018   0.000000  -0.000057
    16  O    0.005059   0.236668   0.000353
    17  O   -0.001374  -0.003461   0.231103
    18  O    0.214441   0.003957   0.002180
    19  O    0.000002   0.000082   0.013118
    20  O   -0.000000   0.000000   0.000011
    21  O   -0.000000   0.000001   0.001273
    22  H   -0.000000   0.000000  -0.000000
    23  H    0.000000  -0.000000  -0.000000
    24  H    0.000000  -0.000000   0.000000
    25  H   -0.000140  -0.000001   0.000004
    26  H    0.000000  -0.000000   0.000000
    27  H    0.000014  -0.000000  -0.002437
    28  H    0.000000  -0.000000  -0.000002
    29  H    0.000000  -0.000000   0.000128
    30  H   -0.000000  -0.000000  -0.000998
    31  H    0.327863  -0.000013  -0.000037
    32  H   -0.000013   0.348981   0.000149
    33  H   -0.000037   0.000149   0.270484
 Mulliken charges:
               1
     1  Zr   0.034578
     2  O   -0.666311
     3  O   -0.455034
     4  O   -0.643971
     5  O   -0.509656
     6  Si   2.243255
     7  Si   1.773821
     8  Si   2.088803
     9  Si   1.834793
    10  O   -0.884987
    11  O   -0.758969
    12  O   -0.842294
    13  O   -0.822322
    14  O   -0.907440
    15  O   -0.868046
    16  O   -0.733116
    17  O   -0.967851
    18  O   -1.091550
    19  O   -0.989519
    20  O   -0.806995
    21  O   -0.836300
    22  H    0.395963
    23  H    0.372868
    24  H    0.364187
    25  H    0.415354
    26  H    0.366347
    27  H    0.430881
    28  H    0.376165
    29  H    0.446248
    30  H    0.410272
    31  H    0.406207
    32  H    0.381415
    33  H    0.443206
 Sum of Mulliken charges =  -0.00000
 Mulliken charges with hydrogens summed into heavy atoms:
               1
     1  Zr   0.034578
     2  O   -0.666311
     3  O   -0.455034
     4  O   -0.643971
     5  O   -0.509656
     6  Si   2.243255
     7  Si   1.773821
     8  Si   2.088803
     9  Si   1.834793
    10  O   -0.512119
    11  O   -0.394782
    12  O   -0.446332
    13  O   -0.406968
    14  O   -0.476559
    15  O   -0.501699
    16  O   -0.351702
    17  O   -0.524645
    18  O   -0.685343
    19  O   -0.579247
    20  O   -0.430830
    21  O   -0.390052
 Electronic spatial extent (au):  <R**2>=           9452.2906
 Charge=              0.0000 electrons
 Dipole moment (field-independent basis, Debye):
    X=              3.0395    Y=             -1.3724    Z=             -3.0617  Tot=              4.5273
 Quadrupole moment (field-independent basis, Debye-Ang):
   XX=           -165.1177   YY=           -150.4187   ZZ=           -159.8309
   XY=             -4.1384   XZ=             14.0566   YZ=              2.1067
 Traceless Quadrupole moment (field-independent basis, Debye-Ang):
   XX=             -6.6619   YY=              8.0371   ZZ=             -1.3752
   XY=             -4.1384   XZ=             14.0566   YZ=              2.1067
 Octapole moment (field-independent basis, Debye-Ang**2):
  XXX=             84.2427  YYY=             -7.1132  ZZZ=            -52.6826  XYY=             -5.8144
  XXY=             15.9233  XXZ=            -19.2661  XZZ=             60.5717  YZZ=            -28.5177
  YYZ=              0.4033  XYZ=              5.4294
 Hexadecapole moment (field-independent basis, Debye-Ang**3):
 XXXX=          -5886.4835 YYYY=          -2714.5345 ZZZZ=          -2287.4496 XXXY=             46.0735
 XXXZ=             -0.3009 YYYX=            -35.3463 YYYZ=            117.1272 ZZZX=             60.2699
 ZZZY=            -88.9942 XXYY=          -1369.7313 XXZZ=          -1412.5594 YYZZ=           -882.1529
 XXYZ=             63.2765 YYXZ=            214.3427 ZZXY=            -27.0192
 N-N= 2.862506011290D+03 E-N=-1.143771168135D+04  KE= 2.373176397305D+03
 PrsmSu:  requested number of processors reduced to:   2 ShMem   1 Linda.
 PrsmSu:  requested number of processors reduced to:  10 ShMem   1 Linda.
   1 Symmetry operations used in ECPInt.
 ECPInt:  NShTT=   13203 NPrTT=   78401 LenC2=   11598 LenP2D=   45030.
 LDataN:  DoStor=T MaxTD1= 9 Len=  602
 Number of processors reduced to  14 by ecpmxn.
 Calling FoFJK, ICntrl=      2127 FMM=F ISym2X=0 I1Cent= 0 IOpClX= 0 NMat=1 NMatS=1 NMatT=0.
 CoulSu:  requested number of processors reduced to:  10 ShMem   1 Linda.
 Defaulting to unpruned grid for atomic number  40.
 Defaulting to unpruned grid for atomic number  40.
 Defaulting to unpruned grid for atomic number  40.
 Defaulting to unpruned grid for atomic number  40.
 Defaulting to unpruned grid for atomic number  40.
 Defaulting to unpruned grid for atomic number  40.
 Defaulting to unpruned grid for atomic number  40.
 Defaulting to unpruned grid for atomic number  40.
 Defaulting to unpruned grid for atomic number  40.
 Defaulting to unpruned grid for atomic number  40.
 Defaulting to unpruned grid for atomic number  40.
 Defaulting to unpruned grid for atomic number  40.
 Defaulting to unpruned grid for atomic number  40.
 Defaulting to unpruned grid for atomic number  40.
 Defaulting to unpruned grid for atomic number  40.
 Defaulting to unpruned grid for atomic number  40.
 ***** Axes restored to original set *****
 -------------------------------------------------------------------
 Center     Atomic                   Forces (Hartrees/Bohr)
 Number     Number              X              Y              Z
 -------------------------------------------------------------------
      1       40          -0.006527405    0.000925373    0.000573078
      2        8          -0.000192662   -0.000317672    0.000203131
      3        8          -0.000219956   -0.000132292   -0.000406288
      4        8          -0.000018056   -0.000082913   -0.000126685
      5        8           0.002604101    0.001665382    0.000836716
      6       14           0.000252478    0.000006972    0.000234658
      7       14           0.000423778   -0.000617523    0.000102768
      8       14           0.000585171    0.000097571   -0.000363573
      9       14           0.005912445   -0.003477411   -0.002664745
     10        8          -0.000290918    0.000367009    0.000689820
     11        8          -0.000313810    0.000717015    0.000448184
     12        8          -0.001079361    0.000235685    0.000412932
     13        8          -0.000164954   -0.000064851    0.000062402
     14        8          -0.000144490    0.000047239    0.000037152
     15        8          -0.000095653   -0.000024375    0.000179227
     16        8          -0.000066578   -0.000008040   -0.000082864
     17        8          -0.000019261   -0.000000793   -0.000052199
     18        8          -0.000075861   -0.000001361   -0.000046380
     19        8          -0.000072335    0.000121700   -0.000050531
     20        8           0.000024947    0.000231566   -0.000011893
     21        8          -0.000089287    0.000135550   -0.000004077
     22        1          -0.000461895    0.000521590    0.000282355
     23        1          -0.000033805   -0.000019989   -0.000048078
     24        1          -0.000078479   -0.000176106   -0.000175204
     25        1           0.000028405   -0.000007899    0.000013588
     26        1           0.000002471    0.000030603   -0.000076707
     27        1           0.000016566   -0.000001758    0.000019395
     28        1          -0.000040215   -0.000082314   -0.000026524
     29        1           0.000049326   -0.000044848   -0.000012895
     30        1          -0.000012048   -0.000015138   -0.000000557
     31        1           0.000034888    0.000013088    0.000009534
     32        1           0.000025805   -0.000005268    0.000021839
     33        1           0.000036645   -0.000035793    0.000022425
 -------------------------------------------------------------------
 Cartesian Forces:  Max     0.006527405 RMS     0.001071190

 GradGradGradGradGradGradGradGradGradGradGradGradGradGradGradGradGradGrad
 Berny optimization.
 FormGI is forming the generalized inverse of G from B-inverse, IUseBI=4.
 Internal  Forces:  Max     0.006165602 RMS     0.000807833
 Search for a local minimum.
 Step number   1 out of a maximum of  148
 All quantities printed in internal units (Hartrees-Bohrs-Radians)
 Mixed Optimization -- En-DIIS/RFO-DIIS
 Second derivative matrix not updated -- first step.
 ITU=  0
     Eigenvalues ---    0.00230   0.00230   0.00230   0.00230   0.03239
     Eigenvalues ---    0.03482   0.03500   0.03541   0.03581   0.03661
     Eigenvalues ---    0.03665   0.03674   0.03688   0.03735   0.03789
     Eigenvalues ---    0.03802   0.03811   0.03828   0.03857   0.03858
     Eigenvalues ---    0.08414   0.09469   0.11097   0.11247   0.11629
     Eigenvalues ---    0.11809   0.11979   0.12095   0.12205   0.12217
     Eigenvalues ---    0.12600   0.12707   0.12970   0.13105   0.13263
     Eigenvalues ---    0.16000   0.16000   0.16000   0.16000   0.16000
     Eigenvalues ---    0.16000   0.16000   0.16000   0.16000   0.16000
     Eigenvalues ---    0.16000   0.16000   0.19184   0.19894   0.19953
     Eigenvalues ---    0.20035   0.20159   0.20200   0.20253   0.20422
     Eigenvalues ---    0.20563   0.20992   0.21009   0.21136   0.21189
     Eigenvalues ---    0.21280   0.25000   0.25000   0.25000   0.37992
     Eigenvalues ---    0.40480   0.40678   0.41116   0.41558   0.42453
     Eigenvalues ---    0.42502   0.42607   0.42768   0.43316   0.43953
     Eigenvalues ---    0.44102   0.44216   0.44422   0.44766   0.44782
     Eigenvalues ---    0.50680   0.51458   0.52211   0.52570   0.54329
     Eigenvalues ---    0.54614   0.54651   0.54671   0.54697   0.54715
     Eigenvalues ---    0.54737   0.548931000.000001000.000001000.00000
     Eigenvalues --- 1000.000001000.000001000.000001000.000001000.00000
     Eigenvalues --- 1000.000001000.000001000.000001000.000001000.00000
     Eigenvalues --- 1000.000001000.000001000.000001000.000001000.00000
     Eigenvalues --- 1000.000001000.000001000.000001000.000001000.00000
     Eigenvalues --- 1000.000001000.000001000.000001000.000001000.00000
     Eigenvalues --- 1000.000001000.000001000.000001000.000001000.00000
     Eigenvalues --- 1000.000001000.000001000.000001000.000001000.00000
     Eigenvalues --- 1000.000001000.000001000.000001000.000001000.00000
     Eigenvalues --- 1000.000001000.000001000.00000
 RFO step:  Lambda=-5.11379889D-04 EMin= 2.30000000D-03
 Linear search not attempted -- first point.
 Iteration  1 RMS(Cart)=  0.10345290 RMS(Int)=  0.00380167
 Iteration  2 RMS(Cart)=  0.00737376 RMS(Int)=  0.00001391
 Iteration  3 RMS(Cart)=  0.00003418 RMS(Int)=  0.00000915
 Iteration  4 RMS(Cart)=  0.00000000 RMS(Int)=  0.00000915
 Iteration  1 RMS(Cart)=  0.00000000 RMS(Int)=  0.00000000
 Variable       Old X    -DE/DX   Delta X   Delta X   Delta X     New X
                                 (Linear)    (Quad)   (Total)
    R1        3.67636   0.00014   0.00000   0.00065   0.00065   3.67702
    R2        3.69031  -0.00040   0.00000  -0.00194  -0.00194   3.68837
    R3        3.73798  -0.00003   0.00000  -0.00013  -0.00013   3.73785
    R4        3.71087   0.00617   0.00000   0.03082   0.03082   3.74169
    R5        3.13764  -0.00026   0.00000  -0.00064  -0.00064   3.13700
    R6        3.09653  -0.00039   0.00000  -0.00088  -0.00088   3.09565
    R7        3.10211  -0.00020   0.00000  -0.00045  -0.00045   3.10166
    R8        3.09249   0.00202   0.00000   0.00451   0.00451   3.09700
    R9        3.11657   0.00007   0.00000   0.00016   0.00016   3.11673
   R10        3.11988  -0.00005   0.00000  -0.00012  -0.00012   3.11976
   R11        3.14342  -0.00001   0.00000  -0.00004  -0.00004   3.14339
   R12        3.18077   0.00007   0.00000   0.00018   0.00018   3.18095
   R13        3.10982   0.00014   0.00000   0.00032   0.00032   3.11014
   R14        3.09230   0.00000   0.00000   0.00001   0.00001   3.09231
   R15        3.10032   0.00010   0.00000   0.00023   0.00023   3.10056
   R16        3.14606   0.00009   0.00000   0.00022   0.00022   3.14628
   R17        3.09896   0.00010   0.00000   0.00022   0.00022   3.09918
   R18        3.11858  -0.00037   0.00000  -0.00086  -0.00086   3.11772
   R19        3.13189  -0.00060   0.00000  -0.00143  -0.00143   3.13046
   R20        3.12051   0.00137   0.00000   0.00323   0.00323   3.12374
   R21        1.82144   0.00001   0.00000   0.00002   0.00002   1.82146
   R22        1.82067   0.00008   0.00000   0.00015   0.00015   1.82082
   R23        1.82102   0.00014   0.00000   0.00025   0.00025   1.82128
   R24        1.84058  -0.00001   0.00000  -0.00003  -0.00003   1.84055
   R25        1.84398  -0.00002   0.00000  -0.00004  -0.00004   1.84394
   R26        1.81928  -0.00006   0.00000  -0.00010  -0.00010   1.81917
   R27        1.82086   0.00000   0.00000   0.00001   0.00001   1.82087
   R28        1.85885  -0.00003   0.00000  -0.00006  -0.00006   1.85879
   R29        1.82126  -0.00002   0.00000  -0.00004  -0.00004   1.82122
   R30        1.82433  -0.00000   0.00000  -0.00001  -0.00001   1.82433
   R31        1.82176  -0.00008   0.00000  -0.00014  -0.00014   1.82162
   R32        1.85122   0.00002   0.00000   0.00004   0.00004   1.85125
    A1        1.85569   0.00034   0.00000   0.00374   0.00374   1.85943
    A2        1.80097   0.00005   0.00000  -0.00047  -0.00047   1.80050
    A3        1.97659  -0.00010   0.00000   0.00008   0.00007   1.97665
    A4        1.83906  -0.00009   0.00000  -0.00107  -0.00106   1.83800
    A5        2.01332   0.00020   0.00000   0.00165   0.00165   2.01497
    A6        1.96025  -0.00040   0.00000  -0.00395  -0.00395   1.95630
    A7        2.45892  -0.00002   0.00000  -0.00009  -0.00009   2.45884
    A8        2.59369   0.00002   0.00000   0.00009   0.00009   2.59378
    A9        2.34042  -0.00001   0.00000  -0.00005  -0.00005   2.34037
   A10        2.39110   0.00504   0.00000   0.00000   0.00000   2.39110
   A11        1.92384  -0.00003   0.00000  -0.00020  -0.00020   1.92365
   A12        1.91272  -0.00002   0.00000  -0.00008  -0.00008   1.91264
   A13        1.94584   0.00008   0.00000   0.00052   0.00052   1.94636
   A14        2.00429   0.00000   0.00000  -0.00010  -0.00010   2.00419
   A15        1.88341  -0.00004   0.00000  -0.00018  -0.00018   1.88323
   A16        1.79022   0.00001   0.00000   0.00009   0.00009   1.79030
   A17        1.80104   0.00009   0.00000   0.00066   0.00066   1.80170
[...]
 Alpha virt. eigenvalues --    3.65856   4.36711   5.33591   7.44447  31.16684
          Condensed to atoms (all electrons):
               1          2          3          4          5          6
     1  Zr  15.633946  -0.107455   0.000042  -0.109378   0.083639  -0.904968
     2  O   -0.107455   8.864548   0.011915  -0.063191  -0.058290   0.069361
     3  O    0.000042   0.011915   8.859572   0.008734  -0.053847   0.002374
     4  O   -0.109378  -0.063191   0.008734   8.868381  -0.063228  -0.822215
     5  O    0.083639  -0.058290  -0.053847  -0.063228   9.072823  -0.000911
     6  Si  -0.904968   0.069361   0.002374  -0.822215  -0.000911  14.398624
     7  Si  -0.642712  -0.008508  -0.897738  -0.033792  -0.032772   0.132739
     8  Si  -0.556331  -0.736271  -0.031953   0.070502  -0.010862   0.016607
     9  Si  -0.811517   0.013396   0.023947   0.018234  -0.872245   0.080396
    10  O   -0.070787   0.000409  -0.003450  -0.000687   0.110092   0.000634
    11  O   -0.129005  -0.001289   0.002733   0.001591   0.282236  -0.000659
    12  O   -0.009299   0.007168   0.007362   0.001720   0.117498  -0.002087
    13  O    0.040637   0.278320   0.000734  -0.016026   0.000225   0.011025
    14  O   -0.108463   0.247912  -0.020549  -0.005043  -0.000672   0.026377
    15  O   -0.084593   0.260011   0.000883   0.002688   0.000303   0.004204
    16  O   -0.108796   0.005694  -0.000551   0.341105   0.002231  -0.437677
    17  O   -0.092923  -0.038054   0.009108   0.211684  -0.000664  -0.446169
    18  O   -0.052649  -0.022571   0.003152   0.232210  -0.000588  -0.494198
    19  O    0.013299   0.007458   0.287391   0.016135   0.002424  -0.008500
    20  O   -0.138509  -0.000845   0.144925  -0.000332   0.000972   0.012400
    21  O    0.064390   0.010133   0.155552   0.004620   0.001002  -0.021445
    22  H   -0.007517  -0.000052   0.000329   0.000001   0.000816   0.000185
    23  H   -0.000445  -0.000011   0.000010  -0.000014  -0.022440   0.000062
    24  H   -0.002308  -0.000130   0.000012   0.000002   0.000757   0.000081
    25  H    0.016714  -0.022704  -0.000101  -0.001180  -0.000027   0.001025
    26  H   -0.008708  -0.008489   0.000016  -0.000015  -0.000008  -0.000054
    27  H    0.009587  -0.021059   0.000838  -0.001312   0.000033   0.011206
    28  H    0.004187  -0.000013  -0.017222  -0.000014  -0.000007  -0.000332
    29  H    0.000250  -0.004468  -0.019101  -0.000176  -0.000029   0.000798
    30  H   -0.001161  -0.000005  -0.000134  -0.000590  -0.000007  -0.000804
    31  H    0.001882   0.000213  -0.000022  -0.018830  -0.000019   0.065201
    32  H    0.004342  -0.000030   0.000038   0.012540   0.000018   0.015066
    33  H   -0.023045   0.000891  -0.010828  -0.008843  -0.000056   0.057808
               7          8          9         10         11         12
     1  Zr  -0.642712  -0.556331  -0.811517  -0.070787  -0.129005  -0.009299
     2  O   -0.008508  -0.736271   0.013396   0.000409  -0.001289   0.007168
     3  O   -0.897738  -0.031953   0.023947  -0.003450   0.002733   0.007362
     4  O   -0.033792   0.070502   0.018234  -0.000687   0.001591   0.001720
     5  O   -0.032772  -0.010862  -0.872245   0.110092   0.282236   0.117498
     6  Si   0.132739   0.016607   0.080396   0.000634  -0.000659  -0.002087
     7  Si  13.835012   0.158503   0.048269   0.001973  -0.001527   0.001440
     8  Si   0.158503  13.668517   0.047605  -0.001546   0.003401  -0.007057
     9  Si   0.048269   0.047605  13.763881   0.031689  -0.106649  -0.255360
    10  O    0.001973  -0.001546   0.031689   8.573342  -0.071568   0.065608
    11  O   -0.001527   0.003401  -0.106649  -0.071568   8.605049  -0.031559
    12  O    0.001440  -0.007057  -0.255360   0.065608  -0.031559   8.733127
    13  O   -0.001153  -0.181572  -0.004579  -0.000004   0.000038  -0.000233
    14  O    0.037467  -0.447063   0.002883   0.000001   0.000009   0.000321
    15  O    0.000296  -0.396161   0.001290   0.000008  -0.000057   0.000957
    16  O    0.004662  -0.012264  -0.002185   0.000005  -0.000007  -0.000003
    17  O   -0.000541   0.100646   0.004151   0.000007   0.000008  -0.000038
    18  O   -0.004340   0.083630   0.004429   0.000007  -0.000000   0.000019
    19  O   -0.470108  -0.017176   0.000423  -0.000007   0.000003  -0.000261
    20  O   -0.087336   0.008317   0.005561   0.000112  -0.000002  -0.000013
    21  O    0.001790  -0.046287  -0.004431  -0.000007   0.000007  -0.000340
    22  H    0.000481   0.000489   0.045680  -0.002040  -0.002838   0.227015
    23  H   -0.000053   0.000044   0.063080   0.232835  -0.003377   0.005660
    24  H    0.000048   0.000149   0.033043   0.008517   0.231094  -0.005982
    25  H   -0.000194   0.058725  -0.000229  -0.000000   0.000000  -0.000001
    26  H    0.000529   0.059976  -0.000884  -0.000000   0.000001  -0.000036
    27  H   -0.000699   0.072866  -0.000019   0.000000  -0.000000   0.000003
    28  H    0.055813   0.000107  -0.000204  -0.000000  -0.000000  -0.000009
    29  H    0.046754   0.021181  -0.000014   0.000000  -0.000000   0.000008
    30  H    0.045884   0.000141  -0.000021  -0.000000   0.000000   0.000000
    31  H    0.000113  -0.002754  -0.000080   0.000000  -0.000000   0.000000
    32  H   -0.000669   0.000244  -0.000042  -0.000000   0.000000  -0.000000
    33  H    0.022647   0.000404   0.000293  -0.000000  -0.000000   0.000001
              13         14         15         16         17         18
     1  Zr   0.040637  -0.108463  -0.084593  -0.108796  -0.092923  -0.052649
     2  O    0.278320   0.247912   0.260011   0.005694  -0.038054  -0.022571
     3  O    0.000734  -0.020549   0.000883  -0.000551   0.009108   0.003152
     4  O   -0.016026  -0.005043   0.002688   0.341105   0.211684   0.232210
     5  O    0.000225  -0.000672   0.000303   0.002231  -0.000664  -0.000588
     6  Si   0.011025   0.026377   0.004204  -0.437677  -0.446169  -0.494198
     7  Si  -0.001153   0.037467   0.000296   0.004662  -0.000541  -0.004340
     8  Si  -0.181572  -0.447063  -0.396161  -0.012264   0.100646   0.083630
     9  Si  -0.004579   0.002883   0.001290  -0.002185   0.004151   0.004429
    10  O   -0.000004   0.000001   0.000008   0.000005   0.000007   0.000007
    11  O    0.000038   0.000009  -0.000057  -0.000007   0.000008  -0.000000
    12  O   -0.000233   0.000321   0.000957  -0.000003  -0.000038   0.000019
    13  O    8.646287   0.025838  -0.119330   0.004110  -0.029271  -0.044813
    14  O    0.025838   8.805650   0.153062   0.002367  -0.028521  -0.022679
    15  O   -0.119330   0.153062   8.810836  -0.000175   0.003935   0.001487
    16  O    0.004110   0.002367  -0.000175   8.891940  -0.101938  -0.097967
    17  O   -0.029271  -0.028521   0.003935  -0.101938   8.935398   0.231035
    18  O   -0.044813  -0.022679   0.001487  -0.097967   0.231035   9.039418
    19  O    0.000221  -0.001060   0.000321  -0.000575  -0.030161  -0.000009
    20  O    0.000001  -0.001157   0.000019   0.000031  -0.000956   0.000023
    21  O   -0.000345   0.023522   0.000293  -0.000138  -0.006256   0.000376
    22  H   -0.000000   0.000001   0.000004  -0.000000   0.000000  -0.000000
    23  H    0.000000  -0.000000   0.000000  -0.000000   0.000000   0.000000
    24  H   -0.000000   0.000000   0.000001   0.000000  -0.000000  -0.000000
    25  H    0.217690  -0.009489   0.007124  -0.000269   0.000633   0.015414
    26  H   -0.006196   0.000330   0.226538   0.000000  -0.000024   0.000006
    27  H   -0.004542   0.208376   0.000429   0.000316   0.017691  -0.000834
    28  H    0.000000  -0.000003  -0.000001   0.000000   0.000003   0.000000
    29  H    0.000791   0.015066  -0.001175  -0.000005  -0.000582  -0.000002
    30  H    0.000001   0.000039   0.000001   0.000098  -0.000493  -0.000011
    31  H    0.002286   0.000081  -0.000020   0.004663  -0.001316   0.214785
    32  H   -0.000007  -0.000006   0.000000   0.237222  -0.003208   0.003981
    33  H    0.000236   0.002310  -0.000052   0.000617   0.231002   0.002123
              19         20         21         22         23         24
     1  Zr   0.013299  -0.138509   0.064390  -0.007517  -0.000445  -0.002308
     2  O    0.007458  -0.000845   0.010133  -0.000052  -0.000011  -0.000130
     3  O    0.287391   0.144925   0.155552   0.000329   0.000010   0.000012
     4  O    0.016135  -0.000332   0.004620   0.000001  -0.000014   0.000002
     5  O    0.002424   0.000972   0.001002   0.000816  -0.022440   0.000757
     6  Si  -0.008500   0.012400  -0.021445   0.000185   0.000062   0.000081
     7  Si  -0.470108  -0.087336   0.001790   0.000481  -0.000053   0.000048
     8  Si  -0.017176   0.008317  -0.046287   0.000489   0.000044   0.000149
     9  Si   0.000423   0.005561  -0.004431   0.045680   0.063080   0.033043
    10  O   -0.000007   0.000112  -0.000007  -0.002040   0.232835   0.008517
    11  O    0.000003  -0.000002   0.000007  -0.002838  -0.003377   0.231094
    12  O   -0.000261  -0.000013  -0.000340   0.227015   0.005660  -0.005982
    13  O    0.000221   0.000001  -0.000345  -0.000000   0.000000  -0.000000
    14  O   -0.001060  -0.001157   0.023522   0.000001  -0.000000   0.000000
    15  O    0.000321   0.000019   0.000293   0.000004   0.000000   0.000001
    16  O   -0.000575   0.000031  -0.000138  -0.000000  -0.000000   0.000000
    17  O   -0.030161  -0.000956  -0.006256   0.000000   0.000000  -0.000000
    18  O   -0.000009   0.000023   0.000376  -0.000000   0.000000  -0.000000
    19  O    8.903276   0.030495   0.026305  -0.000000   0.000000  -0.000000
    20  O    0.030495   8.652015  -0.056757   0.000001   0.000000  -0.000000
    21  O    0.026305  -0.056757   8.488976  -0.000009  -0.000000   0.000000
    22  H   -0.000000   0.000001  -0.000009   0.337277  -0.000011   0.000054
    23  H    0.000000   0.000000  -0.000000  -0.000011   0.351063   0.000028
    24  H   -0.000000  -0.000000   0.000000   0.000054   0.000028   0.368174
    25  H   -0.000031   0.000000  -0.000007   0.000000   0.000000   0.000000
    26  H    0.000000  -0.000000   0.000058  -0.000000   0.000000  -0.000000
    27  H   -0.000189   0.000229  -0.004652  -0.000000   0.000000   0.000000
    28  H    0.004200   0.228333  -0.001278   0.000000   0.000000  -0.000000
    29  H   -0.008312   0.008205   0.209005   0.000000   0.000000  -0.000000
    30  H    0.221318  -0.001542  -0.007625   0.000000  -0.000000  -0.000000
    31  H    0.000002  -0.000000  -0.000000  -0.000000   0.000000   0.000000
    32  H    0.000090   0.000000   0.000001   0.000000  -0.000000  -0.000000
    33  H    0.012887   0.000024   0.001316  -0.000000  -0.000000   0.000000
              25         26         27         28         29         30
     1  Zr   0.016714  -0.008708   0.009587   0.004187   0.000250  -0.001161
     2  O   -0.022704  -0.008489  -0.021059  -0.000013  -0.004468  -0.000005
     3  O   -0.000101   0.000016   0.000838  -0.017222  -0.019101  -0.000134
     4  O   -0.001180  -0.000015  -0.001312  -0.000014  -0.000176  -0.000590
     5  O   -0.000027  -0.000008   0.000033  -0.000007  -0.000029  -0.000007
     6  Si   0.001025  -0.000054   0.011206  -0.000332   0.000798  -0.000804
     7  Si  -0.000194   0.000529  -0.000699   0.055813   0.046754   0.045884
     8  Si   0.058725   0.059976   0.072866   0.000107   0.021181   0.000141
     9  Si  -0.000229  -0.000884  -0.000019  -0.000204  -0.000014  -0.000021
    10  O   -0.000000  -0.000000   0.000000  -0.000000   0.000000  -0.000000
    11  O    0.000000   0.000001  -0.000000  -0.000000  -0.000000   0.000000
    12  O   -0.000001  -0.000036   0.000003  -0.000009   0.000008   0.000000
    13  O    0.217690  -0.006196  -0.004542   0.000000   0.000791   0.000001
    14  O   -0.009489   0.000330   0.208376  -0.000003   0.015066   0.000039
    15  O    0.007124   0.226538   0.000429  -0.000001  -0.001175   0.000001
    16  O   -0.000269   0.000000   0.000316   0.000000  -0.000005   0.000098
    17  O    0.000633  -0.000024   0.017691   0.000003  -0.000582  -0.000493
    18  O    0.015414   0.000006  -0.000834   0.000000  -0.000002  -0.000011
    19  O   -0.000031   0.000000  -0.000189   0.004200  -0.008312   0.221318
    20  O    0.000000  -0.000000   0.000229   0.228333   0.008205  -0.001542
    21  O   -0.000007   0.000058  -0.004652  -0.001278   0.209005  -0.007625
    22  H    0.000000  -0.000000  -0.000000   0.000000   0.000000   0.000000
    23  H    0.000000   0.000000   0.000000   0.000000   0.000000  -0.000000
    24  H    0.000000  -0.000000   0.000000  -0.000000  -0.000000  -0.000000
    25  H    0.301976  -0.000025   0.000014   0.000000   0.000000   0.000000
    26  H   -0.000025   0.370077  -0.000032   0.000000   0.000020  -0.000000
    27  H    0.000014  -0.000032   0.284739  -0.000000  -0.001041   0.000002
    28  H    0.000000   0.000000  -0.000000   0.350116  -0.000020  -0.000008
    29  H    0.000000   0.000020  -0.001041  -0.000020   0.285707   0.000172
    30  H    0.000000  -0.000000   0.000002  -0.000008   0.000172   0.335478
    31  H   -0.000192   0.000000   0.000014   0.000000   0.000000  -0.000000
    32  H   -0.000001  -0.000000  -0.000000   0.000000  -0.000000  -0.000000
    33  H    0.000005   0.000000  -0.002432  -0.000002   0.000122  -0.001029
              31         32         33
     1  Zr   0.001882   0.004342  -0.023045
     2  O    0.000213  -0.000030   0.000891
     3  O   -0.000022   0.000038  -0.010828
     4  O   -0.018830   0.012540  -0.008843
     5  O   -0.000019   0.000018  -0.000056
     6  Si   0.065201   0.015066   0.057808
     7  Si   0.000113  -0.000669   0.022647
     8  Si  -0.002754   0.000244   0.000404
     9  Si  -0.000080  -0.000042   0.000293
    10  O    0.000000  -0.000000  -0.000000
    11  O   -0.000000   0.000000  -0.000000
    12  O    0.000000  -0.000000   0.000001
    13  O    0.002286  -0.000007   0.000236
    14  O    0.000081  -0.000006   0.002310
    15  O   -0.000020   0.000000  -0.000052
    16  O    0.004663   0.237222   0.000617
    17  O   -0.001316  -0.003208   0.231002
    18  O    0.214785   0.003981   0.002123
    19  O    0.000002   0.000090   0.012887
    20  O   -0.000000   0.000000   0.000024
    21  O   -0.000000   0.000001   0.001316
    22  H   -0.000000   0.000000  -0.000000
    23  H    0.000000  -0.000000  -0.000000
    24  H    0.000000  -0.000000   0.000000
    25  H   -0.000192  -0.000001   0.000005
    26  H    0.000000  -0.000000   0.000000
    27  H    0.000014  -0.000000  -0.002432
    28  H    0.000000   0.000000  -0.000002
    29  H    0.000000  -0.000000   0.000122
    30  H   -0.000000  -0.000000  -0.001029
    31  H    0.328657  -0.000012  -0.000036
    32  H   -0.000012   0.348724   0.000143
    33  H   -0.000036   0.000143   0.270673
 Mulliken charges:
               1
     1  Zr   0.097655
     2  O   -0.683995
     3  O   -0.464170
     4  O   -0.645279
     5  O   -0.558396
     6  Si   2.233841
     7  Si   1.787722
     8  Si   2.075241
     9  Si   1.870207
    10  O   -0.875140
    11  O   -0.777631
    12  O   -0.855627
    13  O   -0.820371
    14  O   -0.906905
    15  O   -0.873126
    16  O   -0.732511
    17  O   -0.964184
    18  O   -1.091434
    19  O   -0.989858
    20  O   -0.804214
    21  O   -0.837767
    22  H    0.400136
    23  H    0.373569
    24  H    0.366459
    25  H    0.415128
    26  H    0.366921
    27  H    0.430468
    28  H    0.376353
    29  H    0.446846
    30  H    0.410295
    31  H    0.405383
    32  H    0.381565
    33  H    0.442820
 Sum of Mulliken charges =  -0.00000
 Mulliken charges with hydrogens summed into heavy atoms:
               1
     1  Zr   0.097655
     2  O   -0.683995
     3  O   -0.464170
     4  O   -0.645279
     5  O   -0.558396
     6  Si   2.233841
     7  Si   1.787722
     8  Si   2.075241
     9  Si   1.870207
    10  O   -0.501571
    11  O   -0.411172
    12  O   -0.455492
    13  O   -0.405243
    14  O   -0.476437
    15  O   -0.506205
    16  O   -0.350946
    17  O   -0.521365
    18  O   -0.686051
    19  O   -0.579563
    20  O   -0.427861
    21  O   -0.390921
 Electronic spatial extent (au):  <R**2>=           9458.6900
 Charge=              0.0000 electrons
 Dipole moment (field-independent basis, Debye):
    X=              2.8784    Y=             -1.0909    Z=             -3.3197  Tot=              4.5272
 Quadrupole moment (field-independent basis, Debye-Ang):
   XX=           -163.9398   YY=           -151.4997   ZZ=           -161.2714
   XY=             -5.8220   XZ=             13.5200   YZ=              4.6393
 Traceless Quadrupole moment (field-independent basis, Debye-Ang):
   XX=             -5.0362   YY=              7.4039   ZZ=             -2.3678
   XY=             -5.8220   XZ=             13.5200   YZ=              4.6393
 Octapole moment (field-independent basis, Debye-Ang**2):
  XXX=             74.8653  YYY=            -10.0931  ZZZ=            -60.6974  XYY=             -7.3863
  XXY=             23.9569  XXZ=            -22.8743  XZZ=             63.9316  YZZ=            -17.2774
  YYZ=             -3.3647  XYZ=              3.2687
 Hexadecapole moment (field-independent basis, Debye-Ang**3):
 XXXX=          -5826.8184 YYYY=          -2769.9197 ZZZZ=          -2301.0095 XXXY=             19.1313
 XXXZ=            -70.0617 YYYX=            -50.4636 YYYZ=            175.8372 ZZZX=            112.9722
 ZZZY=            -62.6612 XXYY=          -1392.5390 XXZZ=          -1381.5297 YYZZ=           -917.0875
 XXYZ=             44.8923 YYXZ=            188.6068 ZZXY=            -27.2236
 N-N= 2.861953435577D+03 E-N=-1.143652504491D+04  KE= 2.373153185507D+03
 1\1\GINC-GRA728\FOpt\RB3LYP\Gen\H12O16Si4Zr1\SARASHS\02-Aug-2020\0\\#n
  B3LYP/Gen Pseudo=cards EmpiricalDispersion=GD3 Opt=modredundant\\Titl
 e\\0,1\Zr,0.6539977251,-0.0966462317,-0.2369032731\O,-0.1113903111,-0.
 8581399444,1.3808699209\O,0.1145705859,1.7798677023,-0.2852329657\O,-0
 .3909110908,-0.9665997374,-1.6707275745\O,2.5889944863,-0.4425836497,-
 0.4438054802\Si,-1.9780476436,-1.33494756,-1.8726049014\Si,-1.07969404
 59,2.8959339654,-0.1814601224\Si,-1.5657046926,-1.0109071022,2.1663858
 673\Si,3.9790348926,0.0689533339,0.2559077817\O,4.8610096451,1.1376053
 422,-0.6370888716\O,4.9859027944,-1.2103542891,0.5539637131\O,3.444520
 6794,0.8611124403,1.608817756\O,-2.1989200394,-2.4919134024,1.85484720
 66\O,-2.5669180813,0.2150309024,1.6493966681\O,-1.393525979,-0.7615240
 763,3.7781624968\O,-2.2967033114,-1.6185722188,-3.4658189429\O,-2.9115
 259132,-0.1660006591,-1.1750188973\O,-2.4032225582,-2.6956649822,-1.01
 56563184\O,-2.1272958375,2.4537519799,-1.4225601104\O,-0.5940024247,4.
 4348606093,-0.5060631765\O,-1.8010453032,2.895353619,1.2875260502\H,4.
 0473756203,1.473970819,2.0438405731\H,5.5605694531,0.7626247092,-1.183
 8674806\H,4.5751150814,-2.0403851742,0.8198339894\H,-2.2953204187,-2.7
 345862174,0.9165634883\H,-0.6793586672,-1.2302639048,4.2220958555\H,-3
 .0012901892,0.0304600186,0.7954572544\H,-0.4421763615,4.9993188367,0.2
 605214333\H,-2.0999004057,2.0239114089,1.620866627\H,-2.76136916,3.132
 8591419,-1.6847264634\H,-2.4863156503,-3.5109222772,-1.5229055757\H,-1
 .619210851,-1.3476988295,-4.0952213384\H,-2.7023520282,0.7684654275,-1
 .3999851893\\Version=ES64L-G16RevB.01\State=1-A\HF=-2416.9456367\RMSD=
 3.381e-09\RMSF=5.671e-05\Dipole=1.2932786,-0.4074852,-1.1549407\Quadru
 pole=-4.8123249,5.1594503,-0.3471255,-4.8268256,9.7547634,3.460916\PG=
 C01 [X(H12O16Si4Zr1)]\\@


 "WOULD YOU TELL ME PLEASE, WHICH WAY I OUGHT TO WALK FROM HERE?"
 "THAT DEPENDS A GREAT DEAL ON WHERE YOU WANT TO GO," SAID THE CAT.
 "I DON'T MUCH CARE WHERE -- ", SAID ALICE.
 "THEN IT DOESN'T MATTER WHICH WAY YOU WALK," SAID THE CAT.

                                      -- LEWIS CARROLL
 Job cpu time:       1 days  7 hours 49 minutes  7.3 seconds.
 Elapsed time:       0 days  2 hours 24 minutes  0.1 seconds.
 File lengths (MBytes):  RWF=    167 Int=      0 D2E=      0 Chk=     21 Scr=      1
 Normal termination of Gaussian 16 at Sun Aug  2 09:41:02 2020.
