 Entering Gaussian System, Link 0=g16
 Initial command:
 /opt/software/gaussian/g16.b01/l1.exe "/localscratch/sarashs.37192499.0/Gau-17629.inp" -scrdir="/localscratch/sarashs.37192499.0/"
 Entering Link 1 = /opt/software/gaussian/g16.b01/l1.exe PID=     17631.
  
 Copyright (c) 1988-2017, Gaussian, Inc.  All Rights Reserved.
  
 This is part of the Gaussian(R) 16 program.  It is based on
 the Gaussian(R) 09 system (copyright 2009, Gaussian, Inc.),
 the Gaussian(R) 03 system (copyright 2003, Gaussian, Inc.),
 the Gaussian(R) 98 system (copyright 1998, Gaussian, Inc.),
 the Gaussian(R) 94 system (copyright 1995, Gaussian, Inc.),
 the Gaussian 92(TM) system (copyright 1992, Gaussian, Inc.),
 the Gaussian 90(TM) system (copyright 1990, Gaussian, Inc.),
 the Gaussian 88(TM) system (copyright 1988, Gaussian, Inc.),
 the Gaussian 86(TM) system (copyright 1986, Carnegie Mellon
 University), and the Gaussian 82(TM) system (copyright 1983,
 Carnegie Mellon University). Gaussian is a federally registered
 trademark of Gaussian, Inc.
  
 This software contains proprietary and confidential information,
 including trade secrets, belonging to Gaussian, Inc.
  
 This software is provided under written license and may be
 used, copied, transmitted, or stored only in accord with that
 written license.
  
 The following legend is applicable only to US Government
 contracts under FAR:
  
                    RESTRICTED RIGHTS LEGEND
  
 Use, reproduction and disclosure by the US Government is
 subject to restrictions as set forth in subparagraphs (a)
 and (c) of the Commercial Computer Software - Restricted
 Rights clause in FAR 52.227-19.
  
 Gaussian, Inc.
 340 Quinnipiac St., Bldg. 40, Wallingford CT 06492
  
  
 ---------------------------------------------------------------
 Warning -- This program may not be used in any manner that
 competes with the business of Gaussian, Inc. or will provide
 assistance to any competitor of Gaussian, Inc.  The licensee
 of this program is prohibited from giving any competitor of
 Gaussian, Inc. access to this program.  By using this program,
 the user acknowledges that Gaussian, Inc. is engaged in the
 business of creating and licensing software in the field of
 computational chemistry and represents and warrants to the
 licensee that it is not a competitor of Gaussian, Inc. and that
 it will not use this program in any manner prohibited above.
 ---------------------------------------------------------------
  

 Cite this work as:
 Gaussian 16, Revision B.01,
 M. J. Frisch, G. W. Trucks, H. B. Schlegel, G. E. Scuseria, 
 M. A. Robb, J. R. Cheeseman, G. Scalmani, V. Barone, 
 G. A. Petersson, H. Nakatsuji, X. Li, M. Caricato, A. V. Marenich, 
 J. Bloino, B. G. Janesko, R. Gomperts, B. Mennucci, H. P. Hratchian, 
 J. V. Ortiz, A. F. Izmaylov, J. L. Sonnenberg, D. Williams-Young, 
 F. Ding, F. Lipparini, F. Egidi, J. Goings, B. Peng, A. Petrone, 
 T. Henderson, D. Ranasinghe, V. G. Zakrzewski, J. Gao, N. Rega, 
 G. Zheng, W. Liang, M. Hada, M. Ehara, K. Toyota, R. Fukuda, 
 J. Hasegawa, M. Ishida, T. Nakajima, Y. Honda, O. Kitao, H. Nakai, 
 T. Vreven, K. Throssell, J. A. Montgomery, Jr., J. E. Peralta, 
 F. Ogliaro, M. J. Bearpark, J. J. Heyd, E. N. Brothers, K. N. Kudin, 
 V. N. Staroverov, T. A. Keith, R. Kobayashi, J. Normand, 
 K. Raghavachari, A. P. Rendell, J. C. Burant, S. S. Iyengar, 
 J. Tomasi, M. Cossi, J. M. Millam, M. Klene, C. Adamo, R. Cammi, 
 J. W. Ochterski, R. L. Martin, K. Morokuma, O. Farkas, 
 J. B. Foresman, and D. J. Fox, Gaussian, Inc., Wallingford CT, 2016.
 
 ******************************************
 Gaussian 16:  ES64L-G16RevB.01 20-Dec-2017
                12-Aug-2020 
 ******************************************
 %NProcShared=16
 Will use up to   16 processors via shared memory.
 ------------------------------------------------------------------
 #n B3LYP/Gen Pseudo=cards EmpiricalDispersion=GD3 Opt=modredundant
 ------------------------------------------------------------------
 1/18=120,19=15,26=3,38=1/1,3;
 2/9=110,12=2,17=6,18=5,40=1/2;
 3/5=7,11=2,16=1,17=8,25=1,30=1,71=1,74=-5,124=31/1,2,3;
 4//1;
 5/5=2,38=5/2;
 6/7=2,8=2,9=2,10=2,28=1/1;
 7//1,2,3,16;
 1/18=20,19=15,26=3/3(2);
 2/9=110/2;
 99//99;
 2/9=110/2;
 3/5=7,6=1,11=2,16=1,17=8,25=1,30=1,71=1,74=-5,82=7,124=31/1,2,3;
 4/5=5,16=3,69=1/1;
 5/5=2,38=5/2;
 7//1,2,3,16;
 1/18=20,19=15,26=3/3(-5);
 2/9=110/2;
 6/7=2,8=2,9=2,10=2,19=2,28=1/1;
 99/9=1/99;
 -----
 Title
 -----
 Symbolic Z-matrix:
 Charge =  0 Multiplicity = 1
 Zr                    0.65779  -0.12506  -0.07164 
 O                    -0.22285  -0.90624   1.4773 
 O                     0.10302   1.74748  -0.12299 
 O                    -0.2683   -0.97885  -1.59705 
 O                     2.59206  -0.4363   -0.08284 
 Si                   -1.83119  -1.33244  -1.9536 
 Si                   -1.1155    2.84172  -0.08279 
 Si                   -1.72376  -1.15291   2.11517 
 Si                    4.09726   0.17518   0.1133 
 O                     4.86084   0.5322   -1.30622 
 O                     5.07297  -0.93383   0.86502 
 O                     3.88405   1.57597   0.9585 
 O                    -2.31924  -2.624     1.69627 
 O                    -2.72422   0.06508   1.55086 
 O                    -1.59734  -1.01957   3.74439 
 O                    -2.00144  -1.55965  -3.57782 
 O                    -2.82509  -0.18676  -1.30145 
 O                    -2.34448  -2.71439  -1.18277 
 O                    -2.04046   2.43957  -1.43023 
 O                    -0.63565   4.40049  -0.29987 
 O                    -1.96551   2.76086   1.31383 
 H                     4.63429   2.17937   0.99744 
 H                     5.44192  -0.15335  -1.65476 
 H                     4.70459  -1.40941   1.61786 
 H                    -2.40577  -2.80951   0.74392 
 H                    -2.38137  -1.22423   4.26535 
 H                    -3.06034  -0.08306   0.64589 
 H                    -0.52731   4.92728   0.50015 
 H                    -2.26909   1.86932   1.58533 
 H                    -2.64854   3.12676  -1.73014 
 H                    -2.30452  -3.52952  -1.69562 
 H                    -1.27114  -1.26305  -4.13223 
 H                    -2.61026   0.75461  -1.48993 
 
 The following ModRedundant input section has been read:
 A       1       5       9 F                                                   
 D       1       5       9      12 F                                           
 D       3       1       5       9 F                                           
 

 GradGradGradGradGradGradGradGradGradGradGradGradGradGradGradGradGradGrad
 Berny optimization.
 Initialization pass.
                           ----------------------------
                           !    Initial Parameters    !
                           ! (Angstroms and Degrees)  !
 --------------------------                            --------------------------
 ! Name  Definition              Value          Derivative Info.                !
 --------------------------------------------------------------------------------
 ! R1    R(1,2)                  1.9455         estimate D2E/DX2                !
 ! R2    R(1,3)                  1.9537         estimate D2E/DX2                !
 ! R3    R(1,4)                  1.9783         estimate D2E/DX2                !
 ! R4    R(1,5)                  1.9592         estimate D2E/DX2                !
 ! R5    R(2,8)                  1.6494         estimate D2E/DX2                !
 ! R6    R(3,7)                  1.6382         estimate D2E/DX2                !
 ! R7    R(4,6)                  1.6416         estimate D2E/DX2                !
 ! R8    R(5,9)                  1.6365         estimate D2E/DX2                !
 ! R9    R(6,16)                 1.6488         estimate D2E/DX2                !
 ! R10   R(6,17)                 1.651          estimate D2E/DX2                !
 ! R11   R(6,18)                 1.6636         estimate D2E/DX2                !
 ! R12   R(7,19)                 1.6831         estimate D2E/DX2                !
 ! R13   R(7,20)                 1.6453         estimate D2E/DX2                !
 ! R14   R(7,21)                 1.6369         estimate D2E/DX2                !
 ! R15   R(8,13)                 1.6414         estimate D2E/DX2                !
 ! R16   R(8,14)                 1.6742         estimate D2E/DX2                !
 ! R17   R(8,15)                 1.6395         estimate D2E/DX2                !
 ! R18   R(9,10)                 1.6509         estimate D2E/DX2                !
 ! R19   R(9,11)                 1.6574         estimate D2E/DX2                !
 ! R20   R(9,12)                 1.6499         estimate D2E/DX2                !
 ! R21   R(10,23)                0.9639         estimate D2E/DX2                !
 ! R22   R(11,24)                0.9637         estimate D2E/DX2                !
 ! R23   R(12,22)                0.9636         estimate D2E/DX2                !
 ! R24   R(13,25)                0.9741         estimate D2E/DX2                !
 ! R25   R(14,27)                0.9767         estimate D2E/DX2                !
 ! R26   R(15,26)                0.9633         estimate D2E/DX2                !
 ! R27   R(16,32)                0.9637         estimate D2E/DX2                !
 ! R28   R(17,33)                0.9838         estimate D2E/DX2                !
 ! R29   R(18,31)                0.9639         estimate D2E/DX2                !
 ! R30   R(19,30)                0.9654         estimate D2E/DX2                !
 ! R31   R(20,28)                0.964          estimate D2E/DX2                !
 ! R32   R(21,29)                0.9802         estimate D2E/DX2                !
 ! A1    A(2,1,3)              106.0959         estimate D2E/DX2                !
 ! A2    A(2,1,4)              103.2214         estimate D2E/DX2                !
 ! A3    A(2,1,5)              112.8091         estimate D2E/DX2                !
 ! A4    A(3,1,4)              105.0977         estimate D2E/DX2                !
 ! A5    A(3,1,5)              115.6243         estimate D2E/DX2                !
 ! A6    A(4,1,5)              112.9055         estimate D2E/DX2                !
 ! A7    A(1,2,8)              141.2479         estimate D2E/DX2                !
 ! A8    A(1,3,7)              148.2962         estimate D2E/DX2                !
 ! A9    A(1,4,6)              134.9216         estimate D2E/DX2                !
 ! A10   A(1,5,9)              148.0            Frozen                          !
 ! A11   A(4,6,16)             109.9952         estimate D2E/DX2                !
 ! A12   A(4,6,17)             109.7479         estimate D2E/DX2                !
 ! A13   A(4,6,18)             111.8422         estimate D2E/DX2                !
 ! A14   A(16,6,17)            114.9972         estimate D2E/DX2                !
 ! A15   A(16,6,18)            108.0658         estimate D2E/DX2                !
 ! A16   A(17,6,18)            101.9869         estimate D2E/DX2                !
 ! A17   A(3,7,19)             103.269          estimate D2E/DX2                !
 ! A18   A(3,7,20)             114.3706         estimate D2E/DX2                !
 ! A19   A(3,7,21)             111.9733         estimate D2E/DX2                !
 ! A20   A(19,7,20)            106.3205         estimate D2E/DX2                !
 ! A21   A(19,7,21)            112.6973         estimate D2E/DX2                !
 ! A22   A(20,7,21)            108.1076         estimate D2E/DX2                !
 ! A23   A(2,8,13)             111.4365         estimate D2E/DX2                !
 ! A24   A(2,8,14)             107.7362         estimate D2E/DX2                !
 ! A25   A(2,8,15)             107.5759         estimate D2E/DX2                !
 ! A26   A(13,8,14)            110.4391         estimate D2E/DX2                !
 ! A27   A(13,8,15)            110.7606         estimate D2E/DX2                !
 ! A28   A(14,8,15)            108.7751         estimate D2E/DX2                !
 ! A29   A(5,9,10)             113.7763         estimate D2E/DX2                !
 ! A30   A(5,9,11)             110.2315         estimate D2E/DX2                !
 ! A31   A(5,9,12)             105.0575         estimate D2E/DX2                !
 ! A32   A(10,9,11)            105.2124         estimate D2E/DX2                !
 ! A33   A(10,9,12)            108.46           estimate D2E/DX2                !
 ! A34   A(11,9,12)            114.3204         estimate D2E/DX2                !
 ! A35   A(9,10,23)            115.8443         estimate D2E/DX2                !
 ! A36   A(9,11,24)            117.3553         estimate D2E/DX2                !
 ! A37   A(9,12,22)            116.8568         estimate D2E/DX2                !
 ! A38   A(8,13,25)            116.8991         estimate D2E/DX2                !
 ! A39   A(8,14,27)            114.056          estimate D2E/DX2                !
 ! A40   A(8,15,26)            117.2166         estimate D2E/DX2                !
 ! A41   A(6,16,32)            116.4907         estimate D2E/DX2                !
 ! A42   A(6,17,33)            117.1859         estimate D2E/DX2                !
 ! A43   A(6,18,31)            116.3076         estimate D2E/DX2                !
 ! A44   A(7,19,30)            115.1373         estimate D2E/DX2                !
 ! A45   A(7,20,28)            116.1676         estimate D2E/DX2                !
 ! A46   A(7,21,29)            116.2372         estimate D2E/DX2                !
 ! D1    D(3,1,2,8)             57.7292         estimate D2E/DX2                !
 ! D2    D(4,1,2,8)            -52.5301         estimate D2E/DX2                !
 ! D3    D(5,1,2,8)           -174.7067         estimate D2E/DX2                !
 ! D4    D(2,1,3,7)            -50.098          estimate D2E/DX2                !
 ! D5    D(4,1,3,7)             58.8315         estimate D2E/DX2                !
 ! D6    D(5,1,3,7)           -175.9641         estimate D2E/DX2                !
 ! D7    D(2,1,4,6)             42.7683         estimate D2E/DX2                !
 ! D8    D(3,1,4,6)            -68.2312         estimate D2E/DX2                !
 ! D9    D(5,1,4,6)            164.8802         estimate D2E/DX2                !
 ! D10   D(2,1,5,9)           -106.9244         estimate D2E/DX2                !
 ! D11   D(3,1,5,9)             15.4388         Frozen                          !
 ! D12   D(4,1,5,9)            136.521          estimate D2E/DX2                !
 ! D13   D(1,2,8,13)            93.5308         estimate D2E/DX2                !
 ! D14   D(1,2,8,14)           -27.7655         estimate D2E/DX2                !
 ! D15   D(1,2,8,15)          -144.8802         estimate D2E/DX2                !
 ! D16   D(1,3,7,19)           -61.1012         estimate D2E/DX2                !
 ! D17   D(1,3,7,20)          -176.1751         estimate D2E/DX2                !
 ! D18   D(1,3,7,21)            60.409          estimate D2E/DX2                !
 ! D19   D(1,4,6,16)           160.167          estimate D2E/DX2                !
 ! D20   D(1,4,6,17)            32.6925         estimate D2E/DX2                !
 ! D21   D(1,4,6,18)           -79.742          estimate D2E/DX2                !
 ! D22   D(1,5,9,10)          -100.1298         estimate D2E/DX2                !
 ! D23   D(1,5,9,11)           141.9685         estimate D2E/DX2                !
 ! D24   D(1,5,9,12)            18.3491         Frozen                          !
 ! D25   D(4,6,16,32)          -14.1998         estimate D2E/DX2                !
 ! D26   D(17,6,16,32)         110.2979         estimate D2E/DX2                !
 ! D27   D(18,6,16,32)        -136.5531         estimate D2E/DX2                !
 ! D28   D(4,6,17,33)           51.0095         estimate D2E/DX2                !
 ! D29   D(16,6,17,33)         -73.6179         estimate D2E/DX2                !
 ! D30   D(18,6,17,33)         169.7166         estimate D2E/DX2                !
 ! D31   D(4,6,18,31)          -96.4424         estimate D2E/DX2                !
 ! D32   D(16,6,18,31)          24.7715         estimate D2E/DX2                !
 ! D33   D(17,6,18,31)         146.349          estimate D2E/DX2                !
 ! D34   D(3,7,19,30)         -162.1837         estimate D2E/DX2                !
 ! D35   D(20,7,19,30)         -41.4662         estimate D2E/DX2                !
 ! D36   D(21,7,19,30)          76.796          estimate D2E/DX2                !
 ! D37   D(3,7,20,28)          -98.427          estimate D2E/DX2                !
 ! D38   D(19,7,20,28)         148.2947         estimate D2E/DX2                !
 ! D39   D(21,7,20,28)          27.0455         estimate D2E/DX2                !
 ! D40   D(3,7,21,29)          -49.8995         estimate D2E/DX2                !
 ! D41   D(19,7,21,29)          66.0156         estimate D2E/DX2                !
 ! D42   D(20,7,21,29)        -176.7753         estimate D2E/DX2                !
 ! D43   D(2,8,13,25)          -58.468          estimate D2E/DX2                !
 ! D44   D(14,8,13,25)          61.2404         estimate D2E/DX2                !
 ! D45   D(15,8,13,25)        -178.1888         estimate D2E/DX2                !
 ! D46   D(2,8,14,27)           80.2918         estimate D2E/DX2                !
 ! D47   D(13,8,14,27)         -41.6247         estimate D2E/DX2                !
 ! D48   D(15,8,14,27)        -163.3756         estimate D2E/DX2                !
 ! D49   D(2,8,15,26)         -174.1994         estimate D2E/DX2                !
 ! D50   D(13,8,15,26)         -52.1897         estimate D2E/DX2                !
 ! D51   D(14,8,15,26)          69.3652         estimate D2E/DX2                !
 ! D52   D(5,9,10,23)          -94.8505         estimate D2E/DX2                !
 ! D53   D(11,9,10,23)          25.9071         estimate D2E/DX2                !
 ! D54   D(12,9,10,23)         148.6398         estimate D2E/DX2                !
 ! D55   D(5,9,11,24)          -43.8214         estimate D2E/DX2                !
 ! D56   D(10,9,11,24)        -166.8802         estimate D2E/DX2                !
 ! D57   D(12,9,11,24)          74.2387         estimate D2E/DX2                !
 ! D58   D(5,9,12,22)         -166.4772         estimate D2E/DX2                !
 ! D59   D(10,9,12,22)         -44.4747         estimate D2E/DX2                !
 ! D60   D(11,9,12,22)          72.5542         estimate D2E/DX2                !
 --------------------------------------------------------------------------------
 Trust Radius=3.00D-01 FncErr=1.00D-07 GrdErr=1.00D-06 EigMax=2.50D+02 EigMin=1.00D-04
 Number of steps in this run=    148 maximum allowed number of steps=    198.
 GradGradGradGradGradGradGradGradGradGradGradGradGradGradGradGradGradGrad

                          Input orientation:                          
 ---------------------------------------------------------------------
 Center     Atomic      Atomic             Coordinates (Angstroms)
 Number     Number       Type             X           Y           Z
 ---------------------------------------------------------------------
      1         40           0        0.657790   -0.125060   -0.071640
      2          8           0       -0.222850   -0.906240    1.477300
      3          8           0        0.103020    1.747480   -0.122990
      4          8           0       -0.268300   -0.978850   -1.597050
      5          8           0        2.592060   -0.436300   -0.082840
      6         14           0       -1.831190   -1.332440   -1.953600
      7         14           0       -1.115500    2.841720   -0.082790
      8         14           0       -1.723760   -1.152910    2.115170
      9         14           0        4.097260    0.175180    0.113300
     10          8           0        4.860840    0.532200   -1.306220
     11          8           0        5.072970   -0.933830    0.865020
     12          8           0        3.884050    1.575970    0.958500
     13          8           0       -2.319240   -2.624000    1.696270
     14          8           0       -2.724220    0.065080    1.550860
     15          8           0       -1.597340   -1.019570    3.744390
     16          8           0       -2.001440   -1.559650   -3.577820
     17          8           0       -2.825090   -0.186760   -1.301450
     18          8           0       -2.344480   -2.714390   -1.182770
     19          8           0       -2.040460    2.439570   -1.430230
     20          8           0       -0.635650    4.400490   -0.299870
     21          8           0       -1.965510    2.760860    1.313830
     22          1           0        4.634290    2.179370    0.997440
     23          1           0        5.441920   -0.153350   -1.654760
     24          1           0        4.704590   -1.409410    1.617860
     25          1           0       -2.405770   -2.809510    0.743920
     26          1           0       -2.381370   -1.224230    4.265350
     27          1           0       -3.060340   -0.083060    0.645890
     28          1           0       -0.527310    4.927280    0.500150
     29          1           0       -2.269090    1.869320    1.585330
     30          1           0       -2.648540    3.126760   -1.730140
     31          1           0       -2.304520   -3.529520   -1.695620
     32          1           0       -1.271140   -1.263050   -4.132230
     33          1           0       -2.610260    0.754610   -1.489930
 ---------------------------------------------------------------------
                    Distance matrix (angstroms):
                    1          2          3          4          5
     1  Zr   0.000000
     2  O    1.945504   0.000000
     3  O    1.953666   3.115983   0.000000
     4  O    1.978251   3.075543   3.121475   0.000000
     5  O    1.959183   3.252476   3.311469   3.281593   0.000000
     6  Si   3.345827   3.813067   4.071635   1.641578   4.885484
     7  Si   3.456366   4.156670   1.638221   4.196128   4.948880
     8  Si   3.392697   1.649380   4.093745   3.991145   4.896027
     9  Si   3.457499   4.657608   4.299060   4.828581   1.636461
    10  O    4.429651   5.971683   5.051118   5.354991   2.753546
    11  O    4.585330   5.331168   5.732887   5.881580   2.702016
    12  O    3.789914   4.826712   3.936397   5.504539   2.608229
    13  O    4.270002   2.719099   5.318542   4.214123   5.663226
    14  O    3.755882   2.684348   3.691278   4.126823   5.584191
    15  O    4.521929   2.653632   5.050190   5.504452   5.704294
    16  O    4.628483   5.398571   5.225104   2.695283   5.880225
    17  O    3.694143   3.874372   3.701875   2.692947   5.558129
    18  O    4.117386   3.853141   5.198238   2.737563   5.546978
    19  O    3.962783   4.790812   2.604299   3.854086   5.616612
    20  O    4.712290   5.611606   2.759598   5.545712   5.818913
    21  O    4.138812   4.063399   2.714813   5.033803   5.739683
    22  H    4.718674   5.774345   4.687675   6.382877   3.489905
    23  H    5.039342   6.516614   5.870547   5.769869   3.266909
    24  H    4.569525   4.955058   5.845593   5.937227   2.881338
    25  H    4.154132   2.987545   5.273682   3.660633   5.594101
    26  H    5.408711   3.540275   5.853271   6.236426   6.653014
    27  H    3.786965   3.069237   3.734823   3.691708   5.710118
    28  H    5.220876   5.922624   3.301022   6.272775   6.232041
    29  H    3.910208   3.450000   2.925766   4.716225   5.632890
    30  H    4.925117   5.695325   3.472237   4.747556   6.547739
    31  H    4.796138   4.613282   6.009671   3.265245   6.012118
    32  H    4.637260   5.717784   5.198616   2.741094   5.657331
    33  H    3.669539   4.154829   3.196280   2.915671   5.519266
                    6          7          8          9         10
     6  Si   0.000000
     7  Si   4.629876   0.000000
     8  Si   4.074145   4.599791   0.000000
     9  Si   6.456897   5.858477   6.297268   0.000000
    10  O    6.977052   6.522829   7.609367   1.650925   0.000000
    11  O    7.467994   7.310970   6.914218   1.657406   2.628408
    12  O    7.042950   5.261360   6.342886   1.649859   2.678158
    13  O    3.902290   5.872660   1.641396   7.177233   8.398220
    14  O    3.877087   3.600906   1.674176   6.972180   8.118759
    15  O    5.711363   5.457933   1.639549   6.858623   8.344144
    16  O    1.648848   5.689656   5.714252   7.336767   7.525084
    17  O    1.650975   3.685040   3.717481   7.074705   7.719485
    18  O    1.663560   5.795749   3.701340   7.178121   7.903937
    19  O    3.813892   1.683113   5.057279   6.721723   7.161102
    20  O    6.085279   1.645340   6.152776   6.358018   6.796161
    21  O    5.239203   1.636949   4.002272   6.699567   7.643994
    22  H    7.927413   5.887758   7.264861   2.255412   2.841011
    23  H    7.374123   7.378434   8.158337   2.245457   0.963905
    24  H    7.448333   7.405252   6.452658   2.267923   3.513475
    25  H    3.128657   5.855309   2.256056   7.182998   8.256738
    26  H    6.244177   6.086107   2.249625   7.821158   9.304679
    27  H    3.135141   3.587160   2.256060   7.182032   8.181343
    28  H    6.848729   2.243958   6.403787   6.642195   7.184140
    29  H    4.792395   2.249212   3.116406   6.750363   7.809280
    30  H    4.538993   2.268308   5.827281   7.590515   7.956270
    31  H    2.262246   6.678899   4.528540   7.614446   8.245701
    32  H    2.250533   5.768130   6.264743   6.993765   6.986446
    33  H    2.275460   2.927521   4.173878   6.920759   7.476667
                   11         12         13         14         15
    11  O    0.000000
    12  O    2.778734   0.000000
    13  O    7.628396   7.527606   0.000000
    14  O    7.890778   6.804624   2.723289   0.000000
    15  O    7.265752   6.674103   2.700024   2.694049   0.000000
    16  O    8.377216   8.065315   5.389792   5.428215   7.353213
    17  O    8.223810   7.295694   3.896453   2.865182   5.259415
    18  O    7.898253   7.860459   2.880569   3.916936   5.263795
    19  O    8.200542   6.446057   5.957555   3.872032   6.240088
    20  O    7.899385   5.476230   7.494165   5.155881   6.830662
    21  O    7.961932   5.978928   5.410000   2.810526   4.509415
    22  H    3.146743   0.963570   8.480112   7.676208   7.524106
    23  H    2.663562   3.499519   8.807333   8.775509   8.913604
    24  H    0.963664   3.165523   7.128504   7.574023   6.662464
    25  H    7.711316   7.670744   0.974101   3.002637   3.586121
    26  H    8.198400   7.617865   2.926327   3.024619   0.963321
    27  H    8.180621   7.146654   2.847614   0.976674   3.552200
    28  H    8.114732   5.558908   7.852614   5.437959   6.858213
    29  H    7.891916   6.191938   4.494969   1.861079   3.668579
    30  H    9.101921   7.232459   6.702236   4.488271   6.947485
    31  H    8.229328   8.450372   3.510712   4.861783   6.032716
    32  H    8.082613   7.781488   6.076357   6.014390   7.887131
    33  H    8.211495   6.988956   4.653125   3.120071   5.618881
                   16         17         18         19         20
    16  O    0.000000
    17  O    2.783000   0.000000
    18  O    2.680926   2.575652   0.000000
    19  O    4.539540   2.744055   5.168846   0.000000
    20  O    6.937839   5.180702   7.370287   2.663909   0.000000
    21  O    6.526587   4.033241   6.029510   2.763822   2.657243
    22  H    8.885167   8.156336   8.798036   7.107290   5.864184
    23  H    7.815334   8.274624   8.210343   7.922099   7.714275
    24  H    8.484604   8.167823   7.696486   8.342733   8.121009
    25  H    4.516976   3.352340   1.930010   5.693261   7.497128
    26  H    7.859527   5.680008   5.648358   6.780802   7.451594
    27  H    4.597968   1.964238   3.283344   3.422586   5.184188
    28  H    7.802766   5.888884   8.033022   3.493521   0.963990
    29  H    6.203837   3.587492   5.355227   3.077509   3.553720
    30  H    5.078888   3.345797   5.874615   0.965369   2.778450
    31  H    2.741336   3.405937   0.963872   5.980819   8.223035
    32  H    0.963680   3.403891   3.458000   4.647801   6.867788
    33  H    3.175806   0.983796   3.492699   1.779698   4.313672
                   21         22         23         24         25
    21  O    0.000000
    22  H    6.632917   0.000000
    23  H    8.495597   3.623260   0.000000
    24  H    7.872345   3.642692   3.582092   0.000000
    25  H    5.616729   8.632244   8.625259   7.299402   0.000000
    26  H    4.976480   8.454775   9.869060   7.566659   3.861888
    27  H    3.119724   8.028045   8.808312   7.937132   2.805637
    28  H    2.724678   5.868596   8.129462   8.293111   7.965297
    29  H    0.980162   6.935301   8.605176   7.706059   4.755849
    30  H    3.141045   7.834338   8.730426   9.265768   6.435776
    31  H    6.981447   9.380356   8.450297   8.037514   2.545589
    32  H    6.806877   8.546220   7.241165   8.294233   5.239825
    33  H    3.507394   7.791050   8.104885   8.237012   4.211277
                   26         27         28         29         30
    26  H    0.000000
    27  H    3.855355   0.000000
    28  H    7.446835   5.616136   0.000000
    29  H    4.094529   2.306602   3.682734   0.000000
    30  H    7.412718   4.014728   3.565906   3.566157   0.000000
    31  H    6.391669   4.234622   8.916129   6.317702   6.665254
    32  H    8.470742   5.236797   7.767394   6.595312   5.190154
    33  H    6.090275   2.337946   5.070530   3.288799   2.384588
                   31         32         33
    31  H    0.000000
    32  H    3.484513   0.000000
    33  H    4.299948   3.584124   0.000000
 Stoichiometry    H12O16Si4Zr
 Framework group  C1[X(H12O16Si4Zr)]
 Deg. of freedom    93
 Full point group                 C1      NOp   1
 Largest Abelian subgroup         C1      NOp   1
 Largest concise Abelian subgroup C1      NOp   1
                         Standard orientation:                         
 ---------------------------------------------------------------------
 Center     Atomic      Atomic             Coordinates (Angstroms)
 Number     Number       Type             X           Y           Z
 ---------------------------------------------------------------------
      1         40           0        0.645050   -0.305123   -0.115676
      2          8           0       -0.292645   -0.994695    1.443234
      3          8           0        0.342457    1.624963   -0.119899
      4          8           0       -0.423738   -0.997558   -1.629513
      5          8           0        2.520064   -0.868951   -0.185095
      6         14           0       -2.028096   -1.134120   -1.949147
      7         14           0       -0.718774    2.869576   -0.027728
      8         14           0       -1.796687   -1.053894    2.117630
      9         14           0        4.097479   -0.465900   -0.019812
     10          8           0        4.866141   -0.183864   -1.453398
     11          8           0        4.935849   -1.709314    0.685917
     12          8           0        4.093035    0.933138    0.854662
     13          8           0       -2.592262   -2.424481    1.690160
     14          8           0       -2.640466    0.296946    1.601748
     15          8           0       -1.613235   -0.971891    3.744818
     16          8           0       -2.267304   -1.303460   -3.571739
     17          8           0       -2.844725    0.119230   -1.250613
     18          8           0       -2.700833   -2.451643   -1.188235
     19          8           0       -1.722111    2.620923   -1.356019
     20          8           0       -0.041951    4.355387   -0.231249
     21          8           0       -1.537014    2.873111    1.390042
     22          1           0        4.917416    1.431175    0.883344
     23          1           0        5.342308   -0.932894   -1.829342
     24          1           0        4.526472   -2.147390    1.440336
     25          1           0       -2.726282   -2.577347    0.737509
     26          1           0       -2.404288   -1.081794    4.283468
     27          1           0       -3.015658    0.213126    0.703919
     28          1           0        0.155161    4.846711    0.574371
     29          1           0       -1.949323    2.024126    1.654508
     30          1           0       -2.240934    3.388452   -1.627421
     31          1           0       -2.782109   -3.254207   -1.715808
     32          1           0       -1.518125   -1.094656   -4.140784
     33          1           0       -2.511680    1.027622   -1.428824
 ---------------------------------------------------------------------
 Rotational constants (GHZ):           0.2153697           0.1363339           0.1272027
 General basis read from cards:  (5D, 7F)
 ======================================================================================================
                                       Pseudopotential Parameters
 ======================================================================================================
  Center     Atomic      Valence      Angular      Power
  Number     Number     Electrons     Momentum     of R      Exponent        Coefficient   SO-Coeffient
 ======================================================================================================
    1         40           12
                                      G and up 
                                                     2        1.0000000        0.00000000    0.00000000
                                      S - G
                                                     2        8.6365280      150.24299400    0.00000000
                                                     2        3.7176390       18.78003600    0.00000000
                                      P - G
                                                     2        7.6267280       33.19279100    0.00000000
                                                     2        7.4532070       66.38903900    0.00000000
                                                     2        3.3583890        4.62072600    0.00000000
                                                     2        3.2297380        9.26027000    0.00000000
                                      D - G
                                                     2        5.9380860       13.99338300    0.00000000
                                                     2        5.8255440       20.99588200    0.00000000
                                                     2        2.2050190        2.28516600    0.00000000
                                                     2        2.2062920        3.44126000    0.00000000
                                      F - G
                                                     2        4.8002150       -5.23932000    0.00000000
                                                     2        4.7989920       -6.98742400    0.00000000
    2          8
                                   No pseudopotential on this center.
    3          8
                                   No pseudopotential on this center.
    4          8
                                   No pseudopotential on this center.
    5          8
                                   No pseudopotential on this center.
    6         14
                                   No pseudopotential on this center.
    7         14
                                   No pseudopotential on this center.
    8         14
                                   No pseudopotential on this center.
    9         14
                                   No pseudopotential on this center.
   10          8
                                   No pseudopotential on this center.
   11          8
                                   No pseudopotential on this center.
   12          8
                                   No pseudopotential on this center.
   13          8
                                   No pseudopotential on this center.
   14          8
                                   No pseudopotential on this center.
   15          8
                                   No pseudopotential on this center.
   16          8
                                   No pseudopotential on this center.
   17          8
                                   No pseudopotential on this center.
   18          8
                                   No pseudopotential on this center.
   19          8
                                   No pseudopotential on this center.
   20          8
                                   No pseudopotential on this center.
   21          8
                                   No pseudopotential on this center.
   22          1
                                   No pseudopotential on this center.
   23          1
                                   No pseudopotential on this center.
   24          1
                                   No pseudopotential on this center.
   25          1
                                   No pseudopotential on this center.
   26          1
                                   No pseudopotential on this center.
   27          1
                                   No pseudopotential on this center.
   28          1
                                   No pseudopotential on this center.
   29          1
                                   No pseudopotential on this center.
   30          1
                                   No pseudopotential on this center.
   31          1
                                   No pseudopotential on this center.
   32          1
                                   No pseudopotential on this center.
   33          1
                                   No pseudopotential on this center.
 ======================================================================================================
 There are   570 symmetry adapted cartesian basis functions of A   symmetry.
 There are   524 symmetry adapted basis functions of A   symmetry.
   524 basis functions,  1074 primitive gaussians,   570 cartesian basis functions
   104 alpha electrons      104 beta electrons
       nuclear repulsion energy      2846.8863729647 Hartrees.
 NAtoms=   33 NActive=   33 NUniq=   33 SFac= 1.00D+00 NAtFMM=   60 NAOKFM=F Big=F
 Integral buffers will be    131072 words long.
 Raffenetti 2 integral format.
 Two-electron integral symmetry is turned on.
 Nuclear repulsion after empirical dispersion term =     2846.8453260582 Hartrees.
 One-electron integrals computed using PRISM.
 PrsmSu:  requested number of processors reduced to:   4 ShMem   1 Linda.
   1 Symmetry operations used in ECPInt.
 ECPInt:  NShTT=   13203 NPrTT=   78401 LenC2=   11561 LenP2D=   44820.
 LDataN:  DoStor=T MaxTD1= 8 Len=  415
 Number of processors reduced to  13 by ecpmxn.
 NBasis=   524 RedAO= T EigKep=  2.97D-05  NBF=   524
 NBsUse=   524 1.00D-06 EigRej= -1.00D+00 NBFU=   524
 Defaulting to unpruned grid for atomic number  40.
 ExpMin= 1.01D-02 ExpMax= 1.61D+04 ExpMxC= 2.43D+03 IAcc=3 IRadAn=         5 AccDes= 0.00D+00
 Harris functional with IExCor=  402 and IRadAn=       5 diagonalized for initial guess.
 HarFok:  IExCor=  402 AccDes= 0.00D+00 IRadAn=         5 IDoV= 1 UseB2=F ITyADJ=14
 ICtDFT=  3500011 ScaDFX=  1.000000  1.000000  1.000000  1.000000
 Defaulting to unpruned grid for atomic number  40.
 FoFCou: FMM=F IPFlag=           0 FMFlag=      100000 FMFlg1=           0
         NFxFlg=           0 DoJE=T BraDBF=F KetDBF=T FulRan=T
         wScrn=  0.000000 ICntrl=       500 IOpCl=  0 I1Cent=   200000004 NGrid=           0
         NMat0=    1 NMatS0=      1 NMatT0=    0 NMatD0=    1 NMtDS0=    0 NMtDT0=    0
 Petite list used in FoFCou.
 Requested convergence on RMS density matrix=1.00D-08 within 128 cycles.
 Requested convergence on MAX density matrix=1.00D-06.
 Requested convergence on             energy=1.00D-06.
 No special actions if energy rises.
 Defaulting to unpruned grid for atomic number  40.
 Defaulting to unpruned grid for atomic number  40.
 Defaulting to unpruned grid for atomic number  40.
 Defaulting to unpruned grid for atomic number  40.
 Defaulting to unpruned grid for atomic number  40.
 Defaulting to unpruned grid for atomic number  40.
 Defaulting to unpruned grid for atomic number  40.
 Defaulting to unpruned grid for atomic number  40.
 Defaulting to unpruned grid for atomic number  40.
 Defaulting to unpruned grid for atomic number  40.
 Defaulting to unpruned grid for atomic number  40.
 Defaulting to unpruned grid for atomic number  40.
 Defaulting to unpruned grid for atomic number  40.
 Defaulting to unpruned grid for atomic number  40.
 Defaulting to unpruned grid for atomic number  40.
 Defaulting to unpruned grid for atomic number  40.
 SCF Done:  E(RB3LYP) =  -2416.94642801     A.U. after   14 cycles
            NFock= 14  Conv=0.24D-08     -V/T= 2.0184

 **********************************************************************

            Population analysis using the SCF Density.

 **********************************************************************

 Orbital symmetries:
       Occupied  (A) (A) (A) (A) (A) (A) (A) (A) (A) (A) (A) (A)
                 (A) (A) (A) (A) (A) (A) (A) (A) (A) (A) (A) (A)
                 (A) (A) (A) (A) (A) (A) (A) (A) (A) (A) (A) (A)
                 (A) (A) (A) (A) (A) (A) (A) (A) (A) (A) (A) (A)
                 (A) (A) (A) (A) (A) (A) (A) (A) (A) (A) (A) (A)
                 (A) (A) (A) (A) (A) (A) (A) (A) (A) (A) (A) (A)
                 (A) (A) (A) (A) (A) (A) (A) (A) (A) (A) (A) (A)
                 (A) (A) (A) (A) (A) (A) (A) (A) (A) (A) (A) (A)
                 (A) (A) (A) (A) (A) (A) (A) (A)
       Virtual   (A) (A) (A) (A) (A) (A) (A) (A) (A) (A) (A) (A)
                 (A) (A) (A) (A) (A) (A) (A) (A) (A) (A) (A) (A)
                 (A) (A) (A) (A) (A) (A) (A) (A) (A) (A) (A) (A)
                 (A) (A) (A) (A) (A) (A) (A) (A) (A) (A) (A) (A)
                 (A) (A) (A) (A) (A) (A) (A) (A) (A) (A) (A) (A)
                 (A) (A) (A) (A) (A) (A) (A) (A) (A) (A) (A) (A)
                 (A) (A) (A) (A) (A) (A) (A) (A) (A) (A) (A) (A)
                 (A) (A) (A) (A) (A) (A) (A) (A) (A) (A) (A) (A)
                 (A) (A) (A) (A) (A) (A) (A) (A) (A) (A) (A) (A)
                 (A) (A) (A) (A) (A) (A) (A) (A) (A) (A) (A) (A)
                 (A) (A) (A) (A) (A) (A) (A) (A) (A) (A) (A) (A)
                 (A) (A) (A) (A) (A) (A) (A) (A) (A) (A) (A) (A)
                 (A) (A) (A) (A) (A) (A) (A) (A) (A) (A) (A) (A)
                 (A) (A) (A) (A) (A) (A) (A) (A) (A) (A) (A) (A)
                 (A) (A) (A) (A) (A) (A) (A) (A) (A) (A) (A) (A)
                 (A) (A) (A) (A) (A) (A) (A) (A) (A) (A) (A) (A)
                 (A) (A) (A) (A) (A) (A) (A) (A) (A) (A) (A) (A)
                 (A) (A) (A) (A) (A) (A) (A) (A) (A) (A) (A) (A)
                 (A) (A) (A) (A) (A) (A) (A) (A) (A) (A) (A) (A)
                 (A) (A) (A) (A) (A) (A) (A) (A) (A) (A) (A) (A)
                 (A) (A) (A) (A) (A) (A) (A) (A) (A) (A) (A) (A)
                 (A) (A) (A) (A) (A) (A) (A) (A) (A) (A) (A) (A)
                 (A) (A) (A) (A) (A) (A) (A) (A) (A) (A) (A) (A)
                 (A) (A) (A) (A) (A) (A) (A) (A) (A) (A) (A) (A)
                 (A) (A) (A) (A) (A) (A) (A) (A) (A) (A) (A) (A)
                 (A) (A) (A) (A) (A) (A) (A) (A) (A) (A) (A) (A)
                 (A) (A) (A) (A) (A) (A) (A) (A) (A) (A) (A) (A)
                 (A) (A) (A) (A) (A) (A) (A) (A) (A) (A) (A) (A)
                 (A) (A) (A) (A) (A) (A) (A) (A) (A) (A) (A) (A)
                 (A) (A) (A) (A) (A) (A) (A) (A) (A) (A) (A) (A)
                 (A) (A) (A) (A) (A) (A) (A) (A) (A) (A) (A) (A)
                 (A) (A) (A) (A) (A) (A) (A) (A) (A) (A) (A) (A)
                 (A) (A) (A) (A) (A) (A) (A) (A) (A) (A) (A) (A)
                 (A) (A) (A) (A) (A) (A) (A) (A) (A) (A) (A) (A)
                 (A) (A) (A) (A) (A) (A) (A) (A) (A) (A) (A) (A)
 The electronic state is 1-A.
 Alpha  occ. eigenvalues --  -66.22713 -66.21666 -66.21535 -66.20939 -19.18502
 Alpha  occ. eigenvalues --  -19.18274 -19.17708 -19.16941 -19.16662 -19.16558
 Alpha  occ. eigenvalues --  -19.16511 -19.16496 -19.16094 -19.15915 -19.15901
 Alpha  occ. eigenvalues --  -19.15407 -19.15383 -19.15122 -19.14811 -19.14614
 Alpha  occ. eigenvalues --   -5.36773  -5.35746  -5.35632  -5.34999  -3.72757
 Alpha  occ. eigenvalues --   -3.72730  -3.72684  -3.71738  -3.71690  -3.71656
 Alpha  occ. eigenvalues --   -3.71599  -3.71589  -3.71554  -3.70963  -3.70955
 Alpha  occ. eigenvalues --   -3.70929  -2.13217  -1.29494  -1.29389  -1.29229
 Alpha  occ. eigenvalues --   -1.05595  -1.04697  -1.04270  -1.03408  -1.02482
 Alpha  occ. eigenvalues --   -1.02092  -1.01392  -1.01112  -1.00820  -1.00581
 Alpha  occ. eigenvalues --   -0.99746  -0.99215  -0.97343  -0.96183  -0.95675
 Alpha  occ. eigenvalues --   -0.95328  -0.60905  -0.59104  -0.59017  -0.58399
 Alpha  occ. eigenvalues --   -0.55459  -0.54453  -0.53998  -0.53130  -0.52959
 Alpha  occ. eigenvalues --   -0.52403  -0.52062  -0.51624  -0.48682  -0.47470
 Alpha  occ. eigenvalues --   -0.47079  -0.46573  -0.43290  -0.42565  -0.41776
 Alpha  occ. eigenvalues --   -0.41353  -0.41233  -0.40391  -0.39759  -0.39271
 Alpha  occ. eigenvalues --   -0.38869  -0.38635  -0.38591  -0.38095  -0.37921
 Alpha  occ. eigenvalues --   -0.37580  -0.37412  -0.37084  -0.36559  -0.36378
 Alpha  occ. eigenvalues --   -0.36121  -0.35649  -0.35422  -0.35088  -0.34913
 Alpha  occ. eigenvalues --   -0.34521  -0.33920  -0.33707  -0.33409  -0.33192
 Alpha  occ. eigenvalues --   -0.32796  -0.32272  -0.31965  -0.31206
 Alpha virt. eigenvalues --   -0.04261  -0.03041  -0.02947  -0.02770  -0.02019
 Alpha virt. eigenvalues --   -0.01092  -0.00439  -0.00050   0.00160   0.00234
 Alpha virt. eigenvalues --    0.00913   0.00935   0.01165   0.02064   0.02364
 Alpha virt. eigenvalues --    0.03071   0.03385   0.03860   0.04037   0.04057
 Alpha virt. eigenvalues --    0.04128   0.04903   0.05651   0.05916   0.06303
 Alpha virt. eigenvalues --    0.06632   0.06954   0.07464   0.07728   0.08688
 Alpha virt. eigenvalues --    0.08817   0.09184   0.09259   0.09857   0.10033
 Alpha virt. eigenvalues --    0.10418   0.10707   0.10803   0.11428   0.11679
 Alpha virt. eigenvalues --    0.11765   0.12679   0.13158   0.13481   0.13525
 Alpha virt. eigenvalues --    0.13992   0.14559   0.15045   0.15106   0.15321
 Alpha virt. eigenvalues --    0.15341   0.15802   0.16096   0.16722   0.17161
 Alpha virt. eigenvalues --    0.17495   0.17560   0.17726   0.17979   0.18229
 Alpha virt. eigenvalues --    0.18454   0.18945   0.19274   0.19607   0.20025
 Alpha virt. eigenvalues --    0.20120   0.20507   0.20918   0.21016   0.21285
 Alpha virt. eigenvalues --    0.21810   0.22153   0.22222   0.22656   0.22847
 Alpha virt. eigenvalues --    0.23439   0.23803   0.24177   0.24245   0.25029
 Alpha virt. eigenvalues --    0.25172   0.25407   0.25697   0.26132   0.26364
 Alpha virt. eigenvalues --    0.26503   0.26627   0.26946   0.27277   0.27537
 Alpha virt. eigenvalues --    0.28164   0.28210   0.28550   0.28921   0.29069
 Alpha virt. eigenvalues --    0.29615   0.30046   0.30163   0.30503   0.31003
 Alpha virt. eigenvalues --    0.31171   0.31341   0.31795   0.31817   0.32228
 Alpha virt. eigenvalues --    0.32310   0.33050   0.33438   0.33603   0.34061
 Alpha virt. eigenvalues --    0.34928   0.35077   0.35259   0.36261   0.36310
 Alpha virt. eigenvalues --    0.37267   0.37660   0.38212   0.38361   0.39076
 Alpha virt. eigenvalues --    0.39424   0.39688   0.40500   0.41421   0.41832
 Alpha virt. eigenvalues --    0.42715   0.43451   0.43763   0.44208   0.44598
 Alpha virt. eigenvalues --    0.45107   0.45640   0.46176   0.47102   0.47456
 Alpha virt. eigenvalues --    0.48010   0.48672   0.48908   0.49680   0.50048
 Alpha virt. eigenvalues --    0.50388   0.51166   0.51510   0.52228   0.53570
 Alpha virt. eigenvalues --    0.53965   0.54835   0.56020   0.56873   0.57114
 Alpha virt. eigenvalues --    0.57514   0.58776   0.59079   0.59362   0.61043
 Alpha virt. eigenvalues --    0.61153   0.61958   0.62393   0.64873   0.65970
 Alpha virt. eigenvalues --    0.66563   0.67269   0.67782   0.68490   0.69432
 Alpha virt. eigenvalues --    0.69936   0.70595   0.72956   0.73901   0.74959
 Alpha virt. eigenvalues --    0.75665   0.77470   0.78164   0.79571   0.80062
 Alpha virt. eigenvalues --    0.81187   0.81806   0.83139   0.84343   0.85265
 Alpha virt. eigenvalues --    0.86230   0.87835   0.89338   0.91215   0.91521
 Alpha virt. eigenvalues --    0.94449   0.95862   0.95994   0.97005   0.97574
 Alpha virt. eigenvalues --    0.97803   0.98367   0.99240   0.99532   1.00510
 Alpha virt. eigenvalues --    1.01090   1.01523   1.01966   1.03846   1.04001
 Alpha virt. eigenvalues --    1.04523   1.05450   1.06617   1.06913   1.07807
 Alpha virt. eigenvalues --    1.09612   1.11757   1.15253   1.16282   1.16763
 Alpha virt. eigenvalues --    1.19077   1.19507   1.19994   1.20515   1.20898
 Alpha virt. eigenvalues --    1.21391   1.22220   1.22670   1.23139   1.23407
 Alpha virt. eigenvalues --    1.23886   1.24044   1.24619   1.25423   1.25731
 Alpha virt. eigenvalues --    1.26489   1.27164   1.27874   1.28266   1.29191
 Alpha virt. eigenvalues --    1.29406   1.29778   1.30494   1.30991   1.32027
 Alpha virt. eigenvalues --    1.32494   1.32756   1.33338   1.34116   1.34597
 Alpha virt. eigenvalues --    1.35434   1.36225   1.37059   1.37099   1.38393
 Alpha virt. eigenvalues --    1.38779   1.39988   1.40682   1.41273   1.41618
 Alpha virt. eigenvalues --    1.43151   1.43666   1.44387   1.45229   1.46206
 Alpha virt. eigenvalues --    1.47812   1.48464   1.49631   1.51877   1.52600
 Alpha virt. eigenvalues --    1.56697   1.57422   1.58150   1.58674   1.59758
 Alpha virt. eigenvalues --    1.60181   1.61607   1.61965   1.62525   1.62877
 Alpha virt. eigenvalues --    1.63344   1.64003   1.64915   1.65679   1.66372
 Alpha virt. eigenvalues --    1.67031   1.67928   1.69029   1.69862   1.70513
 Alpha virt. eigenvalues --    1.71342   1.71421   1.72120   1.72373   1.73460
 Alpha virt. eigenvalues --    1.74018   1.74464   1.75485   1.76869   1.77074
 Alpha virt. eigenvalues --    1.77387   1.77836   1.78188   1.79121   1.79809
 Alpha virt. eigenvalues --    1.80036   1.80775   1.82158   1.82247   1.83493
 Alpha virt. eigenvalues --    1.83859   1.84827   1.85589   1.86399   1.87046
 Alpha virt. eigenvalues --    1.87567   1.87875   1.88579   1.89798   1.90306
 Alpha virt. eigenvalues --    1.91541   1.92153   1.92493   1.93063   1.93870
 Alpha virt. eigenvalues --    1.94500   1.94816   1.96290   1.97885   1.98164
 Alpha virt. eigenvalues --    1.99572   2.00339   2.02074   2.03201   2.03632
 Alpha virt. eigenvalues --    2.05952   2.06868   2.08794   2.09836   2.11015
 Alpha virt. eigenvalues --    2.11431   2.13066   2.14907   2.15504   2.16573
 Alpha virt. eigenvalues --    2.17764   2.18805   2.20067   2.21239   2.25325
 Alpha virt. eigenvalues --    2.33084   2.33734   2.36134   2.39611   2.40414
 Alpha virt. eigenvalues --    2.41094   2.41571   2.42067   2.42838   2.44014
 Alpha virt. eigenvalues --    2.44133   2.45083   2.46751   2.47735   2.49337
 Alpha virt. eigenvalues --    2.50120   2.50407   2.51779   2.52385   2.53698
 Alpha virt. eigenvalues --    2.55386   2.58500   2.59922   2.60325   2.60749
 Alpha virt. eigenvalues --    2.61258   2.61798   2.62074   2.62736   2.62972
 Alpha virt. eigenvalues --    2.63239   2.64145   2.64817   2.65122   2.66044
 Alpha virt. eigenvalues --    2.66675   2.66774   2.67522   2.67785   2.69479
 Alpha virt. eigenvalues --    2.70457   2.71328   2.71368   2.71728   2.72767
 Alpha virt. eigenvalues --    2.74238   2.75636   2.76327   2.77367   2.78074
 Alpha virt. eigenvalues --    2.79409   2.80560   2.81994   2.82672   2.83641
 Alpha virt. eigenvalues --    2.84038   2.84988   2.86928   2.87982   2.88198
 Alpha virt. eigenvalues --    3.15419   3.22219   3.36100   3.40016   3.46514
 Alpha virt. eigenvalues --    3.47804   3.48653   3.49363   3.51047   3.51137
 Alpha virt. eigenvalues --    3.52220   3.54755   3.60378   3.61199   3.62075
 Alpha virt. eigenvalues --    3.66244   4.38770   4.73564   7.63853  31.22956
          Condensed to atoms (all electrons):
               1          2          3          4          5          6
     1  Zr  15.711453  -0.185522   0.007787  -0.214378  -0.074785  -0.663757
     2  O   -0.185522   9.064649   0.014633  -0.044062  -0.047653   0.099720
     3  O    0.007787   0.014633   8.797324   0.008628  -0.056259  -0.010738
     4  O   -0.214378  -0.044062   0.008628   8.822194  -0.066824  -0.666711
     5  O   -0.074785  -0.047653  -0.056259  -0.066824   9.277221   0.000088
     6  Si  -0.663757   0.099720  -0.010738  -0.666711   0.000088  13.977738
     7  Si  -0.658582  -0.023517  -0.868541  -0.004852  -0.027907   0.095216
     8  Si  -0.650475  -0.959351  -0.032235   0.089184  -0.005302  -0.023923
     9  Si  -0.644060  -0.013533   0.041782  -0.004892  -1.161242   0.064844
    10  O   -0.028355   0.000462  -0.004367  -0.000120   0.116647  -0.003107
    11  O   -0.108335   0.002868   0.002535   0.001171   0.305220  -0.000338
    12  O    0.067660  -0.000886   0.005319   0.001601   0.172058  -0.003976
    13  O   -0.022743   0.193536   0.001355  -0.014312  -0.000909   0.027455
    14  O   -0.046981   0.256172  -0.019018  -0.010329   0.000447   0.037739
    15  O   -0.089496   0.285154  -0.000501   0.001131   0.000517   0.002290
    16  O   -0.109097   0.004700  -0.000512   0.339199   0.002560  -0.431993
    17  O   -0.127446  -0.038535   0.005729   0.216905  -0.000090  -0.421511
    18  O   -0.057272  -0.015142   0.003320   0.213056  -0.000871  -0.446266
    19  O   -0.004504   0.008794   0.271172   0.012489   0.001970  -0.007086
    20  O   -0.138812  -0.000629   0.145636  -0.000739   0.000620   0.009107
    21  O    0.047597   0.010649   0.161136   0.003860   0.000876  -0.016627
    22  H   -0.011946  -0.000001   0.000129  -0.000009   0.003843   0.000177
    23  H   -0.004059  -0.000011  -0.000004  -0.000056  -0.024560   0.000071
    24  H   -0.006572  -0.000092   0.000012   0.000002  -0.002889   0.000030
    25  H    0.015072  -0.019912  -0.000093  -0.000818   0.000023   0.004420
    26  H    0.009493   0.000819   0.000013  -0.000009  -0.000002  -0.000415
    27  H    0.015839  -0.019471   0.000922  -0.001603   0.000026   0.005346
    28  H    0.004142  -0.000010  -0.017630  -0.000014  -0.000010  -0.000306
    29  H    0.004076  -0.007022  -0.020141  -0.000124  -0.000060  -0.000194
    30  H    0.001959  -0.000016   0.000120  -0.000490  -0.000007  -0.001621
    31  H    0.001578   0.000154  -0.000021  -0.018588  -0.000007   0.063673
    32  H    0.001620  -0.000027   0.000037   0.010697   0.000008   0.023249
    33  H   -0.020434   0.001092  -0.010307  -0.009851  -0.000066   0.056195
               7          8          9         10         11         12
     1  Zr  -0.658582  -0.650475  -0.644060  -0.028355  -0.108335   0.067660
     2  O   -0.023517  -0.959351  -0.013533   0.000462   0.002868  -0.000886
     3  O   -0.868541  -0.032235   0.041782  -0.004367   0.002535   0.005319
     4  O   -0.004852   0.089184  -0.004892  -0.000120   0.001171   0.001601
     5  O   -0.027907  -0.005302  -1.161242   0.116647   0.305220   0.172058
     6  Si   0.095216  -0.023923   0.064844  -0.003107  -0.000338  -0.003976
     7  Si  13.792740   0.193242   0.034421   0.000647   0.000162   0.002728
     8  Si   0.193242  13.751634   0.039305  -0.001122   0.001845  -0.001875
     9  Si   0.034421   0.039305  14.216094  -0.004417  -0.153456  -0.295828
    10  O    0.000647  -0.001122  -0.004417   8.538258  -0.021298   0.045177
    11  O    0.000162   0.001845  -0.153456  -0.021298   8.576912  -0.055215
    12  O    0.002728  -0.001875  -0.295828   0.045177  -0.055215   8.651015
    13  O    0.005898  -0.100752  -0.000546  -0.000000   0.000014   0.000015
    14  O    0.017730  -0.340736  -0.000727  -0.000000   0.000005   0.000081
    15  O   -0.001208  -0.296645   0.000150   0.000002  -0.000029  -0.000047
    16  O    0.003747  -0.011157  -0.001676   0.000013  -0.000003   0.000003
    17  O    0.007792   0.109344   0.004155   0.000001   0.000003  -0.000009
    18  O   -0.001230   0.081493   0.004296   0.000003   0.000001  -0.000002
    19  O   -0.418546  -0.017767   0.001150   0.000007   0.000002   0.000022
    20  O   -0.088247   0.010257   0.003995   0.000004   0.000001  -0.000045
    21  O    0.002465  -0.045851  -0.003979  -0.000004   0.000006   0.000003
    22  H   -0.000270   0.000192   0.051468  -0.004391  -0.004711   0.220608
    23  H    0.000045   0.000049   0.072968   0.230821  -0.004999   0.005572
    24  H    0.000063  -0.000055   0.040219   0.008046   0.236297  -0.006846
    25  H   -0.000341   0.057378  -0.000150   0.000000   0.000000  -0.000000
    26  H   -0.000434   0.044220  -0.000097  -0.000000   0.000000  -0.000000
    27  H   -0.000355   0.064332  -0.000146   0.000000  -0.000000  -0.000000
    28  H    0.055961  -0.000049  -0.000129  -0.000000  -0.000000  -0.000011
    29  H    0.048300   0.021747  -0.000105   0.000000  -0.000000  -0.000004
    30  H    0.041174   0.000117  -0.000000   0.000000  -0.000000  -0.000000
    31  H    0.000152  -0.002598  -0.000050   0.000000  -0.000000  -0.000000
    32  H   -0.000728   0.000091  -0.000053  -0.000000   0.000000  -0.000000
    33  H    0.021205   0.000578   0.000178  -0.000000  -0.000000   0.000001
              13         14         15         16         17         18
     1  Zr  -0.022743  -0.046981  -0.089496  -0.109097  -0.127446  -0.057272
     2  O    0.193536   0.256172   0.285154   0.004700  -0.038535  -0.015142
     3  O    0.001355  -0.019018  -0.000501  -0.000512   0.005729   0.003320
     4  O   -0.014312  -0.010329   0.001131   0.339199   0.216905   0.213056
     5  O   -0.000909   0.000447   0.000517   0.002560  -0.000090  -0.000871
     6  Si   0.027455   0.037739   0.002290  -0.431993  -0.421511  -0.446266
     7  Si   0.005898   0.017730  -0.001208   0.003747   0.007792  -0.001230
     8  Si  -0.100752  -0.340736  -0.296645  -0.011157   0.109344   0.081493
     9  Si  -0.000546  -0.000727   0.000150  -0.001676   0.004155   0.004296
    10  O   -0.000000  -0.000000   0.000002   0.000013   0.000001   0.000003
    11  O    0.000014   0.000005  -0.000029  -0.000003   0.000003   0.000001
    12  O    0.000015   0.000081  -0.000047   0.000003  -0.000009  -0.000002
    13  O    8.626933   0.086618  -0.093335   0.003812  -0.031388  -0.046123
    14  O    0.086618   8.672171   0.055674   0.003434  -0.035438  -0.027635
    15  O   -0.093335   0.055674   8.776703  -0.000174   0.003681   0.001772
    16  O    0.003812   0.003434  -0.000174   8.899152  -0.092297  -0.112898
    17  O   -0.031388  -0.035438   0.003681  -0.092297   8.927625   0.228434
    18  O   -0.046123  -0.027635   0.001772  -0.112898   0.228434   9.014544
    19  O    0.000214  -0.000059   0.000141  -0.001368  -0.028812   0.000138
    20  O    0.000009  -0.000578   0.000029   0.000043  -0.001219   0.000021
    21  O   -0.000227   0.016991  -0.000476  -0.000185  -0.005915   0.000453
    22  H   -0.000000   0.000000   0.000000  -0.000000   0.000000  -0.000000
    23  H   -0.000000  -0.000000   0.000000   0.000000   0.000000  -0.000000
    24  H    0.000000   0.000000   0.000001  -0.000000   0.000000   0.000000
    25  H    0.218958  -0.011636   0.008924  -0.000081   0.000599   0.014625
    26  H   -0.005279  -0.010205   0.217037   0.000000  -0.000008   0.000003
    27  H   -0.009754   0.218254   0.004568   0.000217   0.017098  -0.000293
    28  H    0.000000  -0.000006  -0.000001   0.000000   0.000004   0.000000
    29  H    0.000775   0.017789  -0.002561  -0.000005  -0.000379   0.000009
    30  H    0.000001  -0.000013   0.000000   0.000128  -0.000396  -0.000009
    31  H    0.002281   0.000174  -0.000018   0.003729  -0.000724   0.217475
    32  H   -0.000008  -0.000006   0.000000   0.233390  -0.003642   0.003832
    33  H    0.000252   0.002304  -0.000039  -0.000191   0.231854   0.002044
              19         20         21         22         23         24
     1  Zr  -0.004504  -0.138812   0.047597  -0.011946  -0.004059  -0.006572
     2  O    0.008794  -0.000629   0.010649  -0.000001  -0.000011  -0.000092
     3  O    0.271172   0.145636   0.161136   0.000129  -0.000004   0.000012
     4  O    0.012489  -0.000739   0.003860  -0.000009  -0.000056   0.000002
     5  O    0.001970   0.000620   0.000876   0.003843  -0.024560  -0.002889
     6  Si  -0.007086   0.009107  -0.016627   0.000177   0.000071   0.000030
     7  Si  -0.418546  -0.088247   0.002465  -0.000270   0.000045   0.000063
     8  Si  -0.017767   0.010257  -0.045851   0.000192   0.000049  -0.000055
     9  Si   0.001150   0.003995  -0.003979   0.051468   0.072968   0.040219
    10  O    0.000007   0.000004  -0.000004  -0.004391   0.230821   0.008046
    11  O    0.000002   0.000001   0.000006  -0.004711  -0.004999   0.236297
    12  O    0.000022  -0.000045   0.000003   0.220608   0.005572  -0.006846
    13  O    0.000214   0.000009  -0.000227  -0.000000  -0.000000   0.000000
    14  O   -0.000059  -0.000578   0.016991   0.000000  -0.000000   0.000000
    15  O    0.000141   0.000029  -0.000476   0.000000   0.000000   0.000001
    16  O   -0.001368   0.000043  -0.000185  -0.000000   0.000000  -0.000000
    17  O   -0.028812  -0.001219  -0.005915   0.000000   0.000000   0.000000
    18  O    0.000138   0.000021   0.000453  -0.000000  -0.000000   0.000000
    19  O    8.879512   0.031387   0.026582  -0.000000   0.000000  -0.000000
    20  O    0.031387   8.648237  -0.050114   0.000000   0.000000  -0.000000
    21  O    0.026582  -0.050114   8.491647  -0.000002   0.000000   0.000000
    22  H   -0.000000   0.000000  -0.000002   0.351394   0.000041   0.000120
    23  H    0.000000   0.000000   0.000000   0.000041   0.350860   0.000021
    24  H   -0.000000  -0.000000   0.000000   0.000120   0.000021   0.365949
    25  H   -0.000023   0.000000  -0.000015   0.000000   0.000000   0.000000
    26  H    0.000000   0.000000   0.000036  -0.000000  -0.000000  -0.000000
    27  H   -0.000094   0.000198  -0.004096  -0.000000  -0.000000  -0.000000
    28  H    0.004553   0.230012  -0.001838  -0.000000   0.000000  -0.000000
    29  H   -0.008497   0.007728   0.206909   0.000000  -0.000000  -0.000000
    30  H    0.223445  -0.001631  -0.007249   0.000000  -0.000000   0.000000
    31  H    0.000004  -0.000000  -0.000000  -0.000000   0.000000   0.000000
    32  H    0.000083   0.000000   0.000001  -0.000000  -0.000000  -0.000000
    33  H    0.014512  -0.000003   0.001358  -0.000000  -0.000000   0.000000
              25         26         27         28         29         30
     1  Zr   0.015072   0.009493   0.015839   0.004142   0.004076   0.001959
     2  O   -0.019912   0.000819  -0.019471  -0.000010  -0.007022  -0.000016
     3  O   -0.000093   0.000013   0.000922  -0.017630  -0.020141   0.000120
     4  O   -0.000818  -0.000009  -0.001603  -0.000014  -0.000124  -0.000490
     5  O    0.000023  -0.000002   0.000026  -0.000010  -0.000060  -0.000007
     6  Si   0.004420  -0.000415   0.005346  -0.000306  -0.000194  -0.001621
     7  Si  -0.000341  -0.000434  -0.000355   0.055961   0.048300   0.041174
     8  Si   0.057378   0.044220   0.064332  -0.000049   0.021747   0.000117
     9  Si  -0.000150  -0.000097  -0.000146  -0.000129  -0.000105  -0.000000
    10  O    0.000000  -0.000000   0.000000  -0.000000   0.000000   0.000000
    11  O    0.000000   0.000000  -0.000000  -0.000000  -0.000000  -0.000000
    12  O   -0.000000  -0.000000  -0.000000  -0.000011  -0.000004  -0.000000
    13  O    0.218958  -0.005279  -0.009754   0.000000   0.000775   0.000001
    14  O   -0.011636  -0.010205   0.218254  -0.000006   0.017789  -0.000013
    15  O    0.008924   0.217037   0.004568  -0.000001  -0.002561   0.000000
    16  O   -0.000081   0.000000   0.000217   0.000000  -0.000005   0.000128
    17  O    0.000599  -0.000008   0.017098   0.000004  -0.000379  -0.000396
    18  O    0.014625   0.000003  -0.000293   0.000000   0.000009  -0.000009
    19  O   -0.000023   0.000000  -0.000094   0.004553  -0.008497   0.223445
    20  O    0.000000   0.000000   0.000198   0.230012   0.007728  -0.001631
    21  O   -0.000015   0.000036  -0.004096  -0.001838   0.206909  -0.007249
    22  H    0.000000  -0.000000  -0.000000  -0.000000   0.000000   0.000000
    23  H    0.000000  -0.000000  -0.000000   0.000000  -0.000000  -0.000000
    24  H    0.000000  -0.000000  -0.000000  -0.000000  -0.000000   0.000000
    25  H    0.299054  -0.000010   0.000087   0.000000   0.000001   0.000000
    26  H   -0.000010   0.366692   0.000042   0.000000   0.000020  -0.000000
    27  H    0.000087   0.000042   0.283721  -0.000000  -0.001478   0.000010
    28  H    0.000000   0.000000  -0.000000   0.349679  -0.000017  -0.000010
    29  H    0.000001   0.000020  -0.001478  -0.000017   0.285681   0.000154
    30  H    0.000000  -0.000000   0.000010  -0.000010   0.000154   0.334710
    31  H   -0.000448   0.000000   0.000012  -0.000000   0.000000  -0.000000
    32  H   -0.000001   0.000000  -0.000000  -0.000000  -0.000000  -0.000000
    33  H    0.000004  -0.000000  -0.002387  -0.000002   0.000114  -0.001115
              31         32         33
     1  Zr   0.001578   0.001620  -0.020434
     2  O    0.000154  -0.000027   0.001092
     3  O   -0.000021   0.000037  -0.010307
     4  O   -0.018588   0.010697  -0.009851
     5  O   -0.000007   0.000008  -0.000066
     6  Si   0.063673   0.023249   0.056195
     7  Si   0.000152  -0.000728   0.021205
     8  Si  -0.002598   0.000091   0.000578
     9  Si  -0.000050  -0.000053   0.000178
    10  O    0.000000  -0.000000  -0.000000
    11  O   -0.000000   0.000000  -0.000000
    12  O   -0.000000  -0.000000   0.000001
    13  O    0.002281  -0.000008   0.000252
    14  O    0.000174  -0.000006   0.002304
    15  O   -0.000018   0.000000  -0.000039
    16  O    0.003729   0.233390  -0.000191
    17  O   -0.000724  -0.003642   0.231854
    18  O    0.217475   0.003832   0.002044
    19  O    0.000004   0.000083   0.014512
    20  O   -0.000000   0.000000  -0.000003
    21  O   -0.000000   0.000001   0.001358
    22  H   -0.000000  -0.000000  -0.000000
    23  H    0.000000  -0.000000  -0.000000
    24  H    0.000000  -0.000000   0.000000
    25  H   -0.000448  -0.000001   0.000004
    26  H    0.000000   0.000000  -0.000000
    27  H    0.000012  -0.000000  -0.002387
    28  H   -0.000000  -0.000000  -0.000002
    29  H    0.000000  -0.000000   0.000114
    30  H   -0.000000  -0.000000  -0.001115
    31  H    0.331499   0.000000  -0.000038
    32  H    0.000000   0.350176   0.000159
    33  H   -0.000038   0.000159   0.268999
 Mulliken charges:
               1
     1  Zr  -0.020666
     2  O   -0.568012
     3  O   -0.427222
     4  O   -0.661335
     5  O   -0.412679
     6  Si   2.231210
     7  Si   1.771074
     8  Si   2.024884
     9  Si   1.710061
    10  O   -0.872906
    11  O   -0.778660
    12  O   -0.807117
    13  O   -0.842749
    14  O   -0.882215
    15  O   -0.873246
    16  O   -0.732491
    17  O   -0.965416
    18  O   -1.077777
    19  O   -0.989418
    20  O   -0.805267
    21  O   -0.833993
    22  H    0.393357
    23  H    0.373242
    24  H    0.365695
    25  H    0.414381
    26  H    0.378083
    27  H    0.429004
    28  H    0.375683
    29  H    0.447286
    30  H    0.410738
    31  H    0.401763
    32  H    0.381123
    33  H    0.443584
 Sum of Mulliken charges =  -0.00000
 Mulliken charges with hydrogens summed into heavy atoms:
               1
     1  Zr  -0.020666
     2  O   -0.568012
     3  O   -0.427222
     4  O   -0.661335
     5  O   -0.412679
     6  Si   2.231210
     7  Si   1.771074
     8  Si   2.024884
     9  Si   1.710061
    10  O   -0.499664
    11  O   -0.412965
    12  O   -0.413760
    13  O   -0.428368
    14  O   -0.453211
    15  O   -0.495163
    16  O   -0.351368
    17  O   -0.521831
    18  O   -0.676014
    19  O   -0.578679
    20  O   -0.429584
    21  O   -0.386707
 Electronic spatial extent (au):  <R**2>=           9672.2616
 Charge=              0.0000 electrons
 Dipole moment (field-independent basis, Debye):
    X=              1.2922    Y=             -0.5450    Z=             -2.3484  Tot=              2.7353
 Quadrupole moment (field-independent basis, Debye-Ang):
   XX=           -160.0936   YY=           -153.5681   ZZ=           -157.5949
   XY=             -2.7895   XZ=              3.0969   YZ=              5.9697
 Traceless Quadrupole moment (field-independent basis, Debye-Ang):
   XX=             -3.0081   YY=              3.5174   ZZ=             -0.5094
   XY=             -2.7895   XZ=              3.0969   YZ=              5.9697
 Octapole moment (field-independent basis, Debye-Ang**2):
  XXX=             75.6859  YYY=              8.6905  ZZZ=            -19.1209  XYY=             -0.0219
  XXY=             12.3740  XXZ=             19.6805  XZZ=              5.7961  YZZ=            -18.1017
  YYZ=            -18.5806  XYZ=             22.5619
 Hexadecapole moment (field-independent basis, Debye-Ang**3):
 XXXX=          -5993.6498 YYYY=          -2778.4212 ZZZZ=          -2243.9121 XXXY=             55.0799
 XXXZ=            -84.5069 YYYX=             22.7983 YYYZ=            170.7874 ZZZX=           -186.1522
 ZZZY=            -33.0607 XXYY=          -1409.2594 XXZZ=          -1333.0986 YYZZ=           -906.7655
 XXYZ=             34.0908 YYXZ=            179.1409 ZZXY=            -50.8092
 N-N= 2.846845326058D+03 E-N=-1.140640627071D+04  KE= 2.373169451475D+03
 PrsmSu:  requested number of processors reduced to:   2 ShMem   1 Linda.
 PrsmSu:  requested number of processors reduced to:  10 ShMem   1 Linda.
   1 Symmetry operations used in ECPInt.
 ECPInt:  NShTT=   13203 NPrTT=   78401 LenC2=   11561 LenP2D=   44820.
 LDataN:  DoStor=T MaxTD1= 9 Len=  602
 Number of processors reduced to  14 by ecpmxn.
 Calling FoFJK, ICntrl=      2127 FMM=F ISym2X=0 I1Cent= 0 IOpClX= 0 NMat=1 NMatS=1 NMatT=0.
 CoulSu:  requested number of processors reduced to:  10 ShMem   1 Linda.
 Defaulting to unpruned grid for atomic number  40.
 Defaulting to unpruned grid for atomic number  40.
 Defaulting to unpruned grid for atomic number  40.
 Defaulting to unpruned grid for atomic number  40.
 Defaulting to unpruned grid for atomic number  40.
 Defaulting to unpruned grid for atomic number  40.
 Defaulting to unpruned grid for atomic number  40.
 Defaulting to unpruned grid for atomic number  40.
 Defaulting to unpruned grid for atomic number  40.
 Defaulting to unpruned grid for atomic number  40.
 Defaulting to unpruned grid for atomic number  40.
 Defaulting to unpruned grid for atomic number  40.
 Defaulting to unpruned grid for atomic number  40.
 Defaulting to unpruned grid for atomic number  40.
 Defaulting to unpruned grid for atomic number  40.
 Defaulting to unpruned grid for atomic number  40.
 ***** Axes restored to original set *****
 -------------------------------------------------------------------
 Center     Atomic                   Forces (Hartrees/Bohr)
 Number     Number              X              Y              Z
 -------------------------------------------------------------------
      1       40          -0.003953329    0.000928274    0.000058972
      2        8          -0.000108487   -0.000126478    0.000264569
      3        8          -0.000364842   -0.000526912   -0.000228770
      4        8           0.000050411   -0.000187441   -0.000219849
      5        8           0.001818678    0.001293687    0.000346069
      6       14           0.000188798    0.000023666    0.000148794
      7       14           0.000345345   -0.000330968    0.000102133
      8       14           0.000301322    0.000023727   -0.000209013
      9       14           0.002968027   -0.002918728   -0.000848345
     10        8          -0.000107524    0.000451206    0.000264624
     11        8          -0.000151484    0.000576461    0.000094714
     12        8          -0.000324795    0.000459728    0.000293084
     13        8          -0.000090968   -0.000026242    0.000035657
     14        8          -0.000081335    0.000030454    0.000011975
     15        8          -0.000052537    0.000011177    0.000105533
     16        8          -0.000041236    0.000004133   -0.000071471
     17        8          -0.000098726    0.000029527   -0.000050549
     18        8          -0.000070121   -0.000009442   -0.000019508
     19        8          -0.000053487    0.000065829   -0.000049407
     20        8          -0.000032215    0.000158927   -0.000036302
     21        8          -0.000078623    0.000056668    0.000002090
     22        1          -0.000151993    0.000324583    0.000105413
     23        1          -0.000065298   -0.000044360   -0.000045213
     24        1          -0.000062998   -0.000146142   -0.000112381
     25        1           0.000028261   -0.000005878    0.000009833
     26        1           0.000010197   -0.000002538   -0.000025433
     27        1           0.000080784    0.000001303   -0.000018909
     28        1           0.000008435   -0.000086765    0.000000678
     29        1           0.000018377    0.000017056    0.000026620
     30        1          -0.000002639   -0.000013701    0.000009391
     31        1           0.000029886    0.000003863    0.000007350
     32        1           0.000004241   -0.000013185    0.000026273
     33        1           0.000039875   -0.000021491    0.000021374
 -------------------------------------------------------------------
 Cartesian Forces:  Max     0.003953329 RMS     0.000652008

 GradGradGradGradGradGradGradGradGradGradGradGradGradGradGradGradGradGrad
 Berny optimization.
 FormGI is forming the generalized inverse of G from B-inverse, IUseBI=4.
 Internal  Forces:  Max     0.003875620 RMS     0.000518354
 Search for a local minimum.
 Step number   1 out of a maximum of  148
 All quantities printed in internal units (Hartrees-Bohrs-Radians)
 Mixed Optimization -- En-DIIS/RFO-DIIS
 Second derivative matrix not updated -- first step.
 ITU=  0
     Eigenvalues ---    0.00230   0.00230   0.00230   0.03240   0.03358
     Eigenvalues ---    0.03498   0.03580   0.03665   0.03666   0.03680
     Eigenvalues ---    0.03686   0.03693   0.03739   0.03789   0.03792
     Eigenvalues ---    0.03816   0.03834   0.03850   0.05521   0.09402
     Eigenvalues ---    0.09687   0.11077   0.11224   0.11833   0.11884
     Eigenvalues ---    0.11890   0.12177   0.12239   0.12299   0.12782
     Eigenvalues ---    0.12895   0.13099   0.13313   0.16000   0.16000
     Eigenvalues ---    0.16000   0.16000   0.16000   0.16000   0.16000
     Eigenvalues ---    0.16000   0.16000   0.16000   0.16000   0.16000
     Eigenvalues ---    0.19173   0.19314   0.19332   0.20013   0.20203
     Eigenvalues ---    0.20204   0.20208   0.20515   0.20653   0.20795
     Eigenvalues ---    0.20989   0.21175   0.21186   0.21227   0.25000
     Eigenvalues ---    0.25000   0.25000   0.38002   0.39187   0.40659
     Eigenvalues ---    0.41547   0.42502   0.42509   0.42671   0.42743
     Eigenvalues ---    0.42824   0.43363   0.43951   0.43980   0.44273
     Eigenvalues ---    0.44485   0.44689   0.44768   0.50655   0.51353
     Eigenvalues ---    0.52036   0.52548   0.54334   0.54624   0.54642
     Eigenvalues ---    0.54649   0.54689   0.54693   0.54712   0.54765
     Eigenvalues --- 1000.000001000.000001000.000001000.000001000.00000
     Eigenvalues --- 1000.000001000.000001000.000001000.000001000.00000
     Eigenvalues --- 1000.000001000.000001000.000001000.000001000.00000
     Eigenvalues --- 1000.000001000.000001000.000001000.000001000.00000
     Eigenvalues --- 1000.000001000.000001000.000001000.000001000.00000
     Eigenvalues --- 1000.000001000.000001000.000001000.000001000.00000
     Eigenvalues --- 1000.000001000.000001000.000001000.000001000.00000
     Eigenvalues --- 1000.000001000.000001000.000001000.000001000.00000
     Eigenvalues --- 1000.000001000.000001000.000001000.000001000.00000
     Eigenvalues --- 1000.000001000.000001000.00000
 RFO step:  Lambda=-1.22345997D-04 EMin= 2.30000000D-03
 Linear search not attempted -- first point.
 Iteration  1 RMS(Cart)=  0.02440785 RMS(Int)=  0.00016224
 Iteration  2 RMS(Cart)=  0.00027968 RMS(Int)=  0.00000210
 Iteration  3 RMS(Cart)=  0.00000003 RMS(Int)=  0.00000210
 Iteration  1 RMS(Cart)=  0.00000043 RMS(Int)=  0.00000013
 Variable       Old X    -DE/DX   Delta X   Delta X   Delta X     New X
                                 (Linear)    (Quad)   (Total)
    R1        3.67647   0.00014   0.00000   0.00066   0.00066   3.67713
    R2        3.69189  -0.00058   0.00000  -0.00283  -0.00283   3.68906
    R3        3.73835   0.00015   0.00000   0.00076   0.00076   3.73911
    R4        3.70232   0.00388   0.00000   0.01917   0.01917   3.72149
    R5        3.11688  -0.00022   0.00000  -0.00051  -0.00051   3.11637
    R6        3.09579  -0.00024   0.00000  -0.00055  -0.00055   3.09524
    R7        3.10213  -0.00006   0.00000  -0.00014  -0.00014   3.10200
    R8        3.09246   0.00142   0.00000   0.00316   0.00316   3.09562
    R9        3.11587   0.00005   0.00000   0.00011   0.00011   3.11598
   R10        3.11989   0.00003   0.00000   0.00008   0.00008   3.11997
   R11        3.14367   0.00001   0.00000   0.00003   0.00003   3.14370
   R12        3.18062   0.00005   0.00000   0.00013   0.00013   3.18075
   R13        3.10924   0.00007   0.00000   0.00016   0.00016   3.10940
   R14        3.09339   0.00005   0.00000   0.00012   0.00012   3.09350
   R15        3.10179   0.00004   0.00000   0.00009   0.00009   3.10187
   R16        3.16373   0.00003   0.00000   0.00007   0.00007   3.16380
   R17        3.09830   0.00008   0.00000   0.00018   0.00018   3.09848
   R18        3.11980  -0.00018   0.00000  -0.00042  -0.00042   3.11938
   R19        3.13204  -0.00042   0.00000  -0.00101  -0.00101   3.13103
   R20        3.11778   0.00093   0.00000   0.00217   0.00217   3.11995
   R21        1.82152   0.00001   0.00000   0.00002   0.00002   1.82154
   R22        1.82106   0.00001   0.00000   0.00001   0.00001   1.82108
   R23        1.82088   0.00009   0.00000   0.00016   0.00016   1.82105
   R24        1.84078  -0.00001   0.00000  -0.00002  -0.00002   1.84076
   R25        1.84565  -0.00001   0.00000  -0.00002  -0.00002   1.84562
   R26        1.82041  -0.00002   0.00000  -0.00004  -0.00004   1.82037
   R27        1.82109  -0.00002   0.00000  -0.00003  -0.00003   1.82106
   R28        1.85910  -0.00002   0.00000  -0.00003  -0.00003   1.85907
   R29        1.82145  -0.00001   0.00000  -0.00001  -0.00001   1.82144
   R30        1.82428  -0.00001   0.00000  -0.00002  -0.00002   1.82426
   R31        1.82168  -0.00005   0.00000  -0.00008  -0.00008   1.82159
   R32        1.85224  -0.00001   0.00000  -0.00003  -0.00003   1.85221
    A1        1.85172  -0.00008   0.00000  -0.00128  -0.00128   1.85045
    A2        1.80155   0.00020   0.00000   0.00006   0.00006   1.80161
    A3        1.96889  -0.00018   0.00000  -0.00193  -0.00193   1.96696
    A4        1.83430  -0.00012   0.00000   0.00114   0.00114   1.83544
    A5        2.01802   0.00055   0.00000   0.00360   0.00360   2.02163
    A6        1.97057  -0.00039   0.00000  -0.00177  -0.00178   1.96880
    A7        2.46524  -0.00033   0.00000  -0.00132  -0.00132   2.46393
    A8        2.58826   0.00025   0.00000   0.00100   0.00100   2.58926
    A9        2.35483  -0.00005   0.00000  -0.00019  -0.00019   2.35464
   A10        2.58309   0.00371   0.00000   0.00000  -0.00000   2.58309
   A11        1.91978  -0.00002   0.00000  -0.00012  -0.00012   1.91966
   A12        1.91546   0.00003   0.00000   0.00021   0.00021   1.91567
   A13        1.95201   0.00005   0.00000   0.00040   0.00040   1.95242
   A14        2.00708  -0.00004   0.00000  -0.00031  -0.00031   2.00677
   A15        1.88610  -0.00002   0.00000  -0.00014  -0.00014   1.88596
[...]
 Alpha virt. eigenvalues --    3.15277   3.22237   3.36225   3.39403   3.46562
 Alpha virt. eigenvalues --    3.47817   3.48625   3.49301   3.50998   3.51043
 Alpha virt. eigenvalues --    3.52168   3.54754   3.60421   3.61178   3.62017
 Alpha virt. eigenvalues --    3.66166   4.38343   4.73716   7.61277  31.22647
          Condensed to atoms (all electrons):
               1          2          3          4          5          6
     1  Zr  15.672657  -0.166131  -0.003559  -0.205417  -0.058649  -0.667691
     2  O   -0.166131   9.057827   0.014955  -0.043999  -0.046889   0.095355
     3  O   -0.003559   0.014955   8.802038   0.009170  -0.056222  -0.008838
     4  O   -0.205417  -0.043999   0.009170   8.813887  -0.066522  -0.660797
     5  O   -0.058649  -0.046889  -0.056222  -0.066522   9.286628  -0.000182
     6  Si  -0.667691   0.095355  -0.008838  -0.660797  -0.000182  13.974873
     7  Si  -0.649127  -0.025618  -0.869662  -0.005540  -0.027925   0.095247
     8  Si  -0.657786  -0.964190  -0.031933   0.087407  -0.005081  -0.019514
     9  Si  -0.651692  -0.016236   0.040850  -0.006225  -1.197683   0.066026
    10  O   -0.024010   0.000408  -0.004535  -0.000102   0.123942  -0.003291
    11  O   -0.108117   0.002929   0.002526   0.001277   0.323905  -0.000385
    12  O    0.066708  -0.000514   0.005961   0.001765   0.179980  -0.003922
    13  O   -0.023115   0.194075   0.001401  -0.013948  -0.000878   0.026798
    14  O   -0.043145   0.255522  -0.018381  -0.009953   0.000460   0.036669
    15  O   -0.086788   0.284287  -0.000552   0.001095   0.000494   0.001959
    16  O   -0.107216   0.004669  -0.000598   0.339767   0.002516  -0.432918
    17  O   -0.128971  -0.038027   0.006594   0.214854  -0.000001  -0.422195
    18  O   -0.057700  -0.014912   0.003465   0.211624  -0.000827  -0.444277
    19  O   -0.003653   0.008911   0.271316   0.012093   0.001916  -0.007460
    20  O   -0.138405  -0.000620   0.145966  -0.000744   0.000560   0.009110
    21  O    0.047053   0.010463   0.164581   0.003813   0.000847  -0.016661
    22  H   -0.012187   0.000001   0.000142  -0.000009   0.003065   0.000182
    23  H   -0.004258  -0.000011  -0.000003  -0.000056  -0.024403   0.000074
    24  H   -0.006114  -0.000105   0.000009  -0.000000  -0.001113   0.000032
    25  H    0.015103  -0.019914  -0.000096  -0.000825   0.000023   0.004330
    26  H    0.009333   0.000788   0.000014  -0.000009  -0.000002  -0.000395
    27  H    0.016048  -0.019546   0.000906  -0.001608   0.000024   0.005528
    28  H    0.004029  -0.000010  -0.017802  -0.000014  -0.000010  -0.000297
    29  H    0.003931  -0.006968  -0.020339  -0.000126  -0.000058  -0.000216
    30  H    0.001547  -0.000016   0.000197  -0.000476  -0.000006  -0.001488
    31  H    0.001350   0.000156  -0.000022  -0.018579  -0.000007   0.064049
    32  H    0.001602  -0.000027   0.000039   0.010825   0.000009   0.023280
    33  H   -0.019899   0.001062  -0.010411  -0.009804  -0.000065   0.056052
               7          8          9         10         11         12
     1  Zr  -0.649127  -0.657786  -0.651692  -0.024010  -0.108117   0.066708
     2  O   -0.025618  -0.964190  -0.016236   0.000408   0.002929  -0.000514
     3  O   -0.869662  -0.031933   0.040850  -0.004535   0.002526   0.005961
     4  O   -0.005540   0.087407  -0.006225  -0.000102   0.001277   0.001765
     5  O   -0.027925  -0.005081  -1.197683   0.123942   0.323905   0.179980
     6  Si   0.095247  -0.019514   0.066026  -0.003291  -0.000385  -0.003922
     7  Si  13.786145   0.194126   0.034254   0.000611   0.000105   0.002952
     8  Si   0.194126  13.762342   0.039218  -0.001133   0.001871  -0.001684
     9  Si   0.034254   0.039218  14.310878  -0.016053  -0.188573  -0.322041
    10  O    0.000611  -0.001133  -0.016053   8.540443  -0.029723   0.053757
    11  O    0.000105   0.001871  -0.188573  -0.029723   8.591075  -0.045325
    12  O    0.002952  -0.001684  -0.322041   0.053757  -0.045325   8.659611
    13  O    0.006015  -0.102926  -0.000550   0.000000   0.000015   0.000015
    14  O    0.016451  -0.343142  -0.000770  -0.000000   0.000005   0.000080
    15  O   -0.001383  -0.295682   0.000079   0.000002  -0.000030  -0.000047
    16  O    0.003529  -0.011731  -0.001711   0.000013  -0.000003   0.000003
    17  O    0.007770   0.109019   0.004213   0.000001   0.000003  -0.000010
    18  O   -0.001181   0.081877   0.004305   0.000003   0.000001  -0.000002
    19  O   -0.416549  -0.017746   0.001032   0.000008   0.000002   0.000014
    20  O   -0.082667   0.010183   0.004075   0.000003  -0.000000  -0.000034
    21  O   -0.002848  -0.045657  -0.003935  -0.000002   0.000007   0.000003
    22  H   -0.000266   0.000200   0.052372  -0.004271  -0.004376   0.220309
    23  H    0.000044   0.000049   0.071813   0.231612  -0.004772   0.005789
    24  H    0.000059  -0.000064   0.037871   0.007657   0.235239  -0.006384
    25  H   -0.000348   0.057421  -0.000150   0.000000   0.000000  -0.000000
    26  H   -0.000435   0.044392  -0.000092  -0.000000   0.000000  -0.000000
    27  H   -0.000334   0.064433  -0.000142   0.000000  -0.000000  -0.000000
    28  H    0.056194  -0.000042  -0.000135  -0.000000  -0.000000  -0.000012
    29  H    0.048647   0.021658  -0.000097   0.000000  -0.000000  -0.000004
    30  H    0.041262   0.000118   0.000007   0.000000  -0.000000  -0.000000
    31  H    0.000154  -0.002612  -0.000050   0.000000  -0.000000  -0.000000
    32  H   -0.000713   0.000091  -0.000050  -0.000000   0.000000  -0.000000
    33  H    0.021212   0.000528   0.000164  -0.000000  -0.000000   0.000001
              13         14         15         16         17         18
     1  Zr  -0.023115  -0.043145  -0.086788  -0.107216  -0.128971  -0.057700
     2  O    0.194075   0.255522   0.284287   0.004669  -0.038027  -0.014912
     3  O    0.001401  -0.018381  -0.000552  -0.000598   0.006594   0.003465
     4  O   -0.013948  -0.009953   0.001095   0.339767   0.214854   0.211624
     5  O   -0.000878   0.000460   0.000494   0.002516  -0.000001  -0.000827
     6  Si   0.026798   0.036669   0.001959  -0.432918  -0.422195  -0.444277
     7  Si   0.006015   0.016451  -0.001383   0.003529   0.007770  -0.001181
     8  Si  -0.102926  -0.343142  -0.295682  -0.011731   0.109019   0.081877
     9  Si  -0.000550  -0.000770   0.000079  -0.001711   0.004213   0.004305
    10  O    0.000000  -0.000000   0.000002   0.000013   0.000001   0.000003
    11  O    0.000015   0.000005  -0.000030  -0.000003   0.000003   0.000001
    12  O    0.000015   0.000080  -0.000047   0.000003  -0.000010  -0.000002
    13  O    8.628265   0.086846  -0.093539   0.003815  -0.031124  -0.045722
    14  O    0.086846   8.672681   0.055978   0.003416  -0.034783  -0.027648
    15  O   -0.093539   0.055978   8.774507  -0.000176   0.003675   0.001773
    16  O    0.003815   0.003416  -0.000176   8.899286  -0.092677  -0.113935
    17  O   -0.031124  -0.034783   0.003675  -0.092677   8.929459   0.229263
    18  O   -0.045722  -0.027648   0.001773  -0.113935   0.229263   9.013063
    19  O    0.000204   0.000035   0.000144  -0.001351  -0.028935   0.000163
    20  O    0.000009  -0.000638   0.000031   0.000044  -0.001231   0.000020
    21  O   -0.000245   0.017275  -0.000517  -0.000183  -0.005808   0.000447
    22  H   -0.000000   0.000000   0.000000  -0.000000   0.000000  -0.000000
    23  H   -0.000000  -0.000000   0.000000   0.000000   0.000000  -0.000000
    24  H    0.000000   0.000000   0.000001  -0.000000   0.000000   0.000000
    25  H    0.219057  -0.011608   0.008928  -0.000069   0.000569   0.014473
    26  H   -0.005232  -0.010256   0.217217   0.000000  -0.000007   0.000003
    27  H   -0.009755   0.217603   0.004556   0.000222   0.017298  -0.000277
    28  H    0.000000  -0.000005  -0.000001   0.000000   0.000004   0.000000
    29  H    0.000772   0.017862  -0.002526  -0.000004  -0.000398   0.000008
    30  H    0.000001  -0.000012   0.000000   0.000124  -0.000396  -0.000009
    31  H    0.002273   0.000176  -0.000018   0.003563  -0.000677   0.217384
    32  H   -0.000008  -0.000006   0.000000   0.233144  -0.003591   0.003771
    33  H    0.000245   0.002278  -0.000038  -0.000144   0.231912   0.001998
              19         20         21         22         23         24
     1  Zr  -0.003653  -0.138405   0.047053  -0.012187  -0.004258  -0.006114
     2  O    0.008911  -0.000620   0.010463   0.000001  -0.000011  -0.000105
     3  O    0.271316   0.145966   0.164581   0.000142  -0.000003   0.000009
     4  O    0.012093  -0.000744   0.003813  -0.000009  -0.000056  -0.000000
     5  O    0.001916   0.000560   0.000847   0.003065  -0.024403  -0.001113
     6  Si  -0.007460   0.009110  -0.016661   0.000182   0.000074   0.000032
     7  Si  -0.416549  -0.082667  -0.002848  -0.000266   0.000044   0.000059
     8  Si  -0.017746   0.010183  -0.045657   0.000200   0.000049  -0.000064
     9  Si   0.001032   0.004075  -0.003935   0.052372   0.071813   0.037871
    10  O    0.000008   0.000003  -0.000002  -0.004271   0.231612   0.007657
    11  O    0.000002  -0.000000   0.000007  -0.004376  -0.004772   0.235239
    12  O    0.000014  -0.000034   0.000003   0.220309   0.005789  -0.006384
    13  O    0.000204   0.000009  -0.000245  -0.000000  -0.000000   0.000000
    14  O    0.000035  -0.000638   0.017275   0.000000  -0.000000   0.000000
    15  O    0.000144   0.000031  -0.000517   0.000000   0.000000   0.000001
    16  O   -0.001351   0.000044  -0.000183  -0.000000   0.000000  -0.000000
    17  O   -0.028935  -0.001231  -0.005808   0.000000   0.000000   0.000000
    18  O    0.000163   0.000020   0.000447  -0.000000  -0.000000   0.000000
    19  O    8.874616   0.031152   0.027100  -0.000000   0.000000  -0.000000
    20  O    0.031152   8.641833  -0.051075   0.000000   0.000000  -0.000000
    21  O    0.027100  -0.051075   8.493009  -0.000002   0.000000   0.000000
    22  H   -0.000000   0.000000  -0.000002   0.352035   0.000031   0.000092
    23  H    0.000000   0.000000   0.000000   0.000031   0.351738   0.000030
    24  H   -0.000000  -0.000000   0.000000   0.000092   0.000030   0.365751
    25  H   -0.000023   0.000000  -0.000015   0.000000   0.000000   0.000000
    26  H    0.000000  -0.000000   0.000037  -0.000000  -0.000000  -0.000000
    27  H   -0.000048   0.000200  -0.004149  -0.000000  -0.000000  -0.000000
    28  H    0.004642   0.230227  -0.002026  -0.000000   0.000000  -0.000000
    29  H   -0.008623   0.007729   0.206810   0.000000  -0.000000  -0.000000
    30  H    0.223882  -0.001697  -0.007367   0.000000  -0.000000   0.000000
    31  H    0.000004  -0.000000  -0.000000  -0.000000   0.000000   0.000000
    32  H    0.000085   0.000000   0.000001  -0.000000  -0.000000  -0.000000
    33  H    0.014439  -0.000011   0.001332  -0.000000  -0.000000   0.000000
              25         26         27         28         29         30
     1  Zr   0.015103   0.009333   0.016048   0.004029   0.003931   0.001547
     2  O   -0.019914   0.000788  -0.019546  -0.000010  -0.006968  -0.000016
     3  O   -0.000096   0.000014   0.000906  -0.017802  -0.020339   0.000197
     4  O   -0.000825  -0.000009  -0.001608  -0.000014  -0.000126  -0.000476
     5  O    0.000023  -0.000002   0.000024  -0.000010  -0.000058  -0.000006
     6  Si   0.004330  -0.000395   0.005528  -0.000297  -0.000216  -0.001488
     7  Si  -0.000348  -0.000435  -0.000334   0.056194   0.048647   0.041262
     8  Si   0.057421   0.044392   0.064433  -0.000042   0.021658   0.000118
     9  Si  -0.000150  -0.000092  -0.000142  -0.000135  -0.000097   0.000007
    10  O    0.000000  -0.000000   0.000000  -0.000000   0.000000   0.000000
    11  O    0.000000   0.000000  -0.000000  -0.000000  -0.000000  -0.000000
    12  O   -0.000000  -0.000000  -0.000000  -0.000012  -0.000004  -0.000000
    13  O    0.219057  -0.005232  -0.009755   0.000000   0.000772   0.000001
    14  O   -0.011608  -0.010256   0.217603  -0.000005   0.017862  -0.000012
    15  O    0.008928   0.217217   0.004556  -0.000001  -0.002526   0.000000
    16  O   -0.000069   0.000000   0.000222   0.000000  -0.000004   0.000124
    17  O    0.000569  -0.000007   0.017298   0.000004  -0.000398  -0.000396
    18  O    0.014473   0.000003  -0.000277   0.000000   0.000008  -0.000009
    19  O   -0.000023   0.000000  -0.000048   0.004642  -0.008623   0.223882
    20  O    0.000000  -0.000000   0.000200   0.230227   0.007729  -0.001697
    21  O   -0.000015   0.000037  -0.004149  -0.002026   0.206810  -0.007367
    22  H    0.000000  -0.000000  -0.000000  -0.000000   0.000000   0.000000
    23  H    0.000000  -0.000000  -0.000000   0.000000  -0.000000  -0.000000
    24  H    0.000000  -0.000000  -0.000000  -0.000000  -0.000000   0.000000
    25  H    0.299408  -0.000009   0.000083   0.000000   0.000001   0.000000
    26  H   -0.000009   0.366498   0.000041   0.000000   0.000021  -0.000000
    27  H    0.000083   0.000041   0.283777  -0.000000  -0.001468   0.000010
    28  H    0.000000   0.000000  -0.000000   0.349766  -0.000017  -0.000011
    29  H    0.000001   0.000021  -0.001468  -0.000017   0.285851   0.000158
    30  H    0.000000  -0.000000   0.000010  -0.000011   0.000158   0.334812
    31  H   -0.000473   0.000000   0.000012  -0.000000   0.000000  -0.000000
    32  H   -0.000001   0.000000  -0.000000  -0.000000  -0.000000  -0.000000
    33  H    0.000005  -0.000000  -0.002437  -0.000002   0.000114  -0.001107
              31         32         33
     1  Zr   0.001350   0.001602  -0.019899
     2  O    0.000156  -0.000027   0.001062
     3  O   -0.000022   0.000039  -0.010411
     4  O   -0.018579   0.010825  -0.009804
     5  O   -0.000007   0.000009  -0.000065
     6  Si   0.064049   0.023280   0.056052
     7  Si   0.000154  -0.000713   0.021212
     8  Si  -0.002612   0.000091   0.000528
     9  Si  -0.000050  -0.000050   0.000164
    10  O    0.000000  -0.000000  -0.000000
    11  O   -0.000000   0.000000  -0.000000
    12  O   -0.000000  -0.000000   0.000001
    13  O    0.002273  -0.000008   0.000245
    14  O    0.000176  -0.000006   0.002278
    15  O   -0.000018   0.000000  -0.000038
    16  O    0.003563   0.233144  -0.000144
    17  O   -0.000677  -0.003591   0.231912
    18  O    0.217384   0.003771   0.001998
    19  O    0.000004   0.000085   0.014439
    20  O   -0.000000   0.000000  -0.000011
    21  O   -0.000000   0.000001   0.001332
    22  H   -0.000000  -0.000000  -0.000000
    23  H    0.000000  -0.000000  -0.000000
    24  H    0.000000  -0.000000   0.000000
    25  H   -0.000473  -0.000001   0.000005
    26  H    0.000000   0.000000  -0.000000
    27  H    0.000012  -0.000000  -0.002437
    28  H   -0.000000  -0.000000  -0.000002
    29  H    0.000000  -0.000000   0.000114
    30  H   -0.000000  -0.000000  -0.001107
    31  H    0.332068   0.000003  -0.000038
    32  H    0.000003   0.350199   0.000158
    33  H   -0.000038   0.000158   0.268856
 Mulliken charges:
               1
     1  Zr  -0.015733
     2  O   -0.567676
     3  O   -0.427178
     4  O   -0.662825
     5  O   -0.437845
     6  Si   2.230960
     7  Si   1.769820
     8  Si   2.025988
     9  Si   1.739027
    10  O   -0.875340
    11  O   -0.777657
    12  O   -0.816967
    13  O   -0.842762
    14  O   -0.882989
    15  O   -0.873431
    16  O   -0.731396
    17  O   -0.965804
    18  O   -1.077149
    19  O   -0.987368
    20  O   -0.804022
    21  O   -0.832289
    22  H    0.392681
    23  H    0.372320
    24  H    0.367037
    25  H    0.414129
    26  H    0.378094
    27  H    0.429025
    28  H    0.375523
    29  H    0.447283
    30  H    0.410467
    31  H    0.401284
    32  H    0.381191
    33  H    0.443603
 Sum of Mulliken charges =  -0.00000
 Mulliken charges with hydrogens summed into heavy atoms:
               1
     1  Zr  -0.015733
     2  O   -0.567676
     3  O   -0.427178
     4  O   -0.662825
     5  O   -0.437845
     6  Si   2.230960
     7  Si   1.769820
     8  Si   2.025988
     9  Si   1.739027
    10  O   -0.503020
    11  O   -0.410620
    12  O   -0.424286
    13  O   -0.428633
    14  O   -0.453964
    15  O   -0.495337
    16  O   -0.350205
    17  O   -0.522201
    18  O   -0.675865
    19  O   -0.576901
    20  O   -0.428500
    21  O   -0.385006
 Electronic spatial extent (au):  <R**2>=           9685.9369
 Charge=              0.0000 electrons
 Dipole moment (field-independent basis, Debye):
    X=              1.1986    Y=             -0.5978    Z=             -2.4583  Tot=              2.7995
 Quadrupole moment (field-independent basis, Debye-Ang):
   XX=           -161.0688   YY=           -153.1625   ZZ=           -157.8101
   XY=             -2.9685   XZ=              2.3296   YZ=              6.0804
 Traceless Quadrupole moment (field-independent basis, Debye-Ang):
   XX=             -3.7217   YY=              4.1846   ZZ=             -0.4630
   XY=             -2.9685   XZ=              2.3296   YZ=              6.0804
 Octapole moment (field-independent basis, Debye-Ang**2):
  XXX=             68.7963  YYY=              6.6272  ZZZ=            -19.7942  XYY=              1.8974
  XXY=             13.4490  XXZ=             15.9245  XZZ=              5.0854  YZZ=            -17.8997
  YYZ=            -18.0093  XYZ=             23.6699
 Hexadecapole moment (field-independent basis, Debye-Ang**3):
 XXXX=          -6048.0731 YYYY=          -2780.9675 ZZZZ=          -2242.6849 XXXY=             52.2344
 XXXZ=           -101.1427 YYYX=             22.0562 YYYZ=            172.3966 ZZZX=           -192.1788
 ZZZY=            -32.0117 XXYY=          -1407.1228 XXZZ=          -1339.9333 YYZZ=           -910.5607
 XXYZ=             33.1858 YYXZ=            178.2187 ZZXY=            -51.1388
 N-N= 2.845755586540D+03 E-N=-1.140418715759D+04  KE= 2.373153545798D+03
 1\1\GINC-GRA711\FOpt\RB3LYP\Gen\H12O16Si4Zr1\SARASHS\12-Aug-2020\0\\#n
  B3LYP/Gen Pseudo=cards EmpiricalDispersion=GD3 Opt=modredundant\\Titl
 e\\0,1\Zr,0.6580466899,-0.11505937,-0.0710217507\O,-0.2205946631,-0.90
 30618135,1.4752992258\O,0.086380619,1.7504628043,-0.1198342638\O,-0.26
 12397715,-0.9730375775,-1.5980154327\O,2.5994131058,-0.437322811,-0.08
 08948257\Si,-1.8234098557,-1.330492386,-1.9545102242\Si,-1.1301624013,
 2.8464436764,-0.0788583207\Si,-1.7210757646,-1.1498555488,2.113858138\
 Si,4.1091860895,0.1671091364,0.1176814852\O,4.8779275845,0.5433087996,
 -1.2938647431\O,5.0770224208,-0.9474602921,0.8680982061\O,3.8887281457
 ,1.5673211536,0.9656659559\O,-2.3151316755,-2.6226720861,1.6985173549\
 O,-2.7232496947,0.0655288891,1.5471117679\O,-1.5956340641,-1.012614316
 1,3.7429121185\O,-1.9917266535,-1.5589589139,-3.5788222571\O,-2.821149
 9749,-0.1869329404,-1.3044742746\O,-2.3345680731,-2.7125832863,-1.1825
 192896\O,-2.0546183733,2.4455680879,-1.4268399961\O,-0.6483164471,4.40
 48527745,-0.2949743816\O,-1.9805640861,2.7662625105,1.3175292207\H,4.6
 270848938,2.1854580496,0.9978380829\H,5.4410140138,-0.1457728672,-1.66
 43049337\H,4.6806270726,-1.4708418841,1.5735311156\H,-2.4001129475,-2.
 8095870101,0.7463445917\H,-2.3785703723,-1.2214703606,4.2638340815\H,-
 3.0541818618,-0.082242368,0.640085117\H,-0.5331059197,4.9279822044,0.5
 064917001\H,-2.2795921902,1.8735948047,1.5902737954\H,-2.6698754941,3.
 128923613,-1.72077775\H,-2.2838195438,-3.5293659943,-1.691806453\H,-1.
 2594231505,-1.264937891,-4.1319533912\H,-2.6098876571,0.7552132132,-1.
 4929696695\\Version=ES64L-G16RevB.01\State=1-A\HF=-2416.946516\RMSD=3.
 207e-09\RMSF=2.017e-04\Dipole=0.523412,-0.1857587,-0.9511145\Quadrupol
 e=-2.180725,2.5804867,-0.3997617,-2.9848597,1.1353388,4.5878172\PG=C01
  [X(H12O16Si4Zr1)]\\@


 TO DRY ONE'S EYES AND LAUGH AT A FALL
 AND BAFFLED, GET UP AND BEGIN AGAIN.
           R. BROWNING
 Job cpu time:       0 days 20 hours 36 minutes 53.8 seconds.
 Elapsed time:       0 days  1 hours 32 minutes 38.6 seconds.
 File lengths (MBytes):  RWF=    167 Int=      0 D2E=      0 Chk=     21 Scr=      1
 Normal termination of Gaussian 16 at Wed Aug 12 21:15:44 2020.
