 Entering Gaussian System, Link 0=g16
 Initial command:
 /opt/software/gaussian/g16.b01/l1.exe "/localscratch/sarashs.37148542.0/Gau-17948.inp" -scrdir="/localscratch/sarashs.37148542.0/"
 Entering Link 1 = /opt/software/gaussian/g16.b01/l1.exe PID=     17949.
  
 Copyright (c) 1988-2017, Gaussian, Inc.  All Rights Reserved.
  
 This is part of the Gaussian(R) 16 program.  It is based on
 the Gaussian(R) 09 system (copyright 2009, Gaussian, Inc.),
 the Gaussian(R) 03 system (copyright 2003, Gaussian, Inc.),
 the Gaussian(R) 98 system (copyright 1998, Gaussian, Inc.),
 the Gaussian(R) 94 system (copyright 1995, Gaussian, Inc.),
 the Gaussian 92(TM) system (copyright 1992, Gaussian, Inc.),
 the Gaussian 90(TM) system (copyright 1990, Gaussian, Inc.),
 the Gaussian 88(TM) system (copyright 1988, Gaussian, Inc.),
 the Gaussian 86(TM) system (copyright 1986, Carnegie Mellon
 University), and the Gaussian 82(TM) system (copyright 1983,
 Carnegie Mellon University). Gaussian is a federally registered
 trademark of Gaussian, Inc.
  
 This software contains proprietary and confidential information,
 including trade secrets, belonging to Gaussian, Inc.
  
 This software is provided under written license and may be
 used, copied, transmitted, or stored only in accord with that
 written license.
  
 The following legend is applicable only to US Government
 contracts under FAR:
  
                    RESTRICTED RIGHTS LEGEND
  
 Use, reproduction and disclosure by the US Government is
 subject to restrictions as set forth in subparagraphs (a)
 and (c) of the Commercial Computer Software - Restricted
 Rights clause in FAR 52.227-19.
  
 Gaussian, Inc.
 340 Quinnipiac St., Bldg. 40, Wallingford CT 06492
  
  
 ---------------------------------------------------------------
 Warning -- This program may not be used in any manner that
 competes with the business of Gaussian, Inc. or will provide
 assistance to any competitor of Gaussian, Inc.  The licensee
 of this program is prohibited from giving any competitor of
 Gaussian, Inc. access to this program.  By using this program,
 the user acknowledges that Gaussian, Inc. is engaged in the
 business of creating and licensing software in the field of
 computational chemistry and represents and warrants to the
 licensee that it is not a competitor of Gaussian, Inc. and that
 it will not use this program in any manner prohibited above.
 ---------------------------------------------------------------
  

 Cite this work as:
 Gaussian 16, Revision B.01,
 M. J. Frisch, G. W. Trucks, H. B. Schlegel, G. E. Scuseria, 
 M. A. Robb, J. R. Cheeseman, G. Scalmani, V. Barone, 
 G. A. Petersson, H. Nakatsuji, X. Li, M. Caricato, A. V. Marenich, 
 J. Bloino, B. G. Janesko, R. Gomperts, B. Mennucci, H. P. Hratchian, 
 J. V. Ortiz, A. F. Izmaylov, J. L. Sonnenberg, D. Williams-Young, 
 F. Ding, F. Lipparini, F. Egidi, J. Goings, B. Peng, A. Petrone, 
 T. Henderson, D. Ranasinghe, V. G. Zakrzewski, J. Gao, N. Rega, 
 G. Zheng, W. Liang, M. Hada, M. Ehara, K. Toyota, R. Fukuda, 
 J. Hasegawa, M. Ishida, T. Nakajima, Y. Honda, O. Kitao, H. Nakai, 
 T. Vreven, K. Throssell, J. A. Montgomery, Jr., J. E. Peralta, 
 F. Ogliaro, M. J. Bearpark, J. J. Heyd, E. N. Brothers, K. N. Kudin, 
 V. N. Staroverov, T. A. Keith, R. Kobayashi, J. Normand, 
 K. Raghavachari, A. P. Rendell, J. C. Burant, S. S. Iyengar, 
 J. Tomasi, M. Cossi, J. M. Millam, M. Klene, C. Adamo, R. Cammi, 
 J. W. Ochterski, R. L. Martin, K. Morokuma, O. Farkas, 
 J. B. Foresman, and D. J. Fox, Gaussian, Inc., Wallingford CT, 2016.
 
 ******************************************
 Gaussian 16:  ES64L-G16RevB.01 20-Dec-2017
                11-Aug-2020 
 ******************************************
 %NProcShared=16
 Will use up to   16 processors via shared memory.
 ------------------------------------------------------------------
 #n B3LYP/Gen Pseudo=cards EmpiricalDispersion=GD3 Opt=modredundant
 ------------------------------------------------------------------
 1/18=120,19=15,26=3,38=1/1,3;
 2/9=110,12=2,17=6,18=5,40=1/2;
 3/5=7,11=2,16=1,17=8,25=1,30=1,71=1,74=-5,124=31/1,2,3;
 4//1;
 5/5=2,38=5/2;
 6/7=2,8=2,9=2,10=2,28=1/1;
 7//1,2,3,16;
 1/18=20,19=15,26=3/3(2);
 2/9=110/2;
 99//99;
 2/9=110/2;
 3/5=7,6=1,11=2,16=1,17=8,25=1,30=1,71=1,74=-5,82=7,124=31/1,2,3;
 4/5=5,16=3,69=1/1;
 5/5=2,38=5/2;
 7//1,2,3,16;
 1/18=20,19=15,26=3/3(-5);
 2/9=110/2;
 6/7=2,8=2,9=2,10=2,19=2,28=1/1;
 99/9=1/99;
 -----
 Title
 -----
 Symbolic Z-matrix:
 Charge =  0 Multiplicity = 1
 Zr                    0.65779  -0.12506  -0.07164 
 O                    -0.22285  -0.90624   1.4773 
 O                     0.10302   1.74748  -0.12299 
 O                    -0.2683   -0.97885  -1.59705 
 O                     2.59206  -0.4363   -0.08284 
 Si                   -1.83119  -1.33244  -1.9536 
 Si                   -1.1155    2.84172  -0.08279 
 Si                   -1.72376  -1.15291   2.11517 
 Si                    4.20739  -0.19841   0.02726 
 O                     4.95355  -0.01027  -1.43336 
 O                     4.93487  -1.51632   0.72071 
 O                     4.37708   1.2009    0.88468 
 O                    -2.31924  -2.624     1.69627 
 O                    -2.72422   0.06508   1.55086 
 O                    -1.59734  -1.01957   3.74439 
 O                    -2.00144  -1.55965  -3.57782 
 O                    -2.82509  -0.18676  -1.30145 
 O                    -2.34448  -2.71439  -1.18277 
 O                    -2.04046   2.43957  -1.43023 
 O                    -0.63565   4.40049  -0.29987 
 O                    -1.96551   2.76086   1.31383 
 H                     5.24923   1.61056   0.88113 
 H                     5.3367   -0.80802  -1.81532 
 H                     4.50727  -1.90289   1.49296 
 H                    -2.40577  -2.80951   0.74392 
 H                    -2.38137  -1.22423   4.26535 
 H                    -3.06034  -0.08306   0.64589 
 H                    -0.52731   4.92728   0.50015 
 H                    -2.26909   1.86932   1.58533 
 H                    -2.64854   3.12676  -1.73014 
 H                    -2.30452  -3.52952  -1.69562 
 H                    -1.27114  -1.26305  -4.13223 
 H                    -2.61026   0.75461  -1.48993 
 
 The following ModRedundant input section has been read:
 A       1       5       9 F                                                   
 

 GradGradGradGradGradGradGradGradGradGradGradGradGradGradGradGradGradGrad
 Berny optimization.
 Initialization pass.
                           ----------------------------
                           !    Initial Parameters    !
                           ! (Angstroms and Degrees)  !
 --------------------------                            --------------------------
 ! Name  Definition              Value          Derivative Info.                !
 --------------------------------------------------------------------------------
 ! R1    R(1,2)                  1.9455         estimate D2E/DX2                !
 ! R2    R(1,3)                  1.9537         estimate D2E/DX2                !
 ! R3    R(1,4)                  1.9783         estimate D2E/DX2                !
 ! R4    R(1,5)                  1.9592         estimate D2E/DX2                !
 ! R5    R(2,8)                  1.6494         estimate D2E/DX2                !
 ! R6    R(3,7)                  1.6382         estimate D2E/DX2                !
 ! R7    R(4,6)                  1.6416         estimate D2E/DX2                !
 ! R8    R(5,9)                  1.6365         estimate D2E/DX2                !
 ! R9    R(6,16)                 1.6488         estimate D2E/DX2                !
 ! R10   R(6,17)                 1.651          estimate D2E/DX2                !
 ! R11   R(6,18)                 1.6636         estimate D2E/DX2                !
 ! R12   R(7,19)                 1.6831         estimate D2E/DX2                !
 ! R13   R(7,20)                 1.6453         estimate D2E/DX2                !
 ! R14   R(7,21)                 1.6369         estimate D2E/DX2                !
 ! R15   R(8,13)                 1.6414         estimate D2E/DX2                !
 ! R16   R(8,14)                 1.6742         estimate D2E/DX2                !
 ! R17   R(8,15)                 1.6395         estimate D2E/DX2                !
 ! R18   R(9,10)                 1.6509         estimate D2E/DX2                !
 ! R19   R(9,11)                 1.6574         estimate D2E/DX2                !
 ! R20   R(9,12)                 1.6499         estimate D2E/DX2                !
 ! R21   R(10,23)                0.9639         estimate D2E/DX2                !
 ! R22   R(11,24)                0.9637         estimate D2E/DX2                !
 ! R23   R(12,22)                0.9636         estimate D2E/DX2                !
 ! R24   R(13,25)                0.9741         estimate D2E/DX2                !
 ! R25   R(14,27)                0.9767         estimate D2E/DX2                !
 ! R26   R(15,26)                0.9633         estimate D2E/DX2                !
 ! R27   R(16,32)                0.9637         estimate D2E/DX2                !
 ! R28   R(17,33)                0.9838         estimate D2E/DX2                !
 ! R29   R(18,31)                0.9639         estimate D2E/DX2                !
 ! R30   R(19,30)                0.9654         estimate D2E/DX2                !
 ! R31   R(20,28)                0.964          estimate D2E/DX2                !
 ! R32   R(21,29)                0.9802         estimate D2E/DX2                !
 ! A1    A(2,1,3)              106.0959         estimate D2E/DX2                !
 ! A2    A(2,1,4)              103.2214         estimate D2E/DX2                !
 ! A3    A(2,1,5)              112.8091         estimate D2E/DX2                !
 ! A4    A(3,1,4)              105.0977         estimate D2E/DX2                !
 ! A5    A(3,1,5)              115.6243         estimate D2E/DX2                !
 ! A6    A(4,1,5)              112.9055         estimate D2E/DX2                !
 ! A7    A(1,2,8)              141.2479         estimate D2E/DX2                !
 ! A8    A(1,3,7)              148.2962         estimate D2E/DX2                !
 ! A9    A(1,4,6)              134.9216         estimate D2E/DX2                !
 ! A10   A(1,5,9)              162.0002         Frozen                          !
 ! A11   A(4,6,16)             109.9952         estimate D2E/DX2                !
 ! A12   A(4,6,17)             109.7479         estimate D2E/DX2                !
 ! A13   A(4,6,18)             111.8422         estimate D2E/DX2                !
 ! A14   A(16,6,17)            114.9972         estimate D2E/DX2                !
 ! A15   A(16,6,18)            108.0658         estimate D2E/DX2                !
 ! A16   A(17,6,18)            101.9869         estimate D2E/DX2                !
 ! A17   A(3,7,19)             103.269          estimate D2E/DX2                !
 ! A18   A(3,7,20)             114.3706         estimate D2E/DX2                !
 ! A19   A(3,7,21)             111.9733         estimate D2E/DX2                !
 ! A20   A(19,7,20)            106.3205         estimate D2E/DX2                !
 ! A21   A(19,7,21)            112.6973         estimate D2E/DX2                !
 ! A22   A(20,7,21)            108.1076         estimate D2E/DX2                !
 ! A23   A(2,8,13)             111.4365         estimate D2E/DX2                !
 ! A24   A(2,8,14)             107.7362         estimate D2E/DX2                !
 ! A25   A(2,8,15)             107.5759         estimate D2E/DX2                !
 ! A26   A(13,8,14)            110.4391         estimate D2E/DX2                !
 ! A27   A(13,8,15)            110.7606         estimate D2E/DX2                !
 ! A28   A(14,8,15)            108.7751         estimate D2E/DX2                !
 ! A29   A(5,9,10)             113.7765         estimate D2E/DX2                !
 ! A30   A(5,9,11)             110.2317         estimate D2E/DX2                !
 ! A31   A(5,9,12)             105.057          estimate D2E/DX2                !
 ! A32   A(10,9,11)            105.2127         estimate D2E/DX2                !
 ! A33   A(10,9,12)            108.4603         estimate D2E/DX2                !
 ! A34   A(11,9,12)            114.3198         estimate D2E/DX2                !
 ! A35   A(9,10,23)            115.8442         estimate D2E/DX2                !
 ! A36   A(9,11,24)            117.3551         estimate D2E/DX2                !
 ! A37   A(9,12,22)            116.8567         estimate D2E/DX2                !
 ! A38   A(8,13,25)            116.8991         estimate D2E/DX2                !
 ! A39   A(8,14,27)            114.056          estimate D2E/DX2                !
 ! A40   A(8,15,26)            117.2166         estimate D2E/DX2                !
 ! A41   A(6,16,32)            116.4907         estimate D2E/DX2                !
 ! A42   A(6,17,33)            117.1859         estimate D2E/DX2                !
 ! A43   A(6,18,31)            116.3076         estimate D2E/DX2                !
 ! A44   A(7,19,30)            115.1373         estimate D2E/DX2                !
 ! A45   A(7,20,28)            116.1676         estimate D2E/DX2                !
 ! A46   A(7,21,29)            116.2372         estimate D2E/DX2                !
 ! D1    D(3,1,2,8)             57.7292         estimate D2E/DX2                !
 ! D2    D(4,1,2,8)            -52.5301         estimate D2E/DX2                !
 ! D3    D(5,1,2,8)           -174.7067         estimate D2E/DX2                !
 ! D4    D(2,1,3,7)            -50.098          estimate D2E/DX2                !
 ! D5    D(4,1,3,7)             58.8315         estimate D2E/DX2                !
 ! D6    D(5,1,3,7)           -175.9641         estimate D2E/DX2                !
 ! D7    D(2,1,4,6)             42.7683         estimate D2E/DX2                !
 ! D8    D(3,1,4,6)            -68.2312         estimate D2E/DX2                !
 ! D9    D(5,1,4,6)            164.8802         estimate D2E/DX2                !
 ! D10   D(2,1,5,9)           -106.925          estimate D2E/DX2                !
 ! D11   D(3,1,5,9)             15.4382         estimate D2E/DX2                !
 ! D12   D(4,1,5,9)            136.5204         estimate D2E/DX2                !
 ! D13   D(1,2,8,13)            93.5308         estimate D2E/DX2                !
 ! D14   D(1,2,8,14)           -27.7655         estimate D2E/DX2                !
 ! D15   D(1,2,8,15)          -144.8802         estimate D2E/DX2                !
 ! D16   D(1,3,7,19)           -61.1012         estimate D2E/DX2                !
 ! D17   D(1,3,7,20)          -176.1751         estimate D2E/DX2                !
 ! D18   D(1,3,7,21)            60.409          estimate D2E/DX2                !
 ! D19   D(1,4,6,16)           160.167          estimate D2E/DX2                !
 ! D20   D(1,4,6,17)            32.6925         estimate D2E/DX2                !
 ! D21   D(1,4,6,18)           -79.742          estimate D2E/DX2                !
 ! D22   D(1,5,9,10)          -100.1291         estimate D2E/DX2                !
 ! D23   D(1,5,9,11)           141.9685         estimate D2E/DX2                !
 ! D24   D(1,5,9,12)            18.3499         estimate D2E/DX2                !
 ! D25   D(4,6,16,32)          -14.1998         estimate D2E/DX2                !
 ! D26   D(17,6,16,32)         110.2979         estimate D2E/DX2                !
 ! D27   D(18,6,16,32)        -136.5531         estimate D2E/DX2                !
 ! D28   D(4,6,17,33)           51.0095         estimate D2E/DX2                !
 ! D29   D(16,6,17,33)         -73.6179         estimate D2E/DX2                !
 ! D30   D(18,6,17,33)         169.7166         estimate D2E/DX2                !
 ! D31   D(4,6,18,31)          -96.4424         estimate D2E/DX2                !
 ! D32   D(16,6,18,31)          24.7715         estimate D2E/DX2                !
 ! D33   D(17,6,18,31)         146.349          estimate D2E/DX2                !
 ! D34   D(3,7,19,30)         -162.1837         estimate D2E/DX2                !
 ! D35   D(20,7,19,30)         -41.4662         estimate D2E/DX2                !
 ! D36   D(21,7,19,30)          76.796          estimate D2E/DX2                !
 ! D37   D(3,7,20,28)          -98.427          estimate D2E/DX2                !
 ! D38   D(19,7,20,28)         148.2947         estimate D2E/DX2                !
 ! D39   D(21,7,20,28)          27.0455         estimate D2E/DX2                !
 ! D40   D(3,7,21,29)          -49.8995         estimate D2E/DX2                !
 ! D41   D(19,7,21,29)          66.0156         estimate D2E/DX2                !
 ! D42   D(20,7,21,29)        -176.7753         estimate D2E/DX2                !
 ! D43   D(2,8,13,25)          -58.468          estimate D2E/DX2                !
 ! D44   D(14,8,13,25)          61.2404         estimate D2E/DX2                !
 ! D45   D(15,8,13,25)        -178.1888         estimate D2E/DX2                !
 ! D46   D(2,8,14,27)           80.2918         estimate D2E/DX2                !
 ! D47   D(13,8,14,27)         -41.6247         estimate D2E/DX2                !
 ! D48   D(15,8,14,27)        -163.3756         estimate D2E/DX2                !
 ! D49   D(2,8,15,26)         -174.1994         estimate D2E/DX2                !
 ! D50   D(13,8,15,26)         -52.1897         estimate D2E/DX2                !
 ! D51   D(14,8,15,26)          69.3652         estimate D2E/DX2                !
 ! D52   D(5,9,10,23)          -94.8507         estimate D2E/DX2                !
 ! D53   D(11,9,10,23)          25.9075         estimate D2E/DX2                !
 ! D54   D(12,9,10,23)         148.6399         estimate D2E/DX2                !
 ! D55   D(5,9,11,24)          -43.8201         estimate D2E/DX2                !
 ! D56   D(10,9,11,24)        -166.8794         estimate D2E/DX2                !
 ! D57   D(12,9,11,24)          74.2393         estimate D2E/DX2                !
 ! D58   D(5,9,12,22)         -166.4772         estimate D2E/DX2                !
 ! D59   D(10,9,12,22)         -44.4746         estimate D2E/DX2                !
 ! D60   D(11,9,12,22)          72.5545         estimate D2E/DX2                !
 --------------------------------------------------------------------------------
 Trust Radius=3.00D-01 FncErr=1.00D-07 GrdErr=1.00D-06 EigMax=2.50D+02 EigMin=1.00D-04
 Number of steps in this run=    148 maximum allowed number of steps=    198.
 GradGradGradGradGradGradGradGradGradGradGradGradGradGradGradGradGradGrad

                          Input orientation:                          
 ---------------------------------------------------------------------
 Center     Atomic      Atomic             Coordinates (Angstroms)
 Number     Number       Type             X           Y           Z
 ---------------------------------------------------------------------
      1         40           0        0.657790   -0.125060   -0.071640
      2          8           0       -0.222850   -0.906240    1.477300
      3          8           0        0.103020    1.747480   -0.122990
      4          8           0       -0.268300   -0.978850   -1.597050
      5          8           0        2.592060   -0.436300   -0.082840
      6         14           0       -1.831190   -1.332440   -1.953600
      7         14           0       -1.115500    2.841720   -0.082790
      8         14           0       -1.723760   -1.152910    2.115170
      9         14           0        4.207390   -0.198410    0.027260
     10          8           0        4.953550   -0.010270   -1.433360
     11          8           0        4.934870   -1.516320    0.720710
     12          8           0        4.377080    1.200900    0.884680
     13          8           0       -2.319240   -2.624000    1.696270
     14          8           0       -2.724220    0.065080    1.550860
     15          8           0       -1.597340   -1.019570    3.744390
     16          8           0       -2.001440   -1.559650   -3.577820
     17          8           0       -2.825090   -0.186760   -1.301450
     18          8           0       -2.344480   -2.714390   -1.182770
     19          8           0       -2.040460    2.439570   -1.430230
     20          8           0       -0.635650    4.400490   -0.299870
     21          8           0       -1.965510    2.760860    1.313830
     22          1           0        5.249230    1.610560    0.881130
     23          1           0        5.336700   -0.808020   -1.815320
     24          1           0        4.507270   -1.902890    1.492960
     25          1           0       -2.405770   -2.809510    0.743920
     26          1           0       -2.381370   -1.224230    4.265350
     27          1           0       -3.060340   -0.083060    0.645890
     28          1           0       -0.527310    4.927280    0.500150
     29          1           0       -2.269090    1.869320    1.585330
     30          1           0       -2.648540    3.126760   -1.730140
     31          1           0       -2.304520   -3.529520   -1.695620
     32          1           0       -1.271140   -1.263050   -4.132230
     33          1           0       -2.610260    0.754610   -1.489930
 ---------------------------------------------------------------------
                    Distance matrix (angstroms):
                    1          2          3          4          5
     1  Zr   0.000000
     2  O    1.945504   0.000000
     3  O    1.953666   3.115983   0.000000
     4  O    1.978251   3.075543   3.121475   0.000000
     5  O    1.959183   3.252476   3.311469   3.281593   0.000000
     6  Si   3.345827   3.813067   4.071635   1.641578   4.885484
     7  Si   3.456366   4.156670   1.638221   4.196128   4.948880
     8  Si   3.392697   1.649380   4.093745   3.991145   4.896027
     9  Si   3.551735   4.714941   4.544768   4.824860   1.636461
    10  O    4.507883   6.005816   5.323006   5.313441   2.753551
    11  O    4.566929   5.248495   5.891604   5.721352   2.702017
    12  O    4.062737   5.094172   4.425126   5.699987   2.608221
    13  O    4.270002   2.719099   5.318542   4.214123   5.663226
    14  O    3.755882   2.684348   3.691278   4.126823   5.584191
    15  O    4.521929   2.653632   5.050190   5.504452   5.704294
    16  O    4.628483   5.398571   5.225104   2.695283   5.880225
    17  O    3.694143   3.874372   3.701875   2.692947   5.558129
    18  O    4.117386   3.853141   5.198238   2.737563   5.546978
    19  O    3.962783   4.790812   2.604299   3.854086   5.616612
    20  O    4.712290   5.611606   2.759598   5.545712   5.818913
    21  O    4.138812   4.063399   2.714813   5.033803   5.739683
    22  H    5.000147   6.052550   5.245044   6.579480   3.489903
    23  H    5.039747   6.462166   6.065144   5.611849   3.266912
    24  H    4.519640   4.834004   5.944234   5.762645   2.881330
    25  H    4.154132   2.987545   5.273682   3.660633   5.594101
    26  H    5.408711   3.540275   5.853271   6.236426   6.653014
    27  H    3.786965   3.069237   3.734823   3.691708   5.710118
    28  H    5.220876   5.922624   3.301022   6.272775   6.232041
    29  H    3.910208   3.450000   2.925766   4.716225   5.632890
    30  H    4.925117   5.695325   3.472237   4.747556   6.547739
    31  H    4.796138   4.613282   6.009671   3.265245   6.012118
    32  H    4.637260   5.717784   5.198616   2.741094   5.657331
    33  H    3.669539   4.154829   3.196280   2.915671   5.519266
                    6          7          8          9         10
     6  Si   0.000000
     7  Si   4.629876   0.000000
     8  Si   4.074145   4.599791   0.000000
     9  Si   6.455562   6.130878   6.359951   0.000000
    10  O    6.931917   6.840413   7.647494   1.650928   0.000000
    11  O    7.277727   7.499673   6.812778   1.657404   2.628413
    12  O    7.281227   5.813495   6.653929   1.649858   2.678164
    13  O    3.902290   5.872660   1.641396   7.160027   8.337844
    14  O    3.877087   3.600906   1.674176   7.101972   8.237682
    15  O    5.711363   5.457933   1.639549   6.941632   8.410823
    16  O    1.648848   5.689656   5.714252   7.307472   7.441181
    17  O    1.650975   3.685040   3.717481   7.156911   7.781760
    18  O    1.663560   5.795749   3.701340   7.121891   7.786932
    19  O    3.813892   1.683113   5.057279   6.936775   7.410661
    20  O    6.085279   1.645340   6.152776   6.686698   7.209630
    21  O    5.239203   1.636949   4.002272   6.965431   7.943526
    22  H    8.174918   6.553982   7.601461   2.255415   2.841018
    23  H    7.188378   7.612696   8.088127   2.245455   0.963900
    24  H    7.237421   7.523952   6.306770   2.267919   3.513478
    25  H    3.128657   5.855309   2.256056   7.146001   8.169203
    26  H    6.244177   6.086107   2.249625   7.900979   9.367499
    27  H    3.135141   3.587160   2.256060   7.294923   8.279554
    28  H    6.848729   2.243958   6.403787   6.993833   7.626119
    29  H    4.792395   2.249212   3.116406   6.974803   8.050582
    30  H    4.538993   2.268308   5.827281   7.819782   8.229265
    31  H    2.262246   6.678899   4.528540   7.514624   8.070532
    32  H    2.250533   5.768130   6.264743   6.960539   6.899284
    33  H    2.275460   2.927521   4.173878   7.049146   7.602596
                   11         12         13         14         15
    11  O    0.000000
    12  O    2.778723   0.000000
    13  O    7.402755   7.754305   0.000000
    14  O    7.864581   7.222350   2.723289   0.000000
    15  O    7.215204   6.985852   2.700024   2.694049   0.000000
    16  O    8.160370   8.259544   5.389792   5.428215   7.353213
    17  O    8.128582   7.653497   3.896453   2.865182   5.259415
    18  O    7.618894   8.048802   2.880569   3.916936   5.263795
    19  O    8.302460   6.933825   5.957555   3.872032   6.240088
    20  O    8.190294   6.063662   7.494165   5.155881   6.830662
    21  O    8.140105   6.545693   5.410000   2.810526   4.509415
    22  H    3.146734   0.963576   8.710780   8.149414   7.873459
    23  H    2.663570   3.499519   8.616407   8.779060   8.890222
    24  H    0.963664   3.165512   6.867501   7.494712   6.566236
    25  H    7.453715   7.881006   0.974101   3.002637   3.586121
    26  H    8.134934   7.936424   2.926327   3.024619   0.963321
    27  H    8.123005   7.551211   2.847614   0.976674   3.552200
    28  H    8.450091   6.171451   7.852614   5.437959   6.858213
    29  H    8.006695   6.716344   4.494969   1.861079   3.668579
    30  H    9.223501   7.739868   6.702236   4.488271   6.947485
    31  H    7.893060   8.583624   3.510712   4.861783   6.032716
    32  H    7.882242   7.946246   6.076357   6.014390   7.887131
    33  H    8.183706   7.393299   4.653125   3.120071   5.618881
                   16         17         18         19         20
    16  O    0.000000
    17  O    2.783000   0.000000
    18  O    2.680926   2.575652   0.000000
    19  O    4.539540   2.744055   5.168846   0.000000
    20  O    6.937839   5.180702   7.370287   2.663909   0.000000
    21  O    6.526587   4.033241   6.029510   2.763822   2.657243
    22  H    9.083209   8.555037   8.979382   7.692153   6.618934
    23  H    7.584171   8.201515   7.939452   8.069549   8.068093
    24  H    8.257962   8.032268   7.400307   8.383005   8.330454
    25  H    4.516976   3.352340   1.930010   5.693261   7.497128
    26  H    7.859527   5.680008   5.648358   6.780802   7.451594
    27  H    4.597968   1.964238   3.283344   3.422586   5.184188
    28  H    7.802766   5.888884   8.033022   3.493521   0.963990
    29  H    6.203837   3.587492   5.355227   3.077509   3.553720
    30  H    5.078888   3.345797   5.874615   0.965369   2.778450
    31  H    2.741336   3.405937   0.963872   5.980819   8.223035
    32  H    0.963680   3.403891   3.458000   4.647801   6.867788
    33  H    3.175806   0.983796   3.492699   1.779698   4.313672
                   21         22         23         24         25
    21  O    0.000000
    22  H    7.318667   0.000000
    23  H    8.709234   3.623261   0.000000
    24  H    7.979946   3.642687   3.582096   0.000000
    25  H    5.616729   8.840524   8.396518   7.012356   0.000000
    26  H    4.976480   8.815613   9.834449   7.456547   3.861888
    27  H    3.119724   8.483669   8.780285   7.829306   2.805637
    28  H    2.724678   6.671896   8.523009   8.543061   7.965297
    29  H    0.980162   7.555659   8.751035   7.756104   4.755849
    30  H    3.141045   8.455316   8.902461   9.321554   6.435776
    31  H    6.981447   9.493113   8.112283   7.695028   2.545589
    32  H    6.806877   8.712442   7.017027   8.089634   5.239825
    33  H    3.507394   8.253857   8.105669   8.162057   4.211277
                   26         27         28         29         30
    26  H    0.000000
    27  H    3.855355   0.000000
    28  H    7.446835   5.616136   0.000000
    29  H    4.094529   2.306602   3.682734   0.000000
    30  H    7.412718   4.014728   3.565906   3.566157   0.000000
    31  H    6.391669   4.234622   8.916129   6.317702   6.665254
    32  H    8.470742   5.236797   7.767394   6.595312   5.190154
    33  H    6.090275   2.337946   5.070530   3.288799   2.384588
                   31         32         33
    31  H    0.000000
    32  H    3.484513   0.000000
    33  H    4.299948   3.584124   0.000000
 Stoichiometry    H12O16Si4Zr
 Framework group  C1[X(H12O16Si4Zr)]
 Deg. of freedom    93
 Full point group                 C1      NOp   1
 Largest Abelian subgroup         C1      NOp   1
 Largest concise Abelian subgroup C1      NOp   1
                         Standard orientation:                         
 ---------------------------------------------------------------------
 Center     Atomic      Atomic             Coordinates (Angstroms)
 Number     Number       Type             X           Y           Z
 ---------------------------------------------------------------------
      1         40           0        0.656639   -0.150624   -0.077440
      2          8           0       -0.232836   -0.918119    1.473292
      3          8           0        0.136655    1.732010   -0.123468
      4          8           0       -0.290653   -0.984223   -1.600997
      5          8           0        2.584725   -0.497797   -0.096191
      6         14           0       -1.861125   -1.308003   -1.952514
      7         14           0       -1.061125    2.848668   -0.076922
      8         14           0       -1.735782   -1.137978    2.116152
      9         14           0        4.204589   -0.290221    0.008483
     10          8           0        4.948882   -0.113321   -1.454493
     11          8           0        4.909883   -1.622716    0.696962
     12          8           0        4.403381    1.104111    0.867758
     13          8           0       -2.360052   -2.596956    1.696807
     14          8           0       -2.715404    0.099460    1.557623
     15          8           0       -1.601061   -1.010007    3.745137
     16          8           0       -2.041399   -1.529020   -3.576506
     17          8           0       -2.831173   -0.145219   -1.294744
     18          8           0       -2.397294   -2.681572   -1.182278
     19          8           0       -1.998238    2.466282   -1.421715
     20          8           0       -0.553112    4.398631   -0.292978
     21          8           0       -1.907480    2.781080    1.322620
     22          1           0        5.282990    1.497470    0.861777
     23          1           0        5.315738   -0.917362   -1.839248
     24          1           0        4.477930   -2.002677    1.470069
     25          1           0       -2.453436   -2.779073    0.744450
     26          1           0       -2.386893   -1.200993    4.268568
     27          1           0       -3.057467   -0.040735    0.653615
     28          1           0       -0.432113    4.921843    0.507576
     29          1           0       -2.226634    1.894848    1.593639
     30          1           0       -2.594488    3.165222   -1.718206
     31          1           0       -2.374359   -3.496361   -1.696711
     32          1           0       -1.307695   -1.245049   -4.133030
     33          1           0       -2.599527    0.792333   -1.482334
 ---------------------------------------------------------------------
 Rotational constants (GHZ):           0.2127259           0.1340704           0.1243694
 General basis read from cards:  (5D, 7F)
 ======================================================================================================
                                       Pseudopotential Parameters
 ======================================================================================================
  Center     Atomic      Valence      Angular      Power
  Number     Number     Electrons     Momentum     of R      Exponent        Coefficient   SO-Coeffient
 ======================================================================================================
    1         40           12
                                      G and up 
                                                     2        1.0000000        0.00000000    0.00000000
                                      S - G
                                                     2        8.6365280      150.24299400    0.00000000
                                                     2        3.7176390       18.78003600    0.00000000
                                      P - G
                                                     2        7.6267280       33.19279100    0.00000000
                                                     2        7.4532070       66.38903900    0.00000000
                                                     2        3.3583890        4.62072600    0.00000000
                                                     2        3.2297380        9.26027000    0.00000000
                                      D - G
                                                     2        5.9380860       13.99338300    0.00000000
                                                     2        5.8255440       20.99588200    0.00000000
                                                     2        2.2050190        2.28516600    0.00000000
                                                     2        2.2062920        3.44126000    0.00000000
                                      F - G
                                                     2        4.8002150       -5.23932000    0.00000000
                                                     2        4.7989920       -6.98742400    0.00000000
    2          8
                                   No pseudopotential on this center.
    3          8
                                   No pseudopotential on this center.
    4          8
                                   No pseudopotential on this center.
    5          8
                                   No pseudopotential on this center.
    6         14
                                   No pseudopotential on this center.
    7         14
                                   No pseudopotential on this center.
    8         14
                                   No pseudopotential on this center.
    9         14
                                   No pseudopotential on this center.
   10          8
                                   No pseudopotential on this center.
   11          8
                                   No pseudopotential on this center.
   12          8
                                   No pseudopotential on this center.
   13          8
                                   No pseudopotential on this center.
   14          8
                                   No pseudopotential on this center.
   15          8
                                   No pseudopotential on this center.
   16          8
                                   No pseudopotential on this center.
   17          8
                                   No pseudopotential on this center.
   18          8
                                   No pseudopotential on this center.
   19          8
                                   No pseudopotential on this center.
   20          8
                                   No pseudopotential on this center.
   21          8
                                   No pseudopotential on this center.
   22          1
                                   No pseudopotential on this center.
   23          1
                                   No pseudopotential on this center.
   24          1
                                   No pseudopotential on this center.
   25          1
                                   No pseudopotential on this center.
   26          1
                                   No pseudopotential on this center.
   27          1
                                   No pseudopotential on this center.
   28          1
                                   No pseudopotential on this center.
   29          1
                                   No pseudopotential on this center.
   30          1
                                   No pseudopotential on this center.
   31          1
                                   No pseudopotential on this center.
   32          1
                                   No pseudopotential on this center.
   33          1
                                   No pseudopotential on this center.
 ======================================================================================================
 There are   570 symmetry adapted cartesian basis functions of A   symmetry.
 There are   524 symmetry adapted basis functions of A   symmetry.
   524 basis functions,  1074 primitive gaussians,   570 cartesian basis functions
   104 alpha electrons      104 beta electrons
       nuclear repulsion energy      2834.2178518358 Hartrees.
 NAtoms=   33 NActive=   33 NUniq=   33 SFac= 1.00D+00 NAtFMM=   60 NAOKFM=F Big=F
 Integral buffers will be    131072 words long.
 Raffenetti 2 integral format.
 Two-electron integral symmetry is turned on.
 Nuclear repulsion after empirical dispersion term =     2834.1770267341 Hartrees.
 One-electron integrals computed using PRISM.
 PrsmSu:  requested number of processors reduced to:   4 ShMem   1 Linda.
   1 Symmetry operations used in ECPInt.
 ECPInt:  NShTT=   13203 NPrTT=   78401 LenC2=   11528 LenP2D=   44662.
 LDataN:  DoStor=T MaxTD1= 8 Len=  415
 Number of processors reduced to  13 by ecpmxn.
 NBasis=   524 RedAO= T EigKep=  3.14D-05  NBF=   524
 NBsUse=   524 1.00D-06 EigRej= -1.00D+00 NBFU=   524
 Defaulting to unpruned grid for atomic number  40.
 ExpMin= 1.01D-02 ExpMax= 1.61D+04 ExpMxC= 2.43D+03 IAcc=3 IRadAn=         5 AccDes= 0.00D+00
 Harris functional with IExCor=  402 and IRadAn=       5 diagonalized for initial guess.
 HarFok:  IExCor=  402 AccDes= 0.00D+00 IRadAn=         5 IDoV= 1 UseB2=F ITyADJ=14
 ICtDFT=  3500011 ScaDFX=  1.000000  1.000000  1.000000  1.000000
 Defaulting to unpruned grid for atomic number  40.
 FoFCou: FMM=F IPFlag=           0 FMFlag=      100000 FMFlg1=           0
         NFxFlg=           0 DoJE=T BraDBF=F KetDBF=T FulRan=T
         wScrn=  0.000000 ICntrl=       500 IOpCl=  0 I1Cent=   200000004 NGrid=           0
         NMat0=    1 NMatS0=      1 NMatT0=    0 NMatD0=    1 NMtDS0=    0 NMtDT0=    0
 Petite list used in FoFCou.
 Requested convergence on RMS density matrix=1.00D-08 within 128 cycles.
 Requested convergence on MAX density matrix=1.00D-06.
 Requested convergence on             energy=1.00D-06.
 No special actions if energy rises.
 Defaulting to unpruned grid for atomic number  40.
 Defaulting to unpruned grid for atomic number  40.
 Defaulting to unpruned grid for atomic number  40.
 Defaulting to unpruned grid for atomic number  40.
 Defaulting to unpruned grid for atomic number  40.
 Defaulting to unpruned grid for atomic number  40.
 Defaulting to unpruned grid for atomic number  40.
 Defaulting to unpruned grid for atomic number  40.
 Defaulting to unpruned grid for atomic number  40.
 Defaulting to unpruned grid for atomic number  40.
 Defaulting to unpruned grid for atomic number  40.
 Defaulting to unpruned grid for atomic number  40.
 Defaulting to unpruned grid for atomic number  40.
 Defaulting to unpruned grid for atomic number  40.
 Defaulting to unpruned grid for atomic number  40.
 Defaulting to unpruned grid for atomic number  40.
 SCF Done:  E(RB3LYP) =  -2416.94685461     A.U. after   14 cycles
            NFock= 14  Conv=0.26D-08     -V/T= 2.0185

 **********************************************************************

            Population analysis using the SCF Density.

 **********************************************************************

 Orbital symmetries:
       Occupied  (A) (A) (A) (A) (A) (A) (A) (A) (A) (A) (A) (A)
                 (A) (A) (A) (A) (A) (A) (A) (A) (A) (A) (A) (A)
                 (A) (A) (A) (A) (A) (A) (A) (A) (A) (A) (A) (A)
                 (A) (A) (A) (A) (A) (A) (A) (A) (A) (A) (A) (A)
                 (A) (A) (A) (A) (A) (A) (A) (A) (A) (A) (A) (A)
                 (A) (A) (A) (A) (A) (A) (A) (A) (A) (A) (A) (A)
                 (A) (A) (A) (A) (A) (A) (A) (A) (A) (A) (A) (A)
                 (A) (A) (A) (A) (A) (A) (A) (A) (A) (A) (A) (A)
                 (A) (A) (A) (A) (A) (A) (A) (A)
       Virtual   (A) (A) (A) (A) (A) (A) (A) (A) (A) (A) (A) (A)
                 (A) (A) (A) (A) (A) (A) (A) (A) (A) (A) (A) (A)
                 (A) (A) (A) (A) (A) (A) (A) (A) (A) (A) (A) (A)
                 (A) (A) (A) (A) (A) (A) (A) (A) (A) (A) (A) (A)
                 (A) (A) (A) (A) (A) (A) (A) (A) (A) (A) (A) (A)
                 (A) (A) (A) (A) (A) (A) (A) (A) (A) (A) (A) (A)
                 (A) (A) (A) (A) (A) (A) (A) (A) (A) (A) (A) (A)
                 (A) (A) (A) (A) (A) (A) (A) (A) (A) (A) (A) (A)
                 (A) (A) (A) (A) (A) (A) (A) (A) (A) (A) (A) (A)
                 (A) (A) (A) (A) (A) (A) (A) (A) (A) (A) (A) (A)
                 (A) (A) (A) (A) (A) (A) (A) (A) (A) (A) (A) (A)
                 (A) (A) (A) (A) (A) (A) (A) (A) (A) (A) (A) (A)
                 (A) (A) (A) (A) (A) (A) (A) (A) (A) (A) (A) (A)
                 (A) (A) (A) (A) (A) (A) (A) (A) (A) (A) (A) (A)
                 (A) (A) (A) (A) (A) (A) (A) (A) (A) (A) (A) (A)
                 (A) (A) (A) (A) (A) (A) (A) (A) (A) (A) (A) (A)
                 (A) (A) (A) (A) (A) (A) (A) (A) (A) (A) (A) (A)
                 (A) (A) (A) (A) (A) (A) (A) (A) (A) (A) (A) (A)
                 (A) (A) (A) (A) (A) (A) (A) (A) (A) (A) (A) (A)
                 (A) (A) (A) (A) (A) (A) (A) (A) (A) (A) (A) (A)
                 (A) (A) (A) (A) (A) (A) (A) (A) (A) (A) (A) (A)
                 (A) (A) (A) (A) (A) (A) (A) (A) (A) (A) (A) (A)
                 (A) (A) (A) (A) (A) (A) (A) (A) (A) (A) (A) (A)
                 (A) (A) (A) (A) (A) (A) (A) (A) (A) (A) (A) (A)
                 (A) (A) (A) (A) (A) (A) (A) (A) (A) (A) (A) (A)
                 (A) (A) (A) (A) (A) (A) (A) (A) (A) (A) (A) (A)
                 (A) (A) (A) (A) (A) (A) (A) (A) (A) (A) (A) (A)
                 (A) (A) (A) (A) (A) (A) (A) (A) (A) (A) (A) (A)
                 (A) (A) (A) (A) (A) (A) (A) (A) (A) (A) (A) (A)
                 (A) (A) (A) (A) (A) (A) (A) (A) (A) (A) (A) (A)
                 (A) (A) (A) (A) (A) (A) (A) (A) (A) (A) (A) (A)
                 (A) (A) (A) (A) (A) (A) (A) (A) (A) (A) (A) (A)
                 (A) (A) (A) (A) (A) (A) (A) (A) (A) (A) (A) (A)
                 (A) (A) (A) (A) (A) (A) (A) (A) (A) (A) (A) (A)
                 (A) (A) (A) (A) (A) (A) (A) (A) (A) (A) (A) (A)
 The electronic state is 1-A.
 Alpha  occ. eigenvalues --  -66.22792 -66.21745 -66.21494 -66.21024 -19.18578
 Alpha  occ. eigenvalues --  -19.18342 -19.17777 -19.17015 -19.16724 -19.16536
 Alpha  occ. eigenvalues --  -19.16445 -19.16252 -19.16172 -19.15996 -19.15986
 Alpha  occ. eigenvalues --  -19.15490 -19.15339 -19.15236 -19.14885 -19.14694
 Alpha  occ. eigenvalues --   -5.36852  -5.35825  -5.35572  -5.35084  -3.72836
 Alpha  occ. eigenvalues --   -3.72809  -3.72763  -3.71817  -3.71770  -3.71735
 Alpha  occ. eigenvalues --   -3.71540  -3.71532  -3.71493  -3.71049  -3.71040
 Alpha  occ. eigenvalues --   -3.71015  -2.13346  -1.29592  -1.29506  -1.29348
 Alpha  occ. eigenvalues --   -1.05669  -1.04766  -1.04162  -1.03485  -1.02554
 Alpha  occ. eigenvalues --   -1.02160  -1.01461  -1.00937  -1.00769  -1.00654
 Alpha  occ. eigenvalues --   -0.99821  -0.99293  -0.97365  -0.96269  -0.95718
 Alpha  occ. eigenvalues --   -0.95393  -0.60979  -0.59151  -0.58978  -0.58477
 Alpha  occ. eigenvalues --   -0.55530  -0.54522  -0.53876  -0.53031  -0.53004
 Alpha  occ. eigenvalues --   -0.52480  -0.52136  -0.51697  -0.48765  -0.47591
 Alpha  occ. eigenvalues --   -0.47190  -0.46702  -0.43364  -0.42640  -0.41850
 Alpha  occ. eigenvalues --   -0.41387  -0.41121  -0.40509  -0.39821  -0.39320
 Alpha  occ. eigenvalues --   -0.38803  -0.38670  -0.38648  -0.38137  -0.38005
 Alpha  occ. eigenvalues --   -0.37618  -0.37475  -0.37172  -0.36536  -0.36403
 Alpha  occ. eigenvalues --   -0.36090  -0.35628  -0.35463  -0.35085  -0.34907
 Alpha  occ. eigenvalues --   -0.34595  -0.33991  -0.33694  -0.33471  -0.33251
 Alpha  occ. eigenvalues --   -0.32810  -0.32187  -0.32043  -0.31289
 Alpha virt. eigenvalues --   -0.04316  -0.03143  -0.03027  -0.02756  -0.02082
 Alpha virt. eigenvalues --   -0.01161  -0.00541  -0.00115   0.00135   0.00275
 Alpha virt. eigenvalues --    0.00780   0.00931   0.01040   0.01962   0.02349
 Alpha virt. eigenvalues --    0.03218   0.03337   0.03856   0.03961   0.04071
 Alpha virt. eigenvalues --    0.04139   0.04745   0.05578   0.05856   0.06198
 Alpha virt. eigenvalues --    0.06493   0.07081   0.07450   0.07716   0.08666
 Alpha virt. eigenvalues --    0.08800   0.09065   0.09195   0.09707   0.09970
 Alpha virt. eigenvalues --    0.10377   0.10679   0.10836   0.11273   0.11700
 Alpha virt. eigenvalues --    0.11795   0.12571   0.13288   0.13330   0.13611
 Alpha virt. eigenvalues --    0.14064   0.14415   0.14907   0.15084   0.15287
 Alpha virt. eigenvalues --    0.15349   0.15750   0.16181   0.16704   0.16970
 Alpha virt. eigenvalues --    0.17388   0.17520   0.17699   0.18128   0.18383
 Alpha virt. eigenvalues --    0.18500   0.18790   0.19233   0.19678   0.19781
 Alpha virt. eigenvalues --    0.20108   0.20331   0.20675   0.20966   0.21204
 Alpha virt. eigenvalues --    0.21758   0.21969   0.22296   0.22472   0.22776
 Alpha virt. eigenvalues --    0.23385   0.23779   0.24055   0.24177   0.24526
 Alpha virt. eigenvalues --    0.24905   0.25112   0.25607   0.25886   0.26182
 Alpha virt. eigenvalues --    0.26577   0.26679   0.26901   0.27229   0.27432
 Alpha virt. eigenvalues --    0.27973   0.28265   0.28550   0.28852   0.29027
 Alpha virt. eigenvalues --    0.29489   0.29725   0.30069   0.30413   0.30710
 Alpha virt. eigenvalues --    0.30865   0.31374   0.31539   0.31610   0.32164
 Alpha virt. eigenvalues --    0.32295   0.32867   0.33064   0.33560   0.34030
 Alpha virt. eigenvalues --    0.34558   0.34650   0.35314   0.35754   0.36258
 Alpha virt. eigenvalues --    0.37036   0.37554   0.38114   0.38547   0.38749
 Alpha virt. eigenvalues --    0.39371   0.39940   0.40019   0.41117   0.41599
 Alpha virt. eigenvalues --    0.42699   0.43154   0.43923   0.44363   0.44965
 Alpha virt. eigenvalues --    0.45271   0.45567   0.46037   0.46595   0.47456
 Alpha virt. eigenvalues --    0.47933   0.48555   0.48901   0.49436   0.49556
 Alpha virt. eigenvalues --    0.50141   0.50901   0.51099   0.51365   0.53292
 Alpha virt. eigenvalues --    0.54119   0.54508   0.55146   0.56813   0.57313
 Alpha virt. eigenvalues --    0.58284   0.58601   0.58995   0.59346   0.60462
 Alpha virt. eigenvalues --    0.61167   0.61698   0.62121   0.64221   0.65901
 Alpha virt. eigenvalues --    0.66867   0.67904   0.68459   0.68780   0.69540
 Alpha virt. eigenvalues --    0.70039   0.70354   0.73020   0.74385   0.75107
 Alpha virt. eigenvalues --    0.75477   0.77406   0.78580   0.79072   0.80268
 Alpha virt. eigenvalues --    0.81210   0.81509   0.82557   0.84151   0.85397
 Alpha virt. eigenvalues --    0.86656   0.87644   0.89826   0.90724   0.91177
 Alpha virt. eigenvalues --    0.94477   0.95736   0.96235   0.96908   0.97507
 Alpha virt. eigenvalues --    0.98081   0.98766   0.99301   0.99787   1.00405
 Alpha virt. eigenvalues --    1.00675   1.01475   1.02051   1.03317   1.04043
 Alpha virt. eigenvalues --    1.04312   1.05570   1.06411   1.06690   1.07946
 Alpha virt. eigenvalues --    1.09759   1.12271   1.15233   1.16207   1.16487
 Alpha virt. eigenvalues --    1.18759   1.19092   1.19843   1.20600   1.21035
 Alpha virt. eigenvalues --    1.21310   1.21818   1.22428   1.22893   1.23006
 Alpha virt. eigenvalues --    1.23501   1.23970   1.24345   1.25249   1.25723
 Alpha virt. eigenvalues --    1.26045   1.27155   1.27560   1.28145   1.28569
 Alpha virt. eigenvalues --    1.29017   1.29843   1.30129   1.30921   1.31472
 Alpha virt. eigenvalues --    1.32519   1.32632   1.33078   1.33394   1.34436
 Alpha virt. eigenvalues --    1.35296   1.36079   1.36511   1.36908   1.37845
 Alpha virt. eigenvalues --    1.39147   1.39747   1.40250   1.41224   1.41504
 Alpha virt. eigenvalues --    1.42812   1.43803   1.44283   1.45276   1.46317
 Alpha virt. eigenvalues --    1.47055   1.48812   1.51182   1.51386   1.52615
 Alpha virt. eigenvalues --    1.56731   1.57265   1.57780   1.59249   1.59866
 Alpha virt. eigenvalues --    1.60027   1.61279   1.61941   1.62447   1.63022
 Alpha virt. eigenvalues --    1.63224   1.63839   1.65283   1.65428   1.66565
 Alpha virt. eigenvalues --    1.67207   1.67993   1.69326   1.69470   1.70155
 Alpha virt. eigenvalues --    1.71330   1.71576   1.71637   1.72669   1.73280
 Alpha virt. eigenvalues --    1.74075   1.74855   1.75659   1.76224   1.76839
 Alpha virt. eigenvalues --    1.77287   1.77437   1.78387   1.78717   1.79644
 Alpha virt. eigenvalues --    1.80550   1.81295   1.82219   1.82426   1.83175
 Alpha virt. eigenvalues --    1.83387   1.84648   1.85152   1.85949   1.86563
 Alpha virt. eigenvalues --    1.87190   1.88077   1.88567   1.89876   1.90440
 Alpha virt. eigenvalues --    1.91276   1.91431   1.92575   1.92844   1.93969
 Alpha virt. eigenvalues --    1.94628   1.94956   1.95745   1.97304   1.98338
 Alpha virt. eigenvalues --    1.99197   2.00526   2.01247   2.02713   2.03664
 Alpha virt. eigenvalues --    2.05903   2.06554   2.07904   2.09787   2.10439
 Alpha virt. eigenvalues --    2.11180   2.13045   2.14367   2.16100   2.16420
 Alpha virt. eigenvalues --    2.17787   2.18842   2.19319   2.21030   2.25830
 Alpha virt. eigenvalues --    2.32693   2.33436   2.35483   2.39482   2.40433
 Alpha virt. eigenvalues --    2.41158   2.41400   2.41719   2.42731   2.43773
 Alpha virt. eigenvalues --    2.44026   2.45590   2.46703   2.47640   2.49068
 Alpha virt. eigenvalues --    2.50200   2.50317   2.51687   2.52649   2.53390
 Alpha virt. eigenvalues --    2.55436   2.58397   2.59399   2.60091   2.60703
 Alpha virt. eigenvalues --    2.61151   2.61761   2.62070   2.62483   2.62807
 Alpha virt. eigenvalues --    2.63163   2.64051   2.64657   2.65003   2.65973
 Alpha virt. eigenvalues --    2.66368   2.66667   2.67381   2.67578   2.69390
 Alpha virt. eigenvalues --    2.70097   2.70354   2.71230   2.71671   2.72495
 Alpha virt. eigenvalues --    2.73119   2.74430   2.75572   2.76797   2.77517
 Alpha virt. eigenvalues --    2.78945   2.80545   2.81513   2.82481   2.83489
 Alpha virt. eigenvalues --    2.83761   2.84701   2.86691   2.87812   2.88143
 Alpha virt. eigenvalues --    3.14907   3.20480   3.35840   3.41055   3.46705
 Alpha virt. eigenvalues --    3.47842   3.48612   3.48725   3.51085   3.51106
 Alpha virt. eigenvalues --    3.52754   3.54191   3.60318   3.61088   3.62061
 Alpha virt. eigenvalues --    3.66206   4.34052   4.60420   7.86557  31.28210
          Condensed to atoms (all electrons):
               1          2          3          4          5          6
     1  Zr  15.171576  -0.134163   0.000971  -0.147898  -0.189100  -0.604126
     2  O   -0.134163   9.063302   0.018617  -0.042261  -0.056209   0.089831
     3  O    0.000971   0.018617   8.821124   0.014882  -0.043606  -0.005280
     4  O   -0.147898  -0.042261   0.014882   8.807958  -0.061487  -0.666414
     5  O   -0.189100  -0.056209  -0.043606  -0.061487   9.408867  -0.005379
     6  Si  -0.604126   0.089831  -0.005280  -0.666414  -0.005379  13.974034
     7  Si  -0.624780  -0.027328  -0.872178  -0.006221  -0.032587   0.086714
     8  Si  -0.596640  -0.991821  -0.022070   0.074637  -0.012226  -0.018708
     9  Si  -0.341909  -0.037876  -0.019220  -0.030092  -1.223786   0.041423
    10  O   -0.016098   0.000937  -0.002372   0.000794   0.127836  -0.002540
    11  O   -0.070352   0.003421   0.002998   0.001257   0.315220  -0.000722
    12  O    0.045039  -0.000107   0.004869   0.002051   0.155354  -0.003078
    13  O   -0.035654   0.187360   0.001608  -0.015416  -0.000759   0.034437
    14  O   -0.022286   0.261868  -0.018054  -0.009077   0.001616   0.030491
    15  O   -0.083698   0.291869  -0.000662   0.001215   0.000585   0.000166
    16  O   -0.123287   0.004682  -0.000483   0.344430   0.003167  -0.424840
    17  O   -0.091202  -0.039585   0.007618   0.217459   0.001126  -0.445421
    18  O   -0.030539  -0.014452   0.003689   0.199412  -0.000679  -0.449451
    19  O    0.000675   0.009000   0.265955   0.010555   0.002092  -0.008016
    20  O   -0.144712  -0.000583   0.160898  -0.000853   0.001334   0.009070
    21  O    0.037226   0.010378   0.147837   0.003471   0.000270  -0.012616
    22  H   -0.009668  -0.000017  -0.000007  -0.000009   0.005536   0.000097
    23  H   -0.007274  -0.000013  -0.000006  -0.000057  -0.025198   0.000087
    24  H   -0.005379  -0.000173  -0.000009   0.000003  -0.005118   0.000063
    25  H    0.016796  -0.020017  -0.000109  -0.000359   0.000021   0.002855
    26  H    0.007601   0.000632   0.000014  -0.000011  -0.000003  -0.000182
    27  H    0.006346  -0.019249   0.000879  -0.001691   0.000014   0.008155
    28  H    0.004976  -0.000011  -0.018292  -0.000014  -0.000015  -0.000288
    29  H    0.004067  -0.007058  -0.020236  -0.000137  -0.000070   0.000095
    30  H    0.000736  -0.000012   0.000077  -0.000456  -0.000008  -0.000695
    31  H    0.000151   0.000170  -0.000020  -0.018429  -0.000009   0.063638
    32  H    0.002096  -0.000025   0.000039   0.010497   0.000001   0.022745
    33  H   -0.016296   0.001025  -0.010127  -0.009686  -0.000097   0.053594
               7          8          9         10         11         12
     1  Zr  -0.624780  -0.596640  -0.341909  -0.016098  -0.070352   0.045039
     2  O   -0.027328  -0.991821  -0.037876   0.000937   0.003421  -0.000107
     3  O   -0.872178  -0.022070  -0.019220  -0.002372   0.002998   0.004869
     4  O   -0.006221   0.074637  -0.030092   0.000794   0.001257   0.002051
     5  O   -0.032587  -0.012226  -1.223786   0.127836   0.315220   0.155354
     6  Si   0.086714  -0.018708   0.041423  -0.002540  -0.000722  -0.003078
     7  Si  13.792570   0.183881   0.021125  -0.000135  -0.000739   0.004163
     8  Si   0.183881  13.793459   0.027503  -0.001003   0.001302  -0.000882
     9  Si   0.021125   0.027503  14.247681  -0.059823  -0.181932  -0.223877
    10  O   -0.000135  -0.001003  -0.059823   8.525580   0.010569   0.033721
    11  O   -0.000739   0.001302  -0.181932   0.010569   8.526888  -0.051327
    12  O    0.004163  -0.000882  -0.223877   0.033721  -0.051327   8.605996
    13  O    0.007219  -0.095656   0.000159   0.000000   0.000017   0.000010
    14  O    0.010995  -0.363459  -0.001391  -0.000002   0.000002   0.000022
    15  O   -0.002476  -0.303805  -0.000539   0.000000  -0.000025  -0.000020
    16  O    0.003712  -0.010376  -0.001099   0.000006  -0.000003  -0.000001
    17  O    0.000926   0.099031   0.002810  -0.000001   0.000002  -0.000006
    18  O   -0.000763   0.075374   0.004201  -0.000002  -0.000001  -0.000001
    19  O   -0.409936  -0.016425   0.001040   0.000008  -0.000001  -0.000023
    20  O   -0.105201   0.009708   0.003287   0.000003  -0.000003  -0.000030
    21  O    0.022197  -0.041108  -0.001995   0.000001   0.000001   0.000028
    22  H   -0.000205   0.000101   0.048258  -0.006308  -0.005085   0.219508
    23  H    0.000057   0.000060   0.080096   0.228816  -0.005956   0.005840
    24  H    0.000055  -0.000086   0.037706   0.007457   0.241592  -0.007372
    25  H   -0.000449   0.057431  -0.000202   0.000000  -0.000000  -0.000000
    26  H   -0.000390   0.045835  -0.000049  -0.000000   0.000000  -0.000000
    27  H    0.001032   0.067645  -0.000025   0.000000  -0.000000  -0.000000
    28  H    0.056486  -0.000065  -0.000139  -0.000000  -0.000000  -0.000005
    29  H    0.048205   0.021952  -0.000064   0.000000   0.000000  -0.000001
    30  H    0.040365   0.000124   0.000023  -0.000000  -0.000000   0.000000
    31  H    0.000153  -0.002054  -0.000052   0.000000  -0.000000   0.000000
    32  H   -0.000673   0.000057  -0.000003  -0.000000   0.000000  -0.000000
    33  H    0.020659   0.000132   0.000083  -0.000000   0.000000   0.000000
              13         14         15         16         17         18
     1  Zr  -0.035654  -0.022286  -0.083698  -0.123287  -0.091202  -0.030539
     2  O    0.187360   0.261868   0.291869   0.004682  -0.039585  -0.014452
     3  O    0.001608  -0.018054  -0.000662  -0.000483   0.007618   0.003689
     4  O   -0.015416  -0.009077   0.001215   0.344430   0.217459   0.199412
     5  O   -0.000759   0.001616   0.000585   0.003167   0.001126  -0.000679
     6  Si   0.034437   0.030491   0.000166  -0.424840  -0.445421  -0.449451
     7  Si   0.007219   0.010995  -0.002476   0.003712   0.000926  -0.000763
     8  Si  -0.095656  -0.363459  -0.303805  -0.010376   0.099031   0.075374
     9  Si   0.000159  -0.001391  -0.000539  -0.001099   0.002810   0.004201
    10  O    0.000000  -0.000002   0.000000   0.000006  -0.000001  -0.000002
    11  O    0.000017   0.000002  -0.000025  -0.000003   0.000002  -0.000001
    12  O    0.000010   0.000022  -0.000020  -0.000001  -0.000006  -0.000001
    13  O    8.628574   0.087017  -0.090992   0.003732  -0.030918  -0.045540
    14  O    0.087017   8.673987   0.055473   0.003632  -0.035804  -0.026942
    15  O   -0.090992   0.055473   8.776781  -0.000174   0.003618   0.001669
    16  O    0.003732   0.003632  -0.000174   8.902198  -0.091766  -0.114844
    17  O   -0.030918  -0.035804   0.003618  -0.091766   8.935055   0.227449
    18  O   -0.045540  -0.026942   0.001669  -0.114844   0.227449   9.013136
    19  O    0.000189  -0.000407   0.000140  -0.001526  -0.029871   0.000173
    20  O    0.000008  -0.000302   0.000037   0.000063  -0.001021   0.000016
    21  O   -0.000249   0.016243  -0.000596  -0.000210  -0.005622   0.000474
    22  H   -0.000000  -0.000000   0.000000   0.000000   0.000000  -0.000000
    23  H    0.000000   0.000000  -0.000000  -0.000000   0.000000  -0.000000
    24  H   -0.000000   0.000000   0.000002   0.000000  -0.000000  -0.000000
    25  H    0.218354  -0.011918   0.008926  -0.000055   0.000625   0.014867
    26  H   -0.005157  -0.010094   0.217047   0.000000  -0.000003   0.000006
    27  H   -0.009740   0.219143   0.004615   0.000189   0.017800  -0.000264
    28  H    0.000000  -0.000006  -0.000001  -0.000000   0.000004  -0.000000
    29  H    0.000793   0.017602  -0.002569  -0.000004  -0.000390   0.000006
    30  H    0.000001   0.000003   0.000000   0.000116  -0.000381  -0.000008
    31  H    0.002350   0.000167  -0.000018   0.003776  -0.000743   0.218057
    32  H   -0.000008  -0.000006   0.000000   0.233467  -0.003632   0.003880
    33  H    0.000234   0.002104  -0.000036  -0.000136   0.230978   0.002103
              19         20         21         22         23         24
     1  Zr   0.000675  -0.144712   0.037226  -0.009668  -0.007274  -0.005379
     2  O    0.009000  -0.000583   0.010378  -0.000017  -0.000013  -0.000173
     3  O    0.265955   0.160898   0.147837  -0.000007  -0.000006  -0.000009
     4  O    0.010555  -0.000853   0.003471  -0.000009  -0.000057   0.000003
     5  O    0.002092   0.001334   0.000270   0.005536  -0.025198  -0.005118
     6  Si  -0.008016   0.009070  -0.012616   0.000097   0.000087   0.000063
     7  Si  -0.409936  -0.105201   0.022197  -0.000205   0.000057   0.000055
     8  Si  -0.016425   0.009708  -0.041108   0.000101   0.000060  -0.000086
     9  Si   0.001040   0.003287  -0.001995   0.048258   0.080096   0.037706
    10  O    0.000008   0.000003   0.000001  -0.006308   0.228816   0.007457
    11  O   -0.000001  -0.000003   0.000001  -0.005085  -0.005956   0.241592
    12  O   -0.000023  -0.000030   0.000028   0.219508   0.005840  -0.007372
    13  O    0.000189   0.000008  -0.000249  -0.000000   0.000000  -0.000000
    14  O   -0.000407  -0.000302   0.016243  -0.000000   0.000000   0.000000
    15  O    0.000140   0.000037  -0.000596   0.000000  -0.000000   0.000002
    16  O   -0.001526   0.000063  -0.000210   0.000000  -0.000000   0.000000
    17  O   -0.029871  -0.001021  -0.005622   0.000000   0.000000  -0.000000
    18  O    0.000173   0.000016   0.000474  -0.000000  -0.000000  -0.000000
    19  O    8.873682   0.031893   0.024028  -0.000000   0.000000  -0.000000
    20  O    0.031893   8.655531  -0.050516   0.000000   0.000000  -0.000000
    21  O    0.024028  -0.050516   8.486658  -0.000000   0.000000   0.000000
    22  H   -0.000000   0.000000  -0.000000   0.360674   0.000055   0.000122
    23  H    0.000000   0.000000   0.000000   0.000055   0.350989   0.000014
    24  H   -0.000000  -0.000000   0.000000   0.000122   0.000014   0.365257
    25  H   -0.000024   0.000000  -0.000019   0.000000   0.000000   0.000000
    26  H    0.000001  -0.000000   0.000039  -0.000000  -0.000000  -0.000000
    27  H    0.000016   0.000193  -0.004038  -0.000000  -0.000000   0.000000
    28  H    0.004621   0.229598  -0.002036  -0.000000   0.000000  -0.000000
    29  H   -0.008565   0.007676   0.206508   0.000000   0.000000  -0.000000
    30  H    0.224135  -0.001481  -0.007167   0.000000  -0.000000  -0.000000
    31  H    0.000004  -0.000000  -0.000000  -0.000000  -0.000000   0.000000
    32  H    0.000095   0.000000   0.000001  -0.000000  -0.000000  -0.000000
    33  H    0.014777  -0.000072   0.001459  -0.000000  -0.000000  -0.000000
              25         26         27         28         29         30
     1  Zr   0.016796   0.007601   0.006346   0.004976   0.004067   0.000736
     2  O   -0.020017   0.000632  -0.019249  -0.000011  -0.007058  -0.000012
     3  O   -0.000109   0.000014   0.000879  -0.018292  -0.020236   0.000077
     4  O   -0.000359  -0.000011  -0.001691  -0.000014  -0.000137  -0.000456
     5  O    0.000021  -0.000003   0.000014  -0.000015  -0.000070  -0.000008
     6  Si   0.002855  -0.000182   0.008155  -0.000288   0.000095  -0.000695
     7  Si  -0.000449  -0.000390   0.001032   0.056486   0.048205   0.040365
     8  Si   0.057431   0.045835   0.067645  -0.000065   0.021952   0.000124
     9  Si  -0.000202  -0.000049  -0.000025  -0.000139  -0.000064   0.000023
    10  O    0.000000  -0.000000   0.000000  -0.000000   0.000000  -0.000000
    11  O   -0.000000   0.000000  -0.000000  -0.000000   0.000000  -0.000000
    12  O   -0.000000  -0.000000  -0.000000  -0.000005  -0.000001   0.000000
    13  O    0.218354  -0.005157  -0.009740   0.000000   0.000793   0.000001
    14  O   -0.011918  -0.010094   0.219143  -0.000006   0.017602   0.000003
    15  O    0.008926   0.217047   0.004615  -0.000001  -0.002569   0.000000
    16  O   -0.000055   0.000000   0.000189  -0.000000  -0.000004   0.000116
    17  O    0.000625  -0.000003   0.017800   0.000004  -0.000390  -0.000381
    18  O    0.014867   0.000006  -0.000264  -0.000000   0.000006  -0.000008
    19  O   -0.000024   0.000001   0.000016   0.004621  -0.008565   0.224135
    20  O    0.000000  -0.000000   0.000193   0.229598   0.007676  -0.001481
    21  O   -0.000019   0.000039  -0.004038  -0.002036   0.206508  -0.007167
    22  H    0.000000  -0.000000  -0.000000  -0.000000   0.000000   0.000000
    23  H    0.000000  -0.000000  -0.000000   0.000000   0.000000  -0.000000
    24  H    0.000000  -0.000000   0.000000  -0.000000  -0.000000  -0.000000
    25  H    0.298936  -0.000012   0.000110   0.000000   0.000001   0.000000
    26  H   -0.000012   0.366088   0.000037   0.000000   0.000021  -0.000000
    27  H    0.000110   0.000037   0.283437  -0.000000  -0.001494   0.000009
    28  H    0.000000   0.000000  -0.000000   0.349262  -0.000017  -0.000016
    29  H    0.000001   0.000021  -0.001494  -0.000017   0.285899   0.000155
    30  H    0.000000  -0.000000   0.000009  -0.000016   0.000155   0.334300
    31  H   -0.000487   0.000000   0.000013  -0.000000   0.000000  -0.000000
    32  H   -0.000001   0.000000  -0.000000   0.000000  -0.000000  -0.000000
    33  H    0.000005  -0.000000  -0.002402  -0.000002   0.000102  -0.001157
              31         32         33
     1  Zr   0.000151   0.002096  -0.016296
     2  O    0.000170  -0.000025   0.001025
     3  O   -0.000020   0.000039  -0.010127
     4  O   -0.018429   0.010497  -0.009686
     5  O   -0.000009   0.000001  -0.000097
     6  Si   0.063638   0.022745   0.053594
     7  Si   0.000153  -0.000673   0.020659
     8  Si  -0.002054   0.000057   0.000132
     9  Si  -0.000052  -0.000003   0.000083
    10  O    0.000000  -0.000000  -0.000000
    11  O   -0.000000   0.000000   0.000000
    12  O    0.000000  -0.000000   0.000000
    13  O    0.002350  -0.000008   0.000234
    14  O    0.000167  -0.000006   0.002104
    15  O   -0.000018   0.000000  -0.000036
    16  O    0.003776   0.233467  -0.000136
    17  O   -0.000743  -0.003632   0.230978
    18  O    0.218057   0.003880   0.002103
    19  O    0.000004   0.000095   0.014777
    20  O   -0.000000   0.000000  -0.000072
    21  O   -0.000000   0.000001   0.001459
    22  H   -0.000000  -0.000000  -0.000000
    23  H   -0.000000  -0.000000  -0.000000
    24  H    0.000000  -0.000000  -0.000000
    25  H   -0.000487  -0.000001   0.000005
    26  H    0.000000   0.000000  -0.000000
    27  H    0.000013  -0.000000  -0.002402
    28  H   -0.000000   0.000000  -0.000002
    29  H    0.000000  -0.000000   0.000102
    30  H   -0.000000  -0.000000  -0.001157
    31  H    0.331398   0.000001  -0.000038
    32  H    0.000001   0.349977   0.000157
    33  H   -0.000038   0.000157   0.269263
 Mulliken charges:
               1
     1  Zr  -0.003195
     2  O   -0.552134
     3  O   -0.419346
     4  O   -0.678053
     5  O   -0.366704
     6  Si   2.230259
     7  Si   1.783546
     8  Si   2.018152
     9  Si   1.608678
    10  O   -0.847447
    11  O   -0.787122
    12  O   -0.789872
    13  O   -0.841975
    14  O   -0.880619
    15  O   -0.876532
    16  O   -0.734368
    17  O   -0.968137
    18  O   -1.081027
    19  O   -0.988285
    20  O   -0.804543
    21  O   -0.830647
    22  H    0.386949
    23  H    0.372488
    24  H    0.365865
    25  H    0.414724
    26  H    0.378582
    27  H    0.429270
    28  H    0.375959
    29  H    0.447522
    30  H    0.411334
    31  H    0.401973
    32  H    0.381333
    33  H    0.443372
 Sum of Mulliken charges =  -0.00000
 Mulliken charges with hydrogens summed into heavy atoms:
               1
     1  Zr  -0.003195
     2  O   -0.552134
     3  O   -0.419346
     4  O   -0.678053
     5  O   -0.366704
     6  Si   2.230259
     7  Si   1.783546
     8  Si   2.018152
     9  Si   1.608678
    10  O   -0.474958
    11  O   -0.421257
    12  O   -0.402923
    13  O   -0.427251
    14  O   -0.451349
    15  O   -0.497950
    16  O   -0.353035
    17  O   -0.524764
    18  O   -0.679054
    19  O   -0.576952
    20  O   -0.428584
    21  O   -0.383125
 Electronic spatial extent (au):  <R**2>=           9849.8105
 Charge=              0.0000 electrons
 Dipole moment (field-independent basis, Debye):
    X=              1.1070    Y=             -0.7481    Z=             -2.4015  Tot=              2.7482
 Quadrupole moment (field-independent basis, Debye-Ang):
   XX=           -160.2121   YY=           -154.4399   ZZ=           -157.7762
   XY=             -4.6192   XZ=              2.3551   YZ=              5.7705
 Traceless Quadrupole moment (field-independent basis, Debye-Ang):
   XX=             -2.7360   YY=              3.0362   ZZ=             -0.3002
   XY=             -4.6192   XZ=              2.3551   YZ=              5.7705
 Octapole moment (field-independent basis, Debye-Ang**2):
  XXX=             74.6525  YYY=              6.8985  ZZZ=            -18.6477  XYY=             -1.7822
  XXY=             19.3598  XXZ=             19.3030  XZZ=              5.4122  YZZ=            -17.3752
  YYZ=            -16.2407  XYZ=             27.4662
 Hexadecapole moment (field-independent basis, Debye-Ang**3):
 XXXX=          -6034.9195 YYYY=          -2828.0458 ZZZZ=          -2259.0425 XXXY=             56.5769
 XXXZ=            -33.9306 YYYX=              8.6155 YYYZ=            211.9183 ZZZX=           -184.2671
 ZZZY=            -51.8520 XXYY=          -1473.4739 XXZZ=          -1359.5517 YYZZ=           -922.4263
 XXYZ=             -1.8208 YYXZ=            137.9147 ZZXY=            -59.5503
 N-N= 2.834177026734D+03 E-N=-1.138097206526D+04  KE= 2.373156341180D+03
 PrsmSu:  requested number of processors reduced to:   2 ShMem   1 Linda.
 PrsmSu:  requested number of processors reduced to:  10 ShMem   1 Linda.
   1 Symmetry operations used in ECPInt.
 ECPInt:  NShTT=   13203 NPrTT=   78401 LenC2=   11528 LenP2D=   44662.
 LDataN:  DoStor=T MaxTD1= 9 Len=  602
 Number of processors reduced to  14 by ecpmxn.
 Calling FoFJK, ICntrl=      2127 FMM=F ISym2X=0 I1Cent= 0 IOpClX= 0 NMat=1 NMatS=1 NMatT=0.
 CoulSu:  requested number of processors reduced to:  10 ShMem   1 Linda.
 Defaulting to unpruned grid for atomic number  40.
 Defaulting to unpruned grid for atomic number  40.
 Defaulting to unpruned grid for atomic number  40.
 Defaulting to unpruned grid for atomic number  40.
 Defaulting to unpruned grid for atomic number  40.
 Defaulting to unpruned grid for atomic number  40.
 Defaulting to unpruned grid for atomic number  40.
 Defaulting to unpruned grid for atomic number  40.
 Defaulting to unpruned grid for atomic number  40.
 Defaulting to unpruned grid for atomic number  40.
 Defaulting to unpruned grid for atomic number  40.
 Defaulting to unpruned grid for atomic number  40.
 Defaulting to unpruned grid for atomic number  40.
 Defaulting to unpruned grid for atomic number  40.
 Defaulting to unpruned grid for atomic number  40.
 Defaulting to unpruned grid for atomic number  40.
 ***** Axes restored to original set *****
 -------------------------------------------------------------------
 Center     Atomic                   Forces (Hartrees/Bohr)
 Number     Number              X              Y              Z
 -------------------------------------------------------------------
      1       40          -0.000384213    0.000095968    0.000010607
      2        8          -0.000017392   -0.000006628    0.000035865
      3        8          -0.000005832   -0.000081223   -0.000004966
      4        8          -0.000011674   -0.000009223   -0.000035620
      5        8           0.000246321    0.000177109    0.000043624
      6       14           0.000015177    0.000011490    0.000022364
      7       14           0.000033403   -0.000029333    0.000009682
      8       14           0.000038391   -0.000004056   -0.000021287
      9       14           0.000187752   -0.000410286   -0.000110855
     10        8           0.000007928    0.000067981    0.000030729
     11        8           0.000004897    0.000068685    0.000002376
     12        8          -0.000021616    0.000090343    0.000041467
     13        8          -0.000015152    0.000000778    0.000005641
     14        8          -0.000023338    0.000019217    0.000002678
     15        8          -0.000009630    0.000000583    0.000004332
     16        8          -0.000003165   -0.000000103   -0.000010891
     17        8          -0.000000564    0.000000349   -0.000008830
     18        8          -0.000016530    0.000003082   -0.000000240
     19        8          -0.000005317    0.000008733   -0.000006014
     20        8          -0.000004456    0.000014964   -0.000001439
     21        8          -0.000011138    0.000007206   -0.000002957
     22        1          -0.000004520    0.000028200    0.000015049
     23        1          -0.000015963   -0.000017975   -0.000008550
     24        1          -0.000016816   -0.000011267   -0.000012063
     25        1           0.000004930   -0.000003156   -0.000001046
     26        1           0.000001785    0.000003014   -0.000000266
     27        1           0.000000958   -0.000004794   -0.000000028
     28        1           0.000005720   -0.000008906   -0.000000689
     29        1           0.000022740   -0.000007340   -0.000005033
     30        1           0.000001928    0.000000313    0.000001978
     31        1           0.000007992   -0.000002040   -0.000001221
     32        1          -0.000003240   -0.000000674    0.000005169
     33        1          -0.000009364   -0.000001009    0.000000434
 -------------------------------------------------------------------
 Cartesian Forces:  Max     0.000410286 RMS     0.000071614

 GradGradGradGradGradGradGradGradGradGradGradGradGradGradGradGradGradGrad
 Berny optimization.
 FormGI is forming the generalized inverse of G from B-inverse, IUseBI=4.
 Internal  Forces:  Max     0.000382377 RMS     0.000049705
 Search for a local minimum.
 Step number   1 out of a maximum of  148
 All quantities printed in internal units (Hartrees-Bohrs-Radians)
 Mixed Optimization -- En-DIIS/RFO-DIIS
 Second derivative matrix not updated -- first step.
 ITU=  0
     Eigenvalues ---    0.00230   0.00230   0.00230   0.00230   0.03240
     Eigenvalues ---    0.03358   0.03498   0.03580   0.03665   0.03665
     Eigenvalues ---    0.03680   0.03686   0.03693   0.03739   0.03789
     Eigenvalues ---    0.03792   0.03816   0.03834   0.03850   0.03857
     Eigenvalues ---    0.08405   0.09407   0.11077   0.11224   0.11819
     Eigenvalues ---    0.11833   0.11884   0.12136   0.12177   0.12239
     Eigenvalues ---    0.12563   0.12783   0.12895   0.13099   0.13313
     Eigenvalues ---    0.16000   0.16000   0.16000   0.16000   0.16000
     Eigenvalues ---    0.16000   0.16000   0.16000   0.16000   0.16000
     Eigenvalues ---    0.16000   0.16000   0.19173   0.19893   0.20028
     Eigenvalues ---    0.20179   0.20203   0.20204   0.20208   0.20515
     Eigenvalues ---    0.20653   0.20795   0.20989   0.21175   0.21186
     Eigenvalues ---    0.21263   0.25000   0.25000   0.25000   0.38002
     Eigenvalues ---    0.39187   0.40659   0.41547   0.42502   0.42509
     Eigenvalues ---    0.42671   0.42743   0.42824   0.43363   0.43951
     Eigenvalues ---    0.43980   0.44273   0.44485   0.44689   0.44768
     Eigenvalues ---    0.50655   0.51353   0.52036   0.52548   0.54334
     Eigenvalues ---    0.54624   0.54643   0.54649   0.54689   0.54693
     Eigenvalues ---    0.54711   0.547651000.000001000.000001000.00000
     Eigenvalues --- 1000.000001000.000001000.000001000.000001000.00000
     Eigenvalues --- 1000.000001000.000001000.000001000.000001000.00000
     Eigenvalues --- 1000.000001000.000001000.000001000.000001000.00000
     Eigenvalues --- 1000.000001000.000001000.000001000.000001000.00000
     Eigenvalues --- 1000.000001000.000001000.000001000.000001000.00000
     Eigenvalues --- 1000.000001000.000001000.000001000.000001000.00000
     Eigenvalues --- 1000.000001000.000001000.000001000.000001000.00000
     Eigenvalues --- 1000.000001000.000001000.000001000.000001000.00000
     Eigenvalues --- 1000.000001000.000001000.00000
 RFO step:  Lambda=-2.64533709D-06 EMin= 2.30000000D-03
 Linear search not attempted -- first point.
 Iteration  1 RMS(Cart)=  0.01022235 RMS(Int)=  0.00003827
 Iteration  2 RMS(Cart)=  0.00006109 RMS(Int)=  0.00000002
 Iteration  3 RMS(Cart)=  0.00000000 RMS(Int)=  0.00000002
 Iteration  1 RMS(Cart)=  0.00000000 RMS(Int)=  0.00000000
 Variable       Old X    -DE/DX   Delta X   Delta X   Delta X     New X
                                 (Linear)    (Quad)   (Total)
    R1        3.67647   0.00003   0.00000   0.00013   0.00013   3.67660
    R2        3.69189  -0.00010   0.00000  -0.00050  -0.00050   3.69139
    R3        3.73835   0.00003   0.00000   0.00017   0.00017   3.73852
    R4        3.70232   0.00038   0.00000   0.00189   0.00189   3.70421
    R5        3.11688  -0.00001   0.00000  -0.00001  -0.00001   3.11686
    R6        3.09579  -0.00004   0.00000  -0.00008  -0.00008   3.09571
    R7        3.10213   0.00000   0.00000   0.00000   0.00000   3.10214
    R8        3.09246   0.00011   0.00000   0.00025   0.00025   3.09272
    R9        3.11587   0.00001   0.00000   0.00001   0.00001   3.11589
   R10        3.11989   0.00000   0.00000   0.00000   0.00000   3.11989
   R11        3.14367   0.00000   0.00000   0.00001   0.00001   3.14368
   R12        3.18062   0.00001   0.00000   0.00001   0.00001   3.18064
   R13        3.10924   0.00000   0.00000   0.00001   0.00001   3.10925
   R14        3.09339  -0.00001   0.00000  -0.00003  -0.00003   3.09336
   R15        3.10179   0.00001   0.00000   0.00001   0.00001   3.10180
   R16        3.16373   0.00002   0.00000   0.00005   0.00005   3.16379
   R17        3.09830   0.00000   0.00000   0.00001   0.00001   3.09831
   R18        3.11980  -0.00002   0.00000  -0.00004  -0.00004   3.11976
   R19        3.13204  -0.00006   0.00000  -0.00014  -0.00014   3.13190
   R20        3.11778   0.00013   0.00000   0.00031   0.00031   3.11809
   R21        1.82151   0.00001   0.00000   0.00002   0.00002   1.82152
   R22        1.82106   0.00000   0.00000   0.00000   0.00000   1.82106
   R23        1.82090   0.00001   0.00000   0.00002   0.00002   1.82091
   R24        1.84078   0.00000   0.00000   0.00000   0.00000   1.84078
   R25        1.84565   0.00000   0.00000   0.00000   0.00000   1.84565
   R26        1.82041  -0.00000   0.00000  -0.00000  -0.00000   1.82041
   R27        1.82109  -0.00001   0.00000  -0.00001  -0.00001   1.82108
   R28        1.85910  -0.00000   0.00000  -0.00001  -0.00001   1.85910
   R29        1.82145   0.00000   0.00000   0.00001   0.00001   1.82146
   R30        1.82428  -0.00000   0.00000  -0.00000  -0.00000   1.82428
   R31        1.82168  -0.00001   0.00000  -0.00001  -0.00001   1.82167
   R32        1.85224  -0.00000   0.00000  -0.00000  -0.00000   1.85224
    A1        1.85172  -0.00002   0.00000  -0.00009  -0.00009   1.85163
    A2        1.80155   0.00001   0.00000   0.00006   0.00006   1.80162
    A3        1.96889   0.00001   0.00000   0.00008   0.00008   1.96897
    A4        1.83430  -0.00000   0.00000  -0.00005  -0.00005   1.83425
    A5        2.01802   0.00002   0.00000   0.00009   0.00009   2.01811
    A6        1.97057  -0.00002   0.00000  -0.00010  -0.00010   1.97047
    A7        2.46524  -0.00001   0.00000  -0.00006  -0.00006   2.46518
    A8        2.58826  -0.00002   0.00000  -0.00008  -0.00008   2.58817
    A9        2.35483   0.00002   0.00000   0.00008   0.00008   2.35491
   A10        2.82744   0.00031   0.00000   0.00000   0.00000   2.82744
   A11        1.91978  -0.00001   0.00000  -0.00003  -0.00003   1.91975
   A12        1.91546   0.00003   0.00000   0.00016   0.00016   1.91563
   A13        1.95201  -0.00000   0.00000  -0.00002  -0.00002   1.95199
   A14        2.00708  -0.00001   0.00000  -0.00005  -0.00005   2.00703
   A15        1.88610  -0.00000   0.00000  -0.00004  -0.00004   1.88606
   A16        1.78001  -0.00001   0.00000  -0.00002  -0.00002   1.77998
   A17        1.80238   0.00001   0.00000   0.00007   0.00007   1.80245
   A18        1.99614   0.00001   0.00000   0.00008   0.00008   1.99623
[...]
   D35       -0.72543   0.00033   0.00000   0.00044   0.00044  -0.72499
   D36        1.33593   0.00283   0.00000   0.00382   0.00382   1.33975
   D37       -1.71456   0.00099   0.00000   0.00134   0.00134  -1.71321
   D38        2.59079   0.00055   0.00000   0.00074   0.00073   2.59153
   D39        0.47414  -0.00123   0.00000  -0.00166  -0.00166   0.47247
   D40       -0.86653   0.00345   0.00000   0.00465   0.00465  -0.86189
   D41        1.16223  -0.00241   0.00000  -0.00325  -0.00324   1.15899
   D42       -3.07773   0.00176   0.00000   0.00238   0.00238  -3.07535
   D43       -1.02636   0.00349   0.00000   0.00471   0.00471  -1.02165
   D44        1.07016  -0.00263   0.00000  -0.00355  -0.00355   1.06661
   D45       -3.11233   0.00030   0.00000   0.00040   0.00040  -3.11193
   D46        1.40952  -0.00183   0.00000  -0.00247  -0.00246   1.40706
   D47       -0.72342   0.00219   0.00000   0.00296   0.00296  -0.72046
   D48       -2.84472   0.00015   0.00000   0.00020   0.00019  -2.84453
   D49       -3.03945  -0.00120   0.00000  -0.00163  -0.00162  -3.04108
   D50       -0.91108  -0.00048   0.00000  -0.00065  -0.00064  -0.91172
   D51        1.20837   0.00159   0.00000   0.00215   0.00214   1.21052
   D52       -1.65468   0.00006   0.00000   0.00008   0.00008  -1.65460
   D53        0.45386  -0.00001   0.00000  -0.00001  -0.00001   0.45385
   D54        2.59604   0.00000   0.00000   0.00000   0.00000   2.59604
   D55       -0.76161   0.00001   0.00000   0.00001   0.00001  -0.76160
   D56       -2.91034   0.00003   0.00000   0.00005   0.00005  -2.91029
   D57        1.29828   0.00002   0.00000   0.00002   0.00002   1.29830
   D58       -2.90530  -0.00002   0.00000  -0.00002  -0.00002  -2.90533
   D59       -0.77615   0.00001   0.00000   0.00001   0.00001  -0.77614
   D60        1.26662   0.00003   0.00000   0.00005   0.00005   1.26667
         Item               Value     Threshold  Converged?
 Maximum Force            0.037068     0.000450     NO 
 RMS     Force            0.006573     0.000300     NO 
 Maximum Displacement     0.345889     0.001800     NO 
 RMS     Displacement     0.123478     0.001200     NO 
 Predicted change in Energy=-8.423586D-04
 GradGradGradGradGradGradGradGradGradGradGradGradGradGradGradGradGradGrad

                          Input orientation:                          
 ---------------------------------------------------------------------
 Center     Atomic      Atomic             Coordinates (Angstroms)
 Number     Number       Type             X           Y           Z
 ---------------------------------------------------------------------
      1         40           0        0.664383   -0.129320   -0.065278
      2          8           0       -0.220169   -0.909173    1.480032
      3          8           0        0.104133    1.738901   -0.116850
      4          8           0       -0.262708   -0.982415   -1.586089
      5          8           0        2.599379   -0.439643   -0.075760
      6         14           0       -1.828994   -1.321505   -1.935681
      7         14           0       -1.120252    2.824288   -0.077888
      8         14           0       -1.728440   -1.148333    2.097287
      9         14           0        4.215014   -0.198071    0.022477
     10          8           0        4.954863   -0.036246   -1.444487
     11          8           0        4.947233   -1.501171    0.738207
     12          8           0        4.385958    1.218098    0.852045
     13          8           0       -2.326645   -2.616950    1.668255
     14          8           0       -2.713491    0.077448    1.520938
     15          8           0       -1.624439   -1.019731    3.728410
     16          8           0       -2.009815   -1.543398   -3.559974
     17          8           0       -2.806444   -0.165050   -1.275776
     18          8           0       -2.349743   -2.698905   -1.163518
     19          8           0       -2.039182    2.415493   -1.425484
     20          8           0       -0.652746    4.387833   -0.289085
     21          8           0       -1.969002    2.733662    1.321254
     22          1           0        5.257199    1.629414    0.837033
     23          1           0        5.336632   -0.840742   -1.813507
     24          1           0        4.521986   -1.874570    1.518207
     25          1           0       -2.403686   -2.802617    0.716211
     26          1           0       -2.417020   -1.220630    4.237841
     27          1           0       -3.042920   -0.067245    0.614841
     28          1           0       -0.547370    4.912266    0.512936
     29          1           0       -2.258657    1.840540    1.595924
     30          1           0       -2.654321    3.096012   -1.725303
     31          1           0       -2.321000   -3.513232   -1.678018
     32          1           0       -1.279239   -1.253349   -4.117420
     33          1           0       -2.584906    0.771520   -1.466227
 ---------------------------------------------------------------------
                    Distance matrix (angstroms):
                    1          2          3          4          5
     1  Zr   0.000000
     2  O    1.943858   0.000000
     3  O    1.951100   3.109260   0.000000
     4  O    1.974876   3.067290   3.114289   0.000000
     5  O    1.959751   3.254351   3.312702   3.281347   0.000000
     6  Si   3.337161   3.798082   4.051075   1.640259   4.883388
     7  Si   3.450925   4.144393   1.636674   4.183424   4.948627
     8  Si   3.382406   1.647143   4.073923   3.967764   4.894322
     9  Si   3.552381   4.722391   4.546495   4.822102   1.636546
    10  O    4.507671   6.007975   5.333230   5.304558   2.753987
    11  O    4.568409   5.253838   5.889380   5.728432   2.702184
    12  O    4.062898   5.112343   4.420861   5.691822   2.607832
    13  O    4.259071   2.718303   5.297992   4.185964   5.661093
    14  O    3.737494   2.681743   3.658112   4.096738   5.571662
    15  O    4.519248   2.653187   5.038258   5.486310   5.713917
    16  O    4.622105   5.385790   5.205513   2.695053   5.882406
    17  O    3.676034   3.851884   3.666006   2.689791   5.544220
    18  O    4.110213   3.837523   5.177948   2.735073   5.548090
    19  O    3.954175   4.775378   2.600788   3.837634   5.611579
    20  O    4.710582   5.601354   2.760320   5.538403   5.824633
    21  O    4.129631   4.043992   2.712118   5.017300   5.735122
    22  H    5.000127   6.071197   5.241753   6.569820   3.489727
    23  H    5.039081   6.459885   6.075544   5.605746   3.266985
    24  H    4.520445   4.839575   5.937004   5.772858   2.880306
    25  H    4.143704   2.989364   5.254382   3.632837   5.589411
    26  H    5.403965   3.539587   5.837669   6.214175   6.661934
    27  H    3.769683   3.070069   3.701551   3.662132   5.696592
    28  H    5.217304   5.910286   3.300201   6.263720   6.236307
    29  H    3.896678   3.424877   2.920052   4.698733   5.620879
    30  H    4.916527   5.678095   3.469573   4.729985   6.543945
    31  H    4.792109   4.600858   5.991947   3.263442   6.018664
    32  H    4.632598   5.707149   5.183805   2.741237   5.660461
    33  H    3.651307   4.134869   3.160312   2.912603   5.502465
                    6          7          8          9         10
     6  Si   0.000000
     7  Si   4.597968   0.000000
     8  Si   4.037936   4.569791   0.000000
     9  Si   6.451862   6.132682   6.366512   0.000000
    10  O    6.921985   6.852537   7.645092   1.650923   0.000000
    11  O    7.286920   7.495997   6.821744   1.657251   2.628728
    12  O    7.269568   5.810591   6.673566   1.650133   2.677889
    13  O    3.861890   5.840502   1.642788   7.166091   8.328839
    14  O    3.832443   3.555247   1.674826   7.094045   8.222550
    15  O    5.675812   5.433102   1.639487   6.964788   8.426940
    16  O    1.649321   5.656229   5.678015   7.307008   7.433272
    17  O    1.651748   3.635150   3.675118   7.140548   7.764209
    18  O    1.662723   5.761589   3.663760   7.124380   7.779844
    19  O    3.777517   1.681535   5.020690   6.931254   7.411346
    20  O    6.057340   1.645551   6.123807   6.694974   7.235516
    21  O    5.203038   1.638959   3.966104   6.965912   7.953717
    22  H    8.161495   6.552609   7.622550   2.255959   2.840979
    23  H    7.182775   7.624707   8.081098   2.245415   0.963917
    24  H    7.250530   7.514096   6.319065   2.267617   3.513456
    25  H    3.091358   5.825792   2.258314   7.146475   8.152892
    26  H    6.202284   6.055451   2.249743   7.924569   9.382765
    27  H    3.090623   3.540831   2.257046   7.283242   8.258712
    28  H    6.818957   2.244308   6.374633   7.002599   7.654661
    29  H    4.759766   2.250639   3.076663   6.967072   8.049925
    30  H    4.498875   2.267416   5.786528   7.816232   8.233442
    31  H    2.261002   6.645779   4.494086   7.523394   8.067351
    32  H    2.250968   5.741969   6.231804   6.959826   6.891294
    33  H    2.274322   2.878637   4.137390   7.028176   7.582946
                   11         12         13         14         15
    11  O    0.000000
    12  O    2.778923   0.000000
    13  O    7.417496   7.773856   0.000000
    14  O    7.860750   7.221542   2.726010   0.000000
    15  O    7.236019   7.028956   2.699711   2.694953   0.000000
    16  O    8.177815   8.246071   5.346707   5.379403   7.317328
    17  O    8.121629   7.627015   3.861262   2.808747   5.212437
    18  O    7.635246   8.048296   2.833053   3.879015   5.222705
    19  O    8.296494   6.921222   5.914333   3.821328   6.207689
    20  O    8.191181   6.061182   7.463250   5.109038   6.806335
    21  O    8.130686   6.550008   5.373766   2.765793   4.472257
    22  H    3.147444   0.963570   8.731394   8.149124   7.920541
    23  H    2.664402   3.499681   8.602522   8.761625   8.899515
    24  H    0.963672   3.166524   6.890384   7.494165   6.587434
    25  H    7.465269   7.892012   0.973034   3.006383   3.585980
    26  H    8.158331   7.980697   2.925859   3.025635   0.963362
    27  H    8.118738   7.542984   2.850215   0.974922   3.551568
    28  H    8.448288   6.172487   7.822382   5.392922   6.832857
    29  H    7.989215   6.715035   4.458595   1.822358   3.623656
    30  H    9.218816   7.728829   6.652934   4.433205   6.909629
    31  H    7.919201   8.588946   3.464231   4.824972   5.994348
    32  H    7.899840   7.930831   6.035768   5.968180   7.856894
    33  H    8.170542   7.359806   4.623138   3.069434   5.578111
                   16         17         18         19         20
    16  O    0.000000
    17  O    2.784245   0.000000
    18  O    2.682117   2.577131   0.000000
    19  O    4.497747   2.696350   5.130512   0.000000
    20  O    6.907956   5.132321   7.339366   2.665283   0.000000
    21  O    6.490092   3.981005   5.985970   2.765994   2.657443
    22  H    9.066968   8.526805   8.977869   7.679459   6.618494
    23  H    7.583809   8.188736   7.934457   8.071943   8.095338
    24  H    8.280219   8.027122   7.422388   8.373702   8.322370
    25  H    4.475100   3.329713   1.883360   5.652291   7.468532
    26  H    7.815109   5.627244   5.600402   6.740727   7.420282
    27  H    4.547023   1.907857   3.250953   3.366660   5.135925
    28  H    7.771932   5.837982   7.999311   3.495260   0.964039
    29  H    6.172216   3.545296   5.313133   3.083447   3.552592
    30  H    5.030460   3.295411   5.830046   0.965086   2.781695
    31  H    2.742051   3.407019   0.963673   5.940790   8.193842
    32  H    0.963647   3.404657   3.458489   4.613506   6.846281
    33  H    3.173855   0.981078   3.491531   1.732663   4.265750
                   21         22         23         24         25
    21  O    0.000000
    22  H    7.326105   0.000000
    23  H    8.716385   3.623995   0.000000
    24  H    7.962884   3.644508   3.582285   0.000000
    25  H    5.586180   8.851364   8.376212   7.033448   0.000000
    26  H    4.933926   8.864643   9.842878   7.481568   3.860666
    27  H    3.081785   8.474668   8.758542   7.830090   2.810900
    28  H    2.724102   6.676465   8.551661   8.530538   7.937672
    29  H    0.978269   7.557023   8.746537   7.732090   4.727984
    30  H    3.143639   8.444443   8.908486   9.312702   6.388867
    31  H    6.938532   9.497442   8.111713   7.728359   2.498828
    32  H    6.778731   8.693788   7.017692   8.111746   5.198903
    33  H    3.464013   8.218248   8.091399   8.149635   4.191697
                   26         27         28         29         30
    26  H    0.000000
    27  H    3.853334   0.000000
    28  H    7.415047   5.570788   0.000000
    29  H    4.046674   2.284127   3.679248   0.000000
    30  H    7.365378   3.953918   3.570396   3.572577   0.000000
    31  H    6.345285   4.201572   8.884540   6.275784   6.617813
    32  H    8.432438   5.187649   7.745361   6.570670   5.150729
    33  H    6.044273   2.290010   5.021395   3.259756   2.339914
                   31         32         33
    31  H    0.000000
    32  H    3.484684   0.000000
    33  H    4.298093   3.582413   0.000000
 Stoichiometry    H12O16Si4Zr
 Framework group  C1[X(H12O16Si4Zr)]
 Deg. of freedom    93
 Full point group                 C1      NOp   1
 Largest Abelian subgroup         C1      NOp   1
 Largest concise Abelian subgroup C1      NOp   1
                         Standard orientation:                         
 ---------------------------------------------------------------------
 Center     Atomic      Atomic             Coordinates (Angstroms)
 Number     Number       Type             X           Y           Z
 ---------------------------------------------------------------------
      1         40           0        0.662465   -0.153067   -0.070828
      2          8           0       -0.233219   -0.919017    1.475022
      3          8           0        0.133870    1.724413   -0.120291
      4          8           0       -0.280854   -0.989170   -1.591095
      5          8           0        2.591915   -0.496104   -0.084004
      6         14           0       -1.853098   -1.301419   -1.938948
      7         14           0       -1.071909    2.830347   -0.078959
      8         14           0       -1.744545   -1.133077    2.094017
      9         14           0        4.211531   -0.282002    0.012357
     10          8           0        4.952166   -0.131600   -1.455426
     11          8           0        4.922478   -1.597864    0.726179
     12          8           0        4.407478    1.130431    0.842765
     13          8           0       -2.368075   -2.591022    1.664649
     14          8           0       -2.709421    0.109652    1.519840
     15          8           0       -1.636326   -1.007509    3.725103
     16          8           0       -2.039697   -1.518969   -3.563175
     17          8           0       -2.809991   -0.129085   -1.276935
     18          8           0       -2.396125   -2.670397   -1.167153
     19          8           0       -1.999327    2.438209   -1.425689
     20          8           0       -0.578257    4.385913   -0.289581
     21          8           0       -1.920309    2.753031    1.321194
     22          1           0        5.285540    1.526946    0.826952
     23          1           0        5.319790   -0.942161   -1.825533
     24          1           0        4.491952   -1.964608    1.506441
     25          1           0       -2.449448   -2.774626    0.712565
     26          1           0       -2.431554   -1.195350    4.235392
     27          1           0       -3.042395   -0.028744    0.614054
     28          1           0       -0.463006    4.907870    0.512697
     29          1           0       -2.224701    1.864731    1.595565
     30          1           0       -2.603230    3.129277   -1.724216
     31          1           0       -2.381825   -3.484698   -1.682298
     32          1           0       -1.305016   -1.240904   -4.121332
     33          1           0       -2.572864    0.803745   -1.466967
 ---------------------------------------------------------------------
 Rotational constants (GHZ):           0.2151992           0.1342821           0.1245383
 Basis read from rwf:  (5D, 7F)
 Pseudo-potential data read from rwf file.
 There are   570 symmetry adapted cartesian basis functions of A   symmetry.
 There are   524 symmetry adapted basis functions of A   symmetry.
   524 basis functions,  1074 primitive gaussians,   570 cartesian basis functions
   104 alpha electrons      104 beta electrons
       nuclear repulsion energy      2841.4316817899 Hartrees.
 NAtoms=   33 NActive=   33 NUniq=   33 SFac= 1.00D+00 NAtFMM=   60 NAOKFM=F Big=F
 Integral buffers will be    131072 words long.
 Raffenetti 2 integral format.
 Two-electron integral symmetry is turned on.
 Nuclear repulsion after empirical dispersion term =     2841.3905458902 Hartrees.
 One-electron integrals computed using PRISM.
 PrsmSu:  requested number of processors reduced to:   4 ShMem   1 Linda.
   1 Symmetry operations used in ECPInt.
 ECPInt:  NShTT=   13203 NPrTT=   78401 LenC2=   11528 LenP2D=   44714.
 LDataN:  DoStor=T MaxTD1= 8 Len=  415
 Number of processors reduced to  13 by ecpmxn.
 NBasis=   524 RedAO= T EigKep=  3.07D-05  NBF=   524
 NBsUse=   524 1.00D-06 EigRej= -1.00D+00 NBFU=   524
 Defaulting to unpruned grid for atomic number  40.
 Initial guess from the checkpoint file:  "/localscratch/sarashs.37148542.0/Gau-17949.chk"
 B after Tr=     0.000000   -0.000000    0.000000
         Rot=    0.999966    0.000970    0.001166   -0.008129 Ang=   0.95 deg.
 ExpMin= 1.01D-02 ExpMax= 1.61D+04 ExpMxC= 2.43D+03 IAcc=3 IRadAn=         5 AccDes= 0.00D+00
 Harris functional with IExCor=  402 and IRadAn=       5 diagonalized for initial guess.
 HarFok:  IExCor=  402 AccDes= 0.00D+00 IRadAn=         5 IDoV= 1 UseB2=F ITyADJ=14
 ICtDFT=  3500011 ScaDFX=  1.000000  1.000000  1.000000  1.000000
 Defaulting to unpruned grid for atomic number  40.
 FoFCou: FMM=F IPFlag=           0 FMFlag=      100000 FMFlg1=           0
         NFxFlg=           0 DoJE=T BraDBF=F KetDBF=T FulRan=T
         wScrn=  0.000000 ICntrl=       500 IOpCl=  0 I1Cent=   200000004 NGrid=           0
         NMat0=    1 NMatS0=      1 NMatT0=    0 NMatD0=    1 NMtDS0=    0 NMtDT0=    0
 Petite list used in FoFCou.
 Requested convergence on RMS density matrix=1.00D-08 within 128 cycles.
 Requested convergence on MAX density matrix=1.00D-06.
 Requested convergence on             energy=1.00D-06.
 No special actions if energy rises.
 Defaulting to unpruned grid for atomic number  40.
 Defaulting to unpruned grid for atomic number  40.
 Defaulting to unpruned grid for atomic number  40.
 Defaulting to unpruned grid for atomic number  40.
 Defaulting to unpruned grid for atomic number  40.
 Defaulting to unpruned grid for atomic number  40.
 Defaulting to unpruned grid for atomic number  40.
 Defaulting to unpruned grid for atomic number  40.
 Defaulting to unpruned grid for atomic number  40.
 Defaulting to unpruned grid for atomic number  40.
 Defaulting to unpruned grid for atomic number  40.
 Defaulting to unpruned grid for atomic number  40.
 Defaulting to unpruned grid for atomic number  40.
 Defaulting to unpruned grid for atomic number  40.
 Defaulting to unpruned grid for atomic number  40.
 Defaulting to unpruned grid for atomic number  40.
 SCF Done:  E(RB3LYP) =  -2416.94650831     A.U. after   11 cycles
            NFock= 11  Conv=0.46D-08     -V/T= 2.0184
 PrsmSu:  requested number of processors reduced to:   2 ShMem   1 Linda.
 PrsmSu:  requested number of processors reduced to:  10 ShMem   1 Linda.
   1 Symmetry operations used in ECPInt.
 ECPInt:  NShTT=   13203 NPrTT=   78401 LenC2=   11528 LenP2D=   44714.
 LDataN:  DoStor=T MaxTD1= 9 Len=  602
 Number of processors reduced to  14 by ecpmxn.
 Calling FoFJK, ICntrl=      2127 FMM=F ISym2X=0 I1Cent= 0 IOpClX= 0 NMat=1 NMatS=1 NMatT=0.
 CoulSu:  requested number of processors reduced to:  10 ShMem   1 Linda.
