 Entering Gaussian System, Link 0=g16
 Initial command:
 /opt/software/gaussian/g16.b01/l1.exe "/localscratch/sarashs.37192507.0/Gau-4769.inp" -scrdir="/localscratch/sarashs.37192507.0/"
 Entering Link 1 = /opt/software/gaussian/g16.b01/l1.exe PID=      4773.
  
 Copyright (c) 1988-2017, Gaussian, Inc.  All Rights Reserved.
  
 This is part of the Gaussian(R) 16 program.  It is based on
 the Gaussian(R) 09 system (copyright 2009, Gaussian, Inc.),
 the Gaussian(R) 03 system (copyright 2003, Gaussian, Inc.),
 the Gaussian(R) 98 system (copyright 1998, Gaussian, Inc.),
 the Gaussian(R) 94 system (copyright 1995, Gaussian, Inc.),
 the Gaussian 92(TM) system (copyright 1992, Gaussian, Inc.),
 the Gaussian 90(TM) system (copyright 1990, Gaussian, Inc.),
 the Gaussian 88(TM) system (copyright 1988, Gaussian, Inc.),
 the Gaussian 86(TM) system (copyright 1986, Carnegie Mellon
 University), and the Gaussian 82(TM) system (copyright 1983,
 Carnegie Mellon University). Gaussian is a federally registered
 trademark of Gaussian, Inc.
  
 This software contains proprietary and confidential information,
 including trade secrets, belonging to Gaussian, Inc.
  
 This software is provided under written license and may be
 used, copied, transmitted, or stored only in accord with that
 written license.
  
 The following legend is applicable only to US Government
 contracts under FAR:
  
                    RESTRICTED RIGHTS LEGEND
  
 Use, reproduction and disclosure by the US Government is
 subject to restrictions as set forth in subparagraphs (a)
 and (c) of the Commercial Computer Software - Restricted
 Rights clause in FAR 52.227-19.
  
 Gaussian, Inc.
 340 Quinnipiac St., Bldg. 40, Wallingford CT 06492
  
  
 ---------------------------------------------------------------
 Warning -- This program may not be used in any manner that
 competes with the business of Gaussian, Inc. or will provide
 assistance to any competitor of Gaussian, Inc.  The licensee
 of this program is prohibited from giving any competitor of
 Gaussian, Inc. access to this program.  By using this program,
 the user acknowledges that Gaussian, Inc. is engaged in the
 business of creating and licensing software in the field of
 computational chemistry and represents and warrants to the
 licensee that it is not a competitor of Gaussian, Inc. and that
 it will not use this program in any manner prohibited above.
 ---------------------------------------------------------------
  

 Cite this work as:
 Gaussian 16, Revision B.01,
 M. J. Frisch, G. W. Trucks, H. B. Schlegel, G. E. Scuseria, 
 M. A. Robb, J. R. Cheeseman, G. Scalmani, V. Barone, 
 G. A. Petersson, H. Nakatsuji, X. Li, M. Caricato, A. V. Marenich, 
 J. Bloino, B. G. Janesko, R. Gomperts, B. Mennucci, H. P. Hratchian, 
 J. V. Ortiz, A. F. Izmaylov, J. L. Sonnenberg, D. Williams-Young, 
 F. Ding, F. Lipparini, F. Egidi, J. Goings, B. Peng, A. Petrone, 
 T. Henderson, D. Ranasinghe, V. G. Zakrzewski, J. Gao, N. Rega, 
 G. Zheng, W. Liang, M. Hada, M. Ehara, K. Toyota, R. Fukuda, 
 J. Hasegawa, M. Ishida, T. Nakajima, Y. Honda, O. Kitao, H. Nakai, 
 T. Vreven, K. Throssell, J. A. Montgomery, Jr., J. E. Peralta, 
 F. Ogliaro, M. J. Bearpark, J. J. Heyd, E. N. Brothers, K. N. Kudin, 
 V. N. Staroverov, T. A. Keith, R. Kobayashi, J. Normand, 
 K. Raghavachari, A. P. Rendell, J. C. Burant, S. S. Iyengar, 
 J. Tomasi, M. Cossi, J. M. Millam, M. Klene, C. Adamo, R. Cammi, 
 J. W. Ochterski, R. L. Martin, K. Morokuma, O. Farkas, 
 J. B. Foresman, and D. J. Fox, Gaussian, Inc., Wallingford CT, 2016.
 
 ******************************************
 Gaussian 16:  ES64L-G16RevB.01 20-Dec-2017
                12-Aug-2020 
 ******************************************
 %NProcShared=16
 Will use up to   16 processors via shared memory.
 ------------------------------------------------------------------
 #n B3LYP/Gen Pseudo=cards EmpiricalDispersion=GD3 Opt=modredundant
 ------------------------------------------------------------------
 1/18=120,19=15,26=3,38=1/1,3;
 2/9=110,12=2,17=6,18=5,40=1/2;
 3/5=7,11=2,16=1,17=8,25=1,30=1,71=1,74=-5,124=31/1,2,3;
 4//1;
 5/5=2,38=5/2;
 6/7=2,8=2,9=2,10=2,28=1/1;
 7//1,2,3,16;
 1/18=20,19=15,26=3/3(2);
 2/9=110/2;
 99//99;
 2/9=110/2;
 3/5=7,6=1,11=2,16=1,17=8,25=1,30=1,71=1,74=-5,82=7,124=31/1,2,3;
 4/5=5,16=3,69=1/1;
 5/5=2,38=5/2;
 7//1,2,3,16;
 1/18=20,19=15,26=3/3(-5);
 2/9=110/2;
 6/7=2,8=2,9=2,10=2,19=2,28=1/1;
 99/9=1/99;
 -----
 Title
 -----
 Symbolic Z-matrix:
 Charge =  0 Multiplicity = 1
 Zr                    0.65779  -0.12506  -0.07164 
 O                    -0.22285  -0.90624   1.4773 
 O                     0.10302   1.74748  -0.12299 
 O                    -0.2683   -0.97885  -1.59705 
 O                     2.59206  -0.4363   -0.08284 
 Si                   -1.83119  -1.33244  -1.9536 
 Si                   -1.1155    2.84172  -0.08279 
 Si                   -1.72376  -1.15291   2.11517 
 Si                    4.16404  -0.00843   0.07143 
 O                     4.92423   0.2636   -1.3686 
 O                     5.02226  -1.22932   0.79245 
 O                     4.14224   1.40302   0.92547 
 O                    -2.31924  -2.624     1.69627 
 O                    -2.72422   0.06508   1.55086 
 O                    -1.59734  -1.01957   3.74439 
 O                    -2.00144  -1.55965  -3.57782 
 O                    -2.82509  -0.18676  -1.30145 
 O                    -2.34448  -2.71439  -1.18277 
 O                    -2.04046   2.43957  -1.43023 
 O                    -0.63565   4.40049  -0.29987 
 O                    -1.96551   2.76086   1.31383 
 H                     4.9595    1.91313   0.94422 
 H                     5.40992  -0.48397  -1.73515 
 H                     4.62149  -1.66214   1.55449 
 H                    -2.40577  -2.80951   0.74392 
 H                    -2.38137  -1.22423   4.26535 
 H                    -3.06034  -0.08306   0.64589 
 H                    -0.52731   4.92728   0.50015 
 H                    -2.26909   1.86932   1.58533 
 H                    -2.64854   3.12676  -1.73014 
 H                    -2.30452  -3.52952  -1.69562 
 H                    -1.27114  -1.26305  -4.13223 
 H                    -2.61026   0.75461  -1.48993 
 
 The following ModRedundant input section has been read:
 A       1       5       9 F                                                   
 D       1       5       9      12 F                                           
 D       3       1       5       9 F                                           
 

 GradGradGradGradGradGradGradGradGradGradGradGradGradGradGradGradGradGrad
 Berny optimization.
 Initialization pass.
                           ----------------------------
                           !    Initial Parameters    !
                           ! (Angstroms and Degrees)  !
 --------------------------                            --------------------------
 ! Name  Definition              Value          Derivative Info.                !
 --------------------------------------------------------------------------------
 ! R1    R(1,2)                  1.9455         estimate D2E/DX2                !
 ! R2    R(1,3)                  1.9537         estimate D2E/DX2                !
 ! R3    R(1,4)                  1.9783         estimate D2E/DX2                !
 ! R4    R(1,5)                  1.9592         estimate D2E/DX2                !
 ! R5    R(2,8)                  1.6494         estimate D2E/DX2                !
 ! R6    R(3,7)                  1.6382         estimate D2E/DX2                !
 ! R7    R(4,6)                  1.6416         estimate D2E/DX2                !
 ! R8    R(5,9)                  1.6365         estimate D2E/DX2                !
 ! R9    R(6,16)                 1.6488         estimate D2E/DX2                !
 ! R10   R(6,17)                 1.651          estimate D2E/DX2                !
 ! R11   R(6,18)                 1.6636         estimate D2E/DX2                !
 ! R12   R(7,19)                 1.6831         estimate D2E/DX2                !
 ! R13   R(7,20)                 1.6453         estimate D2E/DX2                !
 ! R14   R(7,21)                 1.6369         estimate D2E/DX2                !
 ! R15   R(8,13)                 1.6414         estimate D2E/DX2                !
 ! R16   R(8,14)                 1.6742         estimate D2E/DX2                !
 ! R17   R(8,15)                 1.6395         estimate D2E/DX2                !
 ! R18   R(9,10)                 1.6509         estimate D2E/DX2                !
 ! R19   R(9,11)                 1.6574         estimate D2E/DX2                !
 ! R20   R(9,12)                 1.6499         estimate D2E/DX2                !
 ! R21   R(10,23)                0.9639         estimate D2E/DX2                !
 ! R22   R(11,24)                0.9637         estimate D2E/DX2                !
 ! R23   R(12,22)                0.9636         estimate D2E/DX2                !
 ! R24   R(13,25)                0.9741         estimate D2E/DX2                !
 ! R25   R(14,27)                0.9767         estimate D2E/DX2                !
 ! R26   R(15,26)                0.9633         estimate D2E/DX2                !
 ! R27   R(16,32)                0.9637         estimate D2E/DX2                !
 ! R28   R(17,33)                0.9838         estimate D2E/DX2                !
 ! R29   R(18,31)                0.9639         estimate D2E/DX2                !
 ! R30   R(19,30)                0.9654         estimate D2E/DX2                !
 ! R31   R(20,28)                0.964          estimate D2E/DX2                !
 ! R32   R(21,29)                0.9802         estimate D2E/DX2                !
 ! A1    A(2,1,3)              106.0959         estimate D2E/DX2                !
 ! A2    A(2,1,4)              103.2214         estimate D2E/DX2                !
 ! A3    A(2,1,5)              112.8091         estimate D2E/DX2                !
 ! A4    A(3,1,4)              105.0977         estimate D2E/DX2                !
 ! A5    A(3,1,5)              115.6243         estimate D2E/DX2                !
 ! A6    A(4,1,5)              112.9055         estimate D2E/DX2                !
 ! A7    A(1,2,8)              141.2479         estimate D2E/DX2                !
 ! A8    A(1,3,7)              148.2962         estimate D2E/DX2                !
 ! A9    A(1,4,6)              134.9216         estimate D2E/DX2                !
 ! A10   A(1,5,9)              155.0002         Frozen                          !
 ! A11   A(4,6,16)             109.9952         estimate D2E/DX2                !
 ! A12   A(4,6,17)             109.7479         estimate D2E/DX2                !
 ! A13   A(4,6,18)             111.8422         estimate D2E/DX2                !
 ! A14   A(16,6,17)            114.9972         estimate D2E/DX2                !
 ! A15   A(16,6,18)            108.0658         estimate D2E/DX2                !
 ! A16   A(17,6,18)            101.9869         estimate D2E/DX2                !
 ! A17   A(3,7,19)             103.269          estimate D2E/DX2                !
 ! A18   A(3,7,20)             114.3706         estimate D2E/DX2                !
 ! A19   A(3,7,21)             111.9733         estimate D2E/DX2                !
 ! A20   A(19,7,20)            106.3205         estimate D2E/DX2                !
 ! A21   A(19,7,21)            112.6973         estimate D2E/DX2                !
 ! A22   A(20,7,21)            108.1076         estimate D2E/DX2                !
 ! A23   A(2,8,13)             111.4365         estimate D2E/DX2                !
 ! A24   A(2,8,14)             107.7362         estimate D2E/DX2                !
 ! A25   A(2,8,15)             107.5759         estimate D2E/DX2                !
 ! A26   A(13,8,14)            110.4391         estimate D2E/DX2                !
 ! A27   A(13,8,15)            110.7606         estimate D2E/DX2                !
 ! A28   A(14,8,15)            108.7751         estimate D2E/DX2                !
 ! A29   A(5,9,10)             113.7767         estimate D2E/DX2                !
 ! A30   A(5,9,11)             110.2318         estimate D2E/DX2                !
 ! A31   A(5,9,12)             105.0573         estimate D2E/DX2                !
 ! A32   A(10,9,11)            105.2126         estimate D2E/DX2                !
 ! A33   A(10,9,12)            108.4596         estimate D2E/DX2                !
 ! A34   A(11,9,12)            114.3201         estimate D2E/DX2                !
 ! A35   A(9,10,23)            115.8439         estimate D2E/DX2                !
 ! A36   A(9,11,24)            117.3555         estimate D2E/DX2                !
 ! A37   A(9,12,22)            116.8566         estimate D2E/DX2                !
 ! A38   A(8,13,25)            116.8991         estimate D2E/DX2                !
 ! A39   A(8,14,27)            114.056          estimate D2E/DX2                !
 ! A40   A(8,15,26)            117.2166         estimate D2E/DX2                !
 ! A41   A(6,16,32)            116.4907         estimate D2E/DX2                !
 ! A42   A(6,17,33)            117.1859         estimate D2E/DX2                !
 ! A43   A(6,18,31)            116.3076         estimate D2E/DX2                !
 ! A44   A(7,19,30)            115.1373         estimate D2E/DX2                !
 ! A45   A(7,20,28)            116.1676         estimate D2E/DX2                !
 ! A46   A(7,21,29)            116.2372         estimate D2E/DX2                !
 ! D1    D(3,1,2,8)             57.7292         estimate D2E/DX2                !
 ! D2    D(4,1,2,8)            -52.5301         estimate D2E/DX2                !
 ! D3    D(5,1,2,8)           -174.7067         estimate D2E/DX2                !
 ! D4    D(2,1,3,7)            -50.098          estimate D2E/DX2                !
 ! D5    D(4,1,3,7)             58.8315         estimate D2E/DX2                !
 ! D6    D(5,1,3,7)           -175.9641         estimate D2E/DX2                !
 ! D7    D(2,1,4,6)             42.7683         estimate D2E/DX2                !
 ! D8    D(3,1,4,6)            -68.2312         estimate D2E/DX2                !
 ! D9    D(5,1,4,6)            164.8802         estimate D2E/DX2                !
 ! D10   D(2,1,5,9)           -106.9245         estimate D2E/DX2                !
 ! D11   D(3,1,5,9)             15.4387         Frozen                          !
 ! D12   D(4,1,5,9)            136.5209         estimate D2E/DX2                !
 ! D13   D(1,2,8,13)            93.5308         estimate D2E/DX2                !
 ! D14   D(1,2,8,14)           -27.7655         estimate D2E/DX2                !
 ! D15   D(1,2,8,15)          -144.8802         estimate D2E/DX2                !
 ! D16   D(1,3,7,19)           -61.1012         estimate D2E/DX2                !
 ! D17   D(1,3,7,20)          -176.1751         estimate D2E/DX2                !
 ! D18   D(1,3,7,21)            60.409          estimate D2E/DX2                !
 ! D19   D(1,4,6,16)           160.167          estimate D2E/DX2                !
 ! D20   D(1,4,6,17)            32.6925         estimate D2E/DX2                !
 ! D21   D(1,4,6,18)           -79.742          estimate D2E/DX2                !
 ! D22   D(1,5,9,10)          -100.1293         estimate D2E/DX2                !
 ! D23   D(1,5,9,11)           141.9682         estimate D2E/DX2                !
 ! D24   D(1,5,9,12)            18.3491         Frozen                          !
 ! D25   D(4,6,16,32)          -14.1998         estimate D2E/DX2                !
 ! D26   D(17,6,16,32)         110.2979         estimate D2E/DX2                !
 ! D27   D(18,6,16,32)        -136.5531         estimate D2E/DX2                !
 ! D28   D(4,6,17,33)           51.0095         estimate D2E/DX2                !
 ! D29   D(16,6,17,33)         -73.6179         estimate D2E/DX2                !
 ! D30   D(18,6,17,33)         169.7166         estimate D2E/DX2                !
 ! D31   D(4,6,18,31)          -96.4424         estimate D2E/DX2                !
 ! D32   D(16,6,18,31)          24.7715         estimate D2E/DX2                !
 ! D33   D(17,6,18,31)         146.349          estimate D2E/DX2                !
 ! D34   D(3,7,19,30)         -162.1837         estimate D2E/DX2                !
 ! D35   D(20,7,19,30)         -41.4662         estimate D2E/DX2                !
 ! D36   D(21,7,19,30)          76.796          estimate D2E/DX2                !
 ! D37   D(3,7,20,28)          -98.427          estimate D2E/DX2                !
 ! D38   D(19,7,20,28)         148.2947         estimate D2E/DX2                !
 ! D39   D(21,7,20,28)          27.0455         estimate D2E/DX2                !
 ! D40   D(3,7,21,29)          -49.8995         estimate D2E/DX2                !
 ! D41   D(19,7,21,29)          66.0156         estimate D2E/DX2                !
 ! D42   D(20,7,21,29)        -176.7753         estimate D2E/DX2                !
 ! D43   D(2,8,13,25)          -58.468          estimate D2E/DX2                !
 ! D44   D(14,8,13,25)          61.2404         estimate D2E/DX2                !
 ! D45   D(15,8,13,25)        -178.1888         estimate D2E/DX2                !
 ! D46   D(2,8,14,27)           80.2918         estimate D2E/DX2                !
 ! D47   D(13,8,14,27)         -41.6247         estimate D2E/DX2                !
 ! D48   D(15,8,14,27)        -163.3756         estimate D2E/DX2                !
 ! D49   D(2,8,15,26)         -174.1994         estimate D2E/DX2                !
 ! D50   D(13,8,15,26)         -52.1897         estimate D2E/DX2                !
 ! D51   D(14,8,15,26)          69.3652         estimate D2E/DX2                !
 ! D52   D(5,9,10,23)          -94.8508         estimate D2E/DX2                !
 ! D53   D(11,9,10,23)          25.9076         estimate D2E/DX2                !
 ! D54   D(12,9,10,23)         148.6398         estimate D2E/DX2                !
 ! D55   D(5,9,11,24)          -43.8207         estimate D2E/DX2                !
 ! D56   D(10,9,11,24)        -166.8802         estimate D2E/DX2                !
 ! D57   D(12,9,11,24)          74.2392         estimate D2E/DX2                !
 ! D58   D(5,9,12,22)         -166.4771         estimate D2E/DX2                !
 ! D59   D(10,9,12,22)         -44.4746         estimate D2E/DX2                !
 ! D60   D(11,9,12,22)          72.5542         estimate D2E/DX2                !
 --------------------------------------------------------------------------------
 Trust Radius=3.00D-01 FncErr=1.00D-07 GrdErr=1.00D-06 EigMax=2.50D+02 EigMin=1.00D-04
 Number of steps in this run=    148 maximum allowed number of steps=    198.
 GradGradGradGradGradGradGradGradGradGradGradGradGradGradGradGradGradGrad

                          Input orientation:                          
 ---------------------------------------------------------------------
 Center     Atomic      Atomic             Coordinates (Angstroms)
 Number     Number       Type             X           Y           Z
 ---------------------------------------------------------------------
      1         40           0        0.657790   -0.125060   -0.071640
      2          8           0       -0.222850   -0.906240    1.477300
      3          8           0        0.103020    1.747480   -0.122990
      4          8           0       -0.268300   -0.978850   -1.597050
      5          8           0        2.592060   -0.436300   -0.082840
      6         14           0       -1.831190   -1.332440   -1.953600
      7         14           0       -1.115500    2.841720   -0.082790
      8         14           0       -1.723760   -1.152910    2.115170
      9         14           0        4.164040   -0.008430    0.071430
     10          8           0        4.924230    0.263600   -1.368600
     11          8           0        5.022260   -1.229320    0.792450
     12          8           0        4.142240    1.403020    0.925470
     13          8           0       -2.319240   -2.624000    1.696270
     14          8           0       -2.724220    0.065080    1.550860
     15          8           0       -1.597340   -1.019570    3.744390
     16          8           0       -2.001440   -1.559650   -3.577820
     17          8           0       -2.825090   -0.186760   -1.301450
     18          8           0       -2.344480   -2.714390   -1.182770
     19          8           0       -2.040460    2.439570   -1.430230
     20          8           0       -0.635650    4.400490   -0.299870
     21          8           0       -1.965510    2.760860    1.313830
     22          1           0        4.959500    1.913130    0.944220
     23          1           0        5.409920   -0.483970   -1.735150
     24          1           0        4.621490   -1.662140    1.554490
     25          1           0       -2.405770   -2.809510    0.743920
     26          1           0       -2.381370   -1.224230    4.265350
     27          1           0       -3.060340   -0.083060    0.645890
     28          1           0       -0.527310    4.927280    0.500150
     29          1           0       -2.269090    1.869320    1.585330
     30          1           0       -2.648540    3.126760   -1.730140
     31          1           0       -2.304520   -3.529520   -1.695620
     32          1           0       -1.271140   -1.263050   -4.132230
     33          1           0       -2.610260    0.754610   -1.489930
 ---------------------------------------------------------------------
                    Distance matrix (angstroms):
                    1          2          3          4          5
     1  Zr   0.000000
     2  O    1.945504   0.000000
     3  O    1.953666   3.115983   0.000000
     4  O    1.978251   3.075543   3.121475   0.000000
     5  O    1.959183   3.252476   3.311469   3.281593   0.000000
     6  Si   3.345827   3.813067   4.071635   1.641578   4.885484
     7  Si   3.456366   4.156670   1.638221   4.196128   4.948880
     8  Si   3.392697   1.649380   4.093745   3.991145   4.896027
     9  Si   3.511105   4.693329   4.428646   4.834375   1.636457
    10  O    4.476122   5.996674   5.195913   5.343991   2.753553
    11  O    4.584173   5.299489   5.822224   5.810548   2.702015
    12  O    3.933275   4.969025   4.187269   5.611531   2.608226
    13  O    4.270002   2.719099   5.318542   4.214123   5.663226
    14  O    3.755882   2.684348   3.691278   4.126823   5.584191
    15  O    4.521929   2.653632   5.050190   5.504452   5.704294
    16  O    4.628483   5.398571   5.225104   2.695283   5.880225
    17  O    3.694143   3.874372   3.701875   2.692947   5.558129
    18  O    4.117386   3.853141   5.198238   2.737563   5.546978
    19  O    3.962783   4.790812   2.604299   3.854086   5.616612
    20  O    4.712290   5.611606   2.759598   5.545712   5.818913
    21  O    4.138812   4.063399   2.714813   5.033803   5.739683
    22  H    4.867330   5.923662   4.975116   6.492418   3.489906
    23  H    5.047655   6.498172   5.978429   5.701417   3.266915
    24  H    4.551684   4.903567   5.903899   5.857400   2.881340
    25  H    4.154132   2.987545   5.273682   3.660633   5.594101
    26  H    5.408711   3.540275   5.853271   6.236426   6.653014
    27  H    3.786965   3.069237   3.734823   3.691708   5.710118
    28  H    5.220876   5.922624   3.301022   6.272775   6.232041
    29  H    3.910208   3.450000   2.925766   4.716225   5.632890
    30  H    4.925117   5.695325   3.472237   4.747556   6.547739
    31  H    4.796138   4.613282   6.009671   3.265245   6.012118
    32  H    4.637260   5.717784   5.198616   2.741094   5.657331
    33  H    3.669539   4.154829   3.196280   2.915671   5.519266
                    6          7          8          9         10
     6  Si   0.000000
     7  Si   4.629876   0.000000
     8  Si   4.074145   4.599791   0.000000
     9  Si   6.465024   6.001723   6.336631   0.000000
    10  O    6.966008   6.691663   7.637992   1.650932   0.000000
    11  O    7.383847   7.416974   6.874897   1.657403   2.628413
    12  O    7.173120   5.543489   6.508312   1.649864   2.678160
    13  O    3.902290   5.872660   1.641396   7.177342   8.378515
    14  O    3.877087   3.600906   1.674176   7.045725   8.189105
    15  O    5.711363   5.457933   1.639549   6.906992   8.385706
    16  O    1.648848   5.689656   5.714252   7.330515   7.494651
    17  O    1.650975   3.685040   3.717481   7.124924   7.762686
    18  O    1.663560   5.795749   3.701340   7.159334   7.857296
    19  O    3.813892   1.683113   5.057279   6.836922   7.296955
    20  O    6.085279   1.645340   6.152776   6.527899   7.012012
    21  O    5.239203   1.636949   4.002272   6.839876   7.803862
    22  H    8.065021   6.230783   7.445649   2.255418   2.841009
    23  H    7.293922   7.508103   8.133993   2.245459   0.963906
    24  H    7.352039   7.475192   6.390295   2.267925   3.513486
    25  H    3.128657   5.855309   2.256056   7.173611   8.224089
    26  H    6.244177   6.086107   2.249625   7.868261   9.344882
    27  H    3.135141   3.587160   2.256060   7.247568   8.242069
    28  H    6.848729   2.243958   6.403787   6.823034   7.413597
    29  H    4.792395   2.249212   3.116406   6.870444   7.940270
    30  H    4.538993   2.268308   5.827281   7.712737   8.104026
    31  H    2.262246   6.678899   4.528540   7.573824   8.170038
    32  H    2.250533   5.768130   6.264743   6.984698   6.953483
    33  H    2.275460   2.927521   4.173878   6.993655   7.551447
                   11         12         13         14         15
    11  O    0.000000
    12  O    2.778731   0.000000
    13  O    7.527260   7.652565   0.000000
    14  O    7.890413   7.023494   2.723289   0.000000
    15  O    7.251003   6.837984   2.700024   2.694049   0.000000
    16  O    8.278933   8.173239   5.389792   5.428215   7.353213
    17  O    8.188544   7.485336   3.896453   2.865182   5.259415
    18  O    7.770186   7.967137   2.880569   3.916936   5.263795
    19  O    8.263357   6.696980   5.957555   3.872032   6.240088
    20  O    8.056046   5.771873   7.494165   5.155881   6.830662
    21  O    8.063641   6.268904   5.410000   2.810526   4.509415
    22  H    3.146739   0.963575   8.609947   7.926087   7.709334
    23  H    2.663567   3.499520   8.723204   8.789969   8.911449
    24  H    0.963667   3.165526   7.008495   7.546043   6.624380
    25  H    7.594405   7.788119   0.974101   3.002637   3.586121
    26  H    8.177701   7.785546   2.926327   3.024619   0.963321
    27  H    8.164791   7.359603   2.847614   0.976674   3.552200
    28  H    8.293786   5.865663   7.852614   5.437959   6.858213
    29  H    7.962036   6.462043   4.494969   1.861079   3.668579
    30  H    9.174970   7.492545   6.702236   4.488271   6.947485
    31  H    8.072368   8.529993   3.510712   4.861783   6.032716
    32  H    7.991276   7.873560   6.076357   6.014390   7.887131
    33  H    8.209787   7.200753   4.653125   3.120071   5.618881
                   16         17         18         19         20
    16  O    0.000000
    17  O    2.783000   0.000000
    18  O    2.680926   2.575652   0.000000
    19  O    4.539540   2.744055   5.168846   0.000000
    20  O    6.937839   5.180702   7.370287   2.663909   0.000000
    21  O    6.526587   4.033241   6.029510   2.763822   2.657243
    22  H    8.997985   8.369732   8.904277   7.410438   6.248234
    23  H    7.712378   8.251777   8.087683   8.009259   7.903600
    24  H    8.379398   8.110776   7.558079   8.373420   8.235997
    25  H    4.516976   3.352340   1.930010   5.693261   7.497128
    26  H    7.859527   5.680008   5.648358   6.780802   7.451594
    27  H    4.597968   1.964238   3.283344   3.422586   5.184188
    28  H    7.802766   5.888884   8.033022   3.493521   0.963990
    29  H    6.203837   3.587492   5.355227   3.077509   3.553720
    30  H    5.078888   3.345797   5.874615   0.965369   2.778450
    31  H    2.741336   3.405937   0.963872   5.980819   8.223035
    32  H    0.963680   3.403891   3.458000   4.647801   6.867788
    33  H    3.175806   0.983796   3.492699   1.779698   4.313672
                   21         22         23         24         25
    21  O    0.000000
    22  H    6.986488   0.000000
    23  H    8.615229   3.623257   0.000000
    24  H    7.937847   3.642696   3.582100   0.000000
    25  H    5.616729   8.751608   8.522848   7.166301   0.000000
    26  H    4.976480   8.646462   9.861956   7.522006   3.861888
    27  H    3.119724   8.269922   8.807689   7.894907   2.805637
    28  H    2.724678   6.275937   8.338399   8.428655   7.965297
    29  H    0.980162   7.257097   8.690843   7.742884   4.755849
    30  H    3.141045   8.155205   8.830412   9.304606   6.435776
    31  H    6.981447   9.452893   8.293945   7.875274   2.545589
    32  H    6.806877   8.641721   7.140695   8.198850   5.239825
    33  H    3.507394   8.035454   8.118959   8.210200   4.211277
                   26         27         28         29         30
    26  H    0.000000
    27  H    3.855355   0.000000
    28  H    7.446835   5.616136   0.000000
    29  H    4.094529   2.306602   3.682734   0.000000
    30  H    7.412718   4.014728   3.565906   3.566157   0.000000
    31  H    6.391669   4.234622   8.916129   6.317702   6.665254
    32  H    8.470742   5.236797   7.767394   6.595312   5.190154
    33  H    6.090275   2.337946   5.070530   3.288799   2.384588
                   31         32         33
    31  H    0.000000
    32  H    3.484513   0.000000
    33  H    4.299948   3.584124   0.000000
 Stoichiometry    H12O16Si4Zr
 Framework group  C1[X(H12O16Si4Zr)]
 Deg. of freedom    93
 Full point group                 C1      NOp   1
 Largest Abelian subgroup         C1      NOp   1
 Largest concise Abelian subgroup C1      NOp   1
                         Standard orientation:                         
 ---------------------------------------------------------------------
 Center     Atomic      Atomic             Coordinates (Angstroms)
 Number     Number       Type             X           Y           Z
 ---------------------------------------------------------------------
      1         40           0        0.651802   -0.228584   -0.095890
      2          8           0       -0.263102   -0.955592    1.459551
      3          8           0        0.239884    1.680970   -0.123137
      4          8           0       -0.358230   -0.995297   -1.614265
      5          8           0        2.556552   -0.685172   -0.138894
      6         14           0       -1.948402   -1.226204   -1.950143
      7         14           0       -0.891480    2.863843   -0.055364
      8         14           0       -1.769041   -1.094043    2.117906
      9         14           0        4.158502   -0.378965   -0.004779
     10          8           0        4.916291   -0.151546   -1.453783
     11          8           0        4.932012   -1.668100    0.692930
     12          8           0        4.256064    1.021898    0.861314
     13          8           0       -2.480292   -2.511804    1.695704
     14          8           0       -2.682328    0.201472    1.579007
     15          8           0       -1.609409   -0.986160    3.746095
     16          8           0       -2.158777   -1.424414   -3.573459
     17          8           0       -2.843097   -0.014860   -1.273470
     18          8           0       -2.553804   -2.572625   -1.183285
     19          8           0       -1.863586    2.545676   -1.392021
     20          8           0       -0.298035    4.383830   -0.266566
     21          8           0       -1.724956    2.834247    1.353197
     22          1           0        5.109824    1.468503    0.872010
     23          1           0        5.338584   -0.930202   -1.833885
     24          1           0        4.510612   -2.076585    1.457270
     25          1           0       -2.594352   -2.681164    0.743244
     26          1           0       -2.399107   -1.135855    4.277091
     27          1           0       -3.041719    0.087809    0.678000
     28          1           0       -0.138556    4.893275    0.536123
     29          1           0       -2.091297    1.965691    1.621752
     30          1           0       -2.422087    3.279730   -1.676938
     31          1           0       -2.583141   -3.383524   -1.703506
     32          1           0       -1.416162   -1.178663   -4.136318
     33          1           0       -2.560268    0.909306   -1.457260
 ---------------------------------------------------------------------
 Rotational constants (GHZ):           0.2139077           0.1350144           0.1255741
 General basis read from cards:  (5D, 7F)
 ======================================================================================================
                                       Pseudopotential Parameters
 ======================================================================================================
  Center     Atomic      Valence      Angular      Power
  Number     Number     Electrons     Momentum     of R      Exponent        Coefficient   SO-Coeffient
 ======================================================================================================
    1         40           12
                                      G and up 
                                                     2        1.0000000        0.00000000    0.00000000
                                      S - G
                                                     2        8.6365280      150.24299400    0.00000000
                                                     2        3.7176390       18.78003600    0.00000000
                                      P - G
                                                     2        7.6267280       33.19279100    0.00000000
                                                     2        7.4532070       66.38903900    0.00000000
                                                     2        3.3583890        4.62072600    0.00000000
                                                     2        3.2297380        9.26027000    0.00000000
                                      D - G
                                                     2        5.9380860       13.99338300    0.00000000
                                                     2        5.8255440       20.99588200    0.00000000
                                                     2        2.2050190        2.28516600    0.00000000
                                                     2        2.2062920        3.44126000    0.00000000
                                      F - G
                                                     2        4.8002150       -5.23932000    0.00000000
                                                     2        4.7989920       -6.98742400    0.00000000
    2          8
                                   No pseudopotential on this center.
    3          8
                                   No pseudopotential on this center.
    4          8
                                   No pseudopotential on this center.
    5          8
                                   No pseudopotential on this center.
    6         14
                                   No pseudopotential on this center.
    7         14
                                   No pseudopotential on this center.
    8         14
                                   No pseudopotential on this center.
    9         14
                                   No pseudopotential on this center.
   10          8
                                   No pseudopotential on this center.
   11          8
                                   No pseudopotential on this center.
   12          8
                                   No pseudopotential on this center.
   13          8
                                   No pseudopotential on this center.
   14          8
                                   No pseudopotential on this center.
   15          8
                                   No pseudopotential on this center.
   16          8
                                   No pseudopotential on this center.
   17          8
                                   No pseudopotential on this center.
   18          8
                                   No pseudopotential on this center.
   19          8
                                   No pseudopotential on this center.
   20          8
                                   No pseudopotential on this center.
   21          8
                                   No pseudopotential on this center.
   22          1
                                   No pseudopotential on this center.
   23          1
                                   No pseudopotential on this center.
   24          1
                                   No pseudopotential on this center.
   25          1
                                   No pseudopotential on this center.
   26          1
                                   No pseudopotential on this center.
   27          1
                                   No pseudopotential on this center.
   28          1
                                   No pseudopotential on this center.
   29          1
                                   No pseudopotential on this center.
   30          1
                                   No pseudopotential on this center.
   31          1
                                   No pseudopotential on this center.
   32          1
                                   No pseudopotential on this center.
   33          1
                                   No pseudopotential on this center.
 ======================================================================================================
 There are   570 symmetry adapted cartesian basis functions of A   symmetry.
 There are   524 symmetry adapted basis functions of A   symmetry.
   524 basis functions,  1074 primitive gaussians,   570 cartesian basis functions
   104 alpha electrons      104 beta electrons
       nuclear repulsion energy      2839.5573111446 Hartrees.
 NAtoms=   33 NActive=   33 NUniq=   33 SFac= 1.00D+00 NAtFMM=   60 NAOKFM=F Big=F
 Integral buffers will be    131072 words long.
 Raffenetti 2 integral format.
 Two-electron integral symmetry is turned on.
 Nuclear repulsion after empirical dispersion term =     2839.5163933530 Hartrees.
 One-electron integrals computed using PRISM.
 PrsmSu:  requested number of processors reduced to:   4 ShMem   1 Linda.
   1 Symmetry operations used in ECPInt.
 ECPInt:  NShTT=   13203 NPrTT=   78401 LenC2=   11543 LenP2D=   44728.
 LDataN:  DoStor=T MaxTD1= 8 Len=  415
 Number of processors reduced to  13 by ecpmxn.
 NBasis=   524 RedAO= T EigKep=  3.07D-05  NBF=   524
 NBsUse=   524 1.00D-06 EigRej= -1.00D+00 NBFU=   524
 Defaulting to unpruned grid for atomic number  40.
 ExpMin= 1.01D-02 ExpMax= 1.61D+04 ExpMxC= 2.43D+03 IAcc=3 IRadAn=         5 AccDes= 0.00D+00
 Harris functional with IExCor=  402 and IRadAn=       5 diagonalized for initial guess.
 HarFok:  IExCor=  402 AccDes= 0.00D+00 IRadAn=         5 IDoV= 1 UseB2=F ITyADJ=14
 ICtDFT=  3500011 ScaDFX=  1.000000  1.000000  1.000000  1.000000
 Defaulting to unpruned grid for atomic number  40.
 FoFCou: FMM=F IPFlag=           0 FMFlag=      100000 FMFlg1=           0
         NFxFlg=           0 DoJE=T BraDBF=F KetDBF=T FulRan=T
         wScrn=  0.000000 ICntrl=       500 IOpCl=  0 I1Cent=   200000004 NGrid=           0
         NMat0=    1 NMatS0=      1 NMatT0=    0 NMatD0=    1 NMtDS0=    0 NMtDT0=    0
 Petite list used in FoFCou.
 Requested convergence on RMS density matrix=1.00D-08 within 128 cycles.
 Requested convergence on MAX density matrix=1.00D-06.
 Requested convergence on             energy=1.00D-06.
 No special actions if energy rises.
 Defaulting to unpruned grid for atomic number  40.
 Defaulting to unpruned grid for atomic number  40.
 Defaulting to unpruned grid for atomic number  40.
 Defaulting to unpruned grid for atomic number  40.
 Defaulting to unpruned grid for atomic number  40.
 Defaulting to unpruned grid for atomic number  40.
 Defaulting to unpruned grid for atomic number  40.
 Defaulting to unpruned grid for atomic number  40.
 Defaulting to unpruned grid for atomic number  40.
 Defaulting to unpruned grid for atomic number  40.
 Defaulting to unpruned grid for atomic number  40.
 Defaulting to unpruned grid for atomic number  40.
 Defaulting to unpruned grid for atomic number  40.
 Defaulting to unpruned grid for atomic number  40.
 Defaulting to unpruned grid for atomic number  40.
 Defaulting to unpruned grid for atomic number  40.
 SCF Done:  E(RB3LYP) =  -2416.94675073     A.U. after   14 cycles
            NFock= 14  Conv=0.25D-08     -V/T= 2.0185

 **********************************************************************

            Population analysis using the SCF Density.

 **********************************************************************

 Orbital symmetries:
       Occupied  (A) (A) (A) (A) (A) (A) (A) (A) (A) (A) (A) (A)
                 (A) (A) (A) (A) (A) (A) (A) (A) (A) (A) (A) (A)
                 (A) (A) (A) (A) (A) (A) (A) (A) (A) (A) (A) (A)
                 (A) (A) (A) (A) (A) (A) (A) (A) (A) (A) (A) (A)
                 (A) (A) (A) (A) (A) (A) (A) (A) (A) (A) (A) (A)
                 (A) (A) (A) (A) (A) (A) (A) (A) (A) (A) (A) (A)
                 (A) (A) (A) (A) (A) (A) (A) (A) (A) (A) (A) (A)
                 (A) (A) (A) (A) (A) (A) (A) (A) (A) (A) (A) (A)
                 (A) (A) (A) (A) (A) (A) (A) (A)
       Virtual   (A) (A) (A) (A) (A) (A) (A) (A) (A) (A) (A) (A)
                 (A) (A) (A) (A) (A) (A) (A) (A) (A) (A) (A) (A)
                 (A) (A) (A) (A) (A) (A) (A) (A) (A) (A) (A) (A)
                 (A) (A) (A) (A) (A) (A) (A) (A) (A) (A) (A) (A)
                 (A) (A) (A) (A) (A) (A) (A) (A) (A) (A) (A) (A)
                 (A) (A) (A) (A) (A) (A) (A) (A) (A) (A) (A) (A)
                 (A) (A) (A) (A) (A) (A) (A) (A) (A) (A) (A) (A)
                 (A) (A) (A) (A) (A) (A) (A) (A) (A) (A) (A) (A)
                 (A) (A) (A) (A) (A) (A) (A) (A) (A) (A) (A) (A)
                 (A) (A) (A) (A) (A) (A) (A) (A) (A) (A) (A) (A)
                 (A) (A) (A) (A) (A) (A) (A) (A) (A) (A) (A) (A)
                 (A) (A) (A) (A) (A) (A) (A) (A) (A) (A) (A) (A)
                 (A) (A) (A) (A) (A) (A) (A) (A) (A) (A) (A) (A)
                 (A) (A) (A) (A) (A) (A) (A) (A) (A) (A) (A) (A)
                 (A) (A) (A) (A) (A) (A) (A) (A) (A) (A) (A) (A)
                 (A) (A) (A) (A) (A) (A) (A) (A) (A) (A) (A) (A)
                 (A) (A) (A) (A) (A) (A) (A) (A) (A) (A) (A) (A)
                 (A) (A) (A) (A) (A) (A) (A) (A) (A) (A) (A) (A)
                 (A) (A) (A) (A) (A) (A) (A) (A) (A) (A) (A) (A)
                 (A) (A) (A) (A) (A) (A) (A) (A) (A) (A) (A) (A)
                 (A) (A) (A) (A) (A) (A) (A) (A) (A) (A) (A) (A)
                 (A) (A) (A) (A) (A) (A) (A) (A) (A) (A) (A) (A)
                 (A) (A) (A) (A) (A) (A) (A) (A) (A) (A) (A) (A)
                 (A) (A) (A) (A) (A) (A) (A) (A) (A) (A) (A) (A)
                 (A) (A) (A) (A) (A) (A) (A) (A) (A) (A) (A) (A)
                 (A) (A) (A) (A) (A) (A) (A) (A) (A) (A) (A) (A)
                 (A) (A) (A) (A) (A) (A) (A) (A) (A) (A) (A) (A)
                 (A) (A) (A) (A) (A) (A) (A) (A) (A) (A) (A) (A)
                 (A) (A) (A) (A) (A) (A) (A) (A) (A) (A) (A) (A)
                 (A) (A) (A) (A) (A) (A) (A) (A) (A) (A) (A) (A)
                 (A) (A) (A) (A) (A) (A) (A) (A) (A) (A) (A) (A)
                 (A) (A) (A) (A) (A) (A) (A) (A) (A) (A) (A) (A)
                 (A) (A) (A) (A) (A) (A) (A) (A) (A) (A) (A) (A)
                 (A) (A) (A) (A) (A) (A) (A) (A) (A) (A) (A) (A)
                 (A) (A) (A) (A) (A) (A) (A) (A) (A) (A) (A) (A)
 The electronic state is 1-A.
 Alpha  occ. eigenvalues --  -66.22753 -66.21709 -66.21510 -66.20982 -19.18540
 Alpha  occ. eigenvalues --  -19.18310 -19.17742 -19.16979 -19.16694 -19.16541
 Alpha  occ. eigenvalues --  -19.16464 -19.16365 -19.16134 -19.15951 -19.15949
 Alpha  occ. eigenvalues --  -19.15446 -19.15366 -19.15180 -19.14850 -19.14654
 Alpha  occ. eigenvalues --   -5.36813  -5.35789  -5.35595  -5.35042  -3.72797
 Alpha  occ. eigenvalues --   -3.72770  -3.72724  -3.71781  -3.71733  -3.71699
 Alpha  occ. eigenvalues --   -3.71563  -3.71554  -3.71517  -3.71007  -3.70998
 Alpha  occ. eigenvalues --   -3.70973  -2.13284  -1.29544  -1.29450  -1.29291
 Alpha  occ. eigenvalues --   -1.05632  -1.04733  -1.04206  -1.03447  -1.02518
 Alpha  occ. eigenvalues --   -1.02126  -1.01428  -1.01009  -1.00790  -1.00618
 Alpha  occ. eigenvalues --   -0.99785  -0.99255  -0.97350  -0.96226  -0.95698
 Alpha  occ. eigenvalues --   -0.95363  -0.60942  -0.59123  -0.58996  -0.58438
 Alpha  occ. eigenvalues --   -0.55495  -0.54489  -0.53923  -0.53057  -0.52996
 Alpha  occ. eigenvalues --   -0.52442  -0.52099  -0.51661  -0.48724  -0.47541
 Alpha  occ. eigenvalues --   -0.47143  -0.46642  -0.43328  -0.42602  -0.41813
 Alpha  occ. eigenvalues --   -0.41366  -0.41165  -0.40451  -0.39791  -0.39290
 Alpha  occ. eigenvalues --   -0.38820  -0.38659  -0.38617  -0.38116  -0.37964
 Alpha  occ. eigenvalues --   -0.37597  -0.37443  -0.37129  -0.36542  -0.36385
 Alpha  occ. eigenvalues --   -0.36109  -0.35629  -0.35442  -0.35077  -0.34920
 Alpha  occ. eigenvalues --   -0.34559  -0.33959  -0.33692  -0.33444  -0.33221
 Alpha  occ. eigenvalues --   -0.32801  -0.32224  -0.32008  -0.31248
 Alpha virt. eigenvalues --   -0.04286  -0.03092  -0.02990  -0.02763  -0.02050
 Alpha virt. eigenvalues --   -0.01126  -0.00492  -0.00072   0.00150   0.00248
 Alpha virt. eigenvalues --    0.00842   0.00932   0.01093   0.02006   0.02358
 Alpha virt. eigenvalues --    0.03145   0.03359   0.03861   0.04012   0.04076
 Alpha virt. eigenvalues --    0.04112   0.04825   0.05611   0.05887   0.06253
 Alpha virt. eigenvalues --    0.06555   0.07027   0.07442   0.07722   0.08677
 Alpha virt. eigenvalues --    0.08811   0.09125   0.09225   0.09790   0.10003
 Alpha virt. eigenvalues --    0.10396   0.10739   0.10772   0.11358   0.11717
 Alpha virt. eigenvalues --    0.11738   0.12623   0.13231   0.13407   0.13547
 Alpha virt. eigenvalues --    0.14082   0.14451   0.14982   0.15101   0.15296
 Alpha virt. eigenvalues --    0.15330   0.15775   0.16146   0.16701   0.17078
 Alpha virt. eigenvalues --    0.17422   0.17544   0.17721   0.18068   0.18297
 Alpha virt. eigenvalues --    0.18470   0.18880   0.19267   0.19631   0.19921
 Alpha virt. eigenvalues --    0.20076   0.20406   0.20797   0.20978   0.21230
 Alpha virt. eigenvalues --    0.21777   0.22043   0.22258   0.22572   0.22799
 Alpha virt. eigenvalues --    0.23432   0.23812   0.24105   0.24216   0.24797
 Alpha virt. eigenvalues --    0.24977   0.25250   0.25643   0.26076   0.26275
 Alpha virt. eigenvalues --    0.26496   0.26660   0.26888   0.27227   0.27457
 Alpha virt. eigenvalues --    0.28074   0.28242   0.28567   0.28924   0.29014
 Alpha virt. eigenvalues --    0.29617   0.29792   0.30072   0.30448   0.30863
 Alpha virt. eigenvalues --    0.31052   0.31398   0.31610   0.31776   0.32190
 Alpha virt. eigenvalues --    0.32255   0.33039   0.33191   0.33540   0.34028
 Alpha virt. eigenvalues --    0.34770   0.34855   0.35252   0.35947   0.36258
 Alpha virt. eigenvalues --    0.37189   0.37596   0.38322   0.38509   0.38851
 Alpha virt. eigenvalues --    0.39404   0.39923   0.40127   0.41192   0.41694
 Alpha virt. eigenvalues --    0.42694   0.43294   0.43919   0.44369   0.44728
 Alpha virt. eigenvalues --    0.45215   0.45436   0.46270   0.46715   0.47424
 Alpha virt. eigenvalues --    0.48002   0.48580   0.48937   0.49511   0.49673
 Alpha virt. eigenvalues --    0.50323   0.51030   0.51416   0.51646   0.53663
 Alpha virt. eigenvalues --    0.53924   0.54756   0.55387   0.56935   0.57402
 Alpha virt. eigenvalues --    0.57724   0.58623   0.58953   0.59337   0.60866
 Alpha virt. eigenvalues --    0.61080   0.61867   0.62049   0.64616   0.65951
 Alpha virt. eigenvalues --    0.66689   0.67630   0.68106   0.68880   0.69682
 Alpha virt. eigenvalues --    0.69852   0.70166   0.73105   0.74130   0.75012
 Alpha virt. eigenvalues --    0.75548   0.77461   0.78457   0.79337   0.80080
 Alpha virt. eigenvalues --    0.81142   0.81712   0.82677   0.84216   0.85328
 Alpha virt. eigenvalues --    0.86429   0.87703   0.89689   0.91078   0.91235
 Alpha virt. eigenvalues --    0.94615   0.95829   0.96092   0.96966   0.97568
 Alpha virt. eigenvalues --    0.97938   0.98608   0.99370   0.99635   1.00473
 Alpha virt. eigenvalues --    1.00777   1.01494   1.01972   1.03603   1.03998
 Alpha virt. eigenvalues --    1.04412   1.05541   1.06597   1.06653   1.07860
 Alpha virt. eigenvalues --    1.09703   1.12032   1.15232   1.16246   1.16604
 Alpha virt. eigenvalues --    1.18944   1.19241   1.19890   1.20532   1.20970
 Alpha virt. eigenvalues --    1.21248   1.22021   1.22636   1.23044   1.23176
 Alpha virt. eigenvalues --    1.23640   1.24004   1.24530   1.25330   1.25755
 Alpha virt. eigenvalues --    1.26178   1.27152   1.27703   1.28197   1.29023
 Alpha virt. eigenvalues --    1.29134   1.29813   1.30279   1.31008   1.31708
 Alpha virt. eigenvalues --    1.32522   1.32679   1.33260   1.33496   1.34437
 Alpha virt. eigenvalues --    1.35379   1.36164   1.36698   1.36989   1.38100
 Alpha virt. eigenvalues --    1.39008   1.39859   1.40374   1.41236   1.41542
 Alpha virt. eigenvalues --    1.42981   1.43922   1.44371   1.45296   1.46202
 Alpha virt. eigenvalues --    1.47383   1.48672   1.50479   1.51994   1.52197
 Alpha virt. eigenvalues --    1.56674   1.57334   1.57951   1.59025   1.59841
 Alpha virt. eigenvalues --    1.60058   1.61500   1.61963   1.62414   1.62916
 Alpha virt. eigenvalues --    1.63238   1.63914   1.65290   1.65569   1.66406
 Alpha virt. eigenvalues --    1.67014   1.67959   1.69183   1.69571   1.70330
 Alpha virt. eigenvalues --    1.71249   1.71526   1.71939   1.72495   1.73440
 Alpha virt. eigenvalues --    1.74142   1.74369   1.75593   1.76543   1.77026
 Alpha virt. eigenvalues --    1.77354   1.78018   1.78436   1.78680   1.79761
 Alpha virt. eigenvalues --    1.80419   1.80751   1.82206   1.82301   1.83365
 Alpha virt. eigenvalues --    1.84095   1.84177   1.85321   1.86288   1.86579
 Alpha virt. eigenvalues --    1.87187   1.88078   1.88234   1.89961   1.90237
 Alpha virt. eigenvalues --    1.91501   1.91736   1.92605   1.93014   1.93599
 Alpha virt. eigenvalues --    1.94408   1.95099   1.95784   1.97513   1.98198
 Alpha virt. eigenvalues --    1.99609   2.00559   2.01713   2.02612   2.03653
 Alpha virt. eigenvalues --    2.05910   2.06660   2.08535   2.09764   2.10770
 Alpha virt. eigenvalues --    2.11112   2.13073   2.14595   2.15825   2.16586
 Alpha virt. eigenvalues --    2.17800   2.18821   2.19879   2.21577   2.24596
 Alpha virt. eigenvalues --    2.33105   2.33405   2.35655   2.39523   2.40431
 Alpha virt. eigenvalues --    2.41095   2.41511   2.41799   2.42740   2.43869
 Alpha virt. eigenvalues --    2.44067   2.45282   2.46740   2.47688   2.49225
 Alpha virt. eigenvalues --    2.50154   2.50354   2.51741   2.52456   2.53552
 Alpha virt. eigenvalues --    2.55406   2.58474   2.59753   2.60193   2.60719
 Alpha virt. eigenvalues --    2.61219   2.61751   2.62068   2.62624   2.62878
 Alpha virt. eigenvalues --    2.63191   2.64095   2.64743   2.65056   2.66001
 Alpha virt. eigenvalues --    2.66543   2.66737   2.67476   2.67669   2.69430
 Alpha virt. eigenvalues --    2.70373   2.70977   2.71273   2.71675   2.72653
 Alpha virt. eigenvalues --    2.74010   2.75322   2.75607   2.76999   2.77702
 Alpha virt. eigenvalues --    2.79024   2.80536   2.81696   2.82563   2.83523
 Alpha virt. eigenvalues --    2.83892   2.84752   2.86776   2.87888   2.88160
 Alpha virt. eigenvalues --    3.15266   3.21082   3.35920   3.40645   3.46574
 Alpha virt. eigenvalues --    3.47812   3.48634   3.49051   3.51048   3.51111
 Alpha virt. eigenvalues --    3.52388   3.54492   3.60346   3.61135   3.62063
 Alpha virt. eigenvalues --    3.66225   4.37489   4.64873   7.75166  31.25257
          Condensed to atoms (all electrons):
               1          2          3          4          5          6
     1  Zr  15.446226  -0.160652   0.006273  -0.184168  -0.152923  -0.633445
     2  O   -0.160652   9.062736   0.016289  -0.042156  -0.051787   0.093739
     3  O    0.006273   0.016289   8.804956   0.011658  -0.047669  -0.008526
     4  O   -0.184168  -0.042156   0.011658   8.806791  -0.064909  -0.653541
     5  O   -0.152923  -0.051787  -0.047669  -0.064909   9.342365  -0.001256
     6  Si  -0.633445   0.093739  -0.008526  -0.653541  -0.001256  13.957067
     7  Si  -0.647278  -0.025212  -0.865982  -0.004803  -0.029601   0.093027
     8  Si  -0.624491  -0.972271  -0.027505   0.082739  -0.007402  -0.020782
     9  Si  -0.452619  -0.027203   0.008752  -0.018554  -1.192168   0.051804
    10  O   -0.022149   0.000680  -0.003453   0.000300   0.121772  -0.002888
    11  O   -0.089285   0.003233   0.002896   0.001266   0.313274  -0.000505
    12  O    0.054936  -0.000454   0.005299   0.001883   0.163245  -0.003495
    13  O   -0.030393   0.190549   0.001475  -0.014826  -0.000923   0.030827
    14  O   -0.036015   0.258501  -0.018878  -0.009709   0.000902   0.034428
    15  O   -0.086265   0.288418  -0.000571   0.001157   0.000567   0.001171
    16  O   -0.116407   0.004682  -0.000480   0.342015   0.002910  -0.428569
    17  O   -0.115650  -0.038851   0.006471   0.216007   0.000501  -0.428400
    18  O   -0.043412  -0.014579   0.003529   0.204498  -0.000824  -0.445966
    19  O   -0.001696   0.008978   0.268961   0.011636   0.002026  -0.008610
    20  O   -0.141640  -0.000603   0.152606  -0.000804   0.000948   0.009106
    21  O    0.041949   0.010557   0.154137   0.003660   0.000534  -0.014790
    22  H   -0.011215  -0.000014   0.000033  -0.000009   0.004664   0.000135
    23  H   -0.005797  -0.000012  -0.000007  -0.000058  -0.024940   0.000084
    24  H   -0.005980  -0.000127   0.000001   0.000003  -0.004101   0.000044
    25  H    0.015928  -0.019995  -0.000101  -0.000567   0.000025   0.003674
    26  H    0.008600   0.000727   0.000014  -0.000010  -0.000002  -0.000297
    27  H    0.011898  -0.019411   0.000945  -0.001640   0.000022   0.006484
    28  H    0.004603  -0.000010  -0.017949  -0.000014  -0.000013  -0.000302
    29  H    0.003973  -0.007046  -0.020163  -0.000128  -0.000063  -0.000057
    30  H    0.001122  -0.000013   0.000119  -0.000469  -0.000007  -0.001007
    31  H    0.000886   0.000160  -0.000021  -0.018465  -0.000009   0.063570
    32  H    0.001960  -0.000026   0.000038   0.010645   0.000004   0.022803
    33  H   -0.017796   0.001052  -0.010212  -0.009879  -0.000082   0.054772
               7          8          9         10         11         12
     1  Zr  -0.647278  -0.624491  -0.452619  -0.022149  -0.089285   0.054936
     2  O   -0.025212  -0.972271  -0.027203   0.000680   0.003233  -0.000454
     3  O   -0.865982  -0.027505   0.008752  -0.003453   0.002896   0.005299
     4  O   -0.004803   0.082739  -0.018554   0.000300   0.001266   0.001883
     5  O   -0.029601  -0.007402  -1.192168   0.121772   0.313274   0.163245
     6  Si   0.093027  -0.020782   0.051804  -0.002888  -0.000505  -0.003495
     7  Si  13.787020   0.188836   0.026745   0.000210  -0.000300   0.004165
     8  Si   0.188836  13.765908   0.033022  -0.001067   0.001594  -0.001209
     9  Si   0.026745   0.033022  14.215528  -0.030758  -0.172802  -0.262502
    10  O    0.000210  -0.001067  -0.030758   8.529037  -0.003987   0.039753
    11  O   -0.000300   0.001594  -0.172802  -0.003987   8.553535  -0.053331
    12  O    0.004165  -0.001209  -0.262502   0.039753  -0.053331   8.627162
    13  O    0.006654  -0.097908  -0.000135  -0.000000   0.000015   0.000014
    14  O    0.015148  -0.350490  -0.001097  -0.000001   0.000004   0.000042
    15  O   -0.001903  -0.299657  -0.000220   0.000001  -0.000026  -0.000034
    16  O    0.003558  -0.010793  -0.001364   0.000010  -0.000003   0.000001
    17  O    0.005342   0.105162   0.003562   0.000000   0.000002  -0.000007
    18  O   -0.000993   0.078025   0.004264   0.000001  -0.000000  -0.000001
    19  O   -0.413474  -0.017343   0.001031   0.000009   0.000000  -0.000016
    20  O   -0.095357   0.009931   0.003652   0.000005  -0.000002  -0.000036
    21  O    0.012885  -0.043903  -0.002782   0.000000   0.000003   0.000035
    22  H   -0.000262   0.000140   0.050528  -0.005435  -0.005028   0.219520
    23  H    0.000050   0.000054   0.076706   0.229773  -0.005448   0.005711
    24  H    0.000060  -0.000072   0.039217   0.007747   0.238880  -0.007135
    25  H   -0.000396   0.057487  -0.000175   0.000000   0.000000  -0.000000
    26  H   -0.000417   0.044941  -0.000070  -0.000000   0.000000  -0.000000
    27  H    0.000205   0.065618  -0.000082   0.000000  -0.000000  -0.000000
    28  H    0.056164  -0.000054  -0.000144  -0.000000  -0.000000  -0.000008
    29  H    0.048299   0.021947  -0.000087   0.000000  -0.000000  -0.000002
    30  H    0.040658   0.000141   0.000017   0.000000  -0.000000  -0.000000
    31  H    0.000152  -0.002313  -0.000052   0.000000  -0.000000  -0.000000
    32  H   -0.000705   0.000072  -0.000032  -0.000000   0.000000  -0.000000
    33  H    0.020859   0.000292   0.000114  -0.000000   0.000000   0.000000
              13         14         15         16         17         18
     1  Zr  -0.030393  -0.036015  -0.086265  -0.116407  -0.115650  -0.043412
     2  O    0.190549   0.258501   0.288418   0.004682  -0.038851  -0.014579
     3  O    0.001475  -0.018878  -0.000571  -0.000480   0.006471   0.003529
     4  O   -0.014826  -0.009709   0.001157   0.342015   0.216007   0.204498
     5  O   -0.000923   0.000902   0.000567   0.002910   0.000501  -0.000824
     6  Si   0.030827   0.034428   0.001171  -0.428569  -0.428400  -0.445966
     7  Si   0.006654   0.015148  -0.001903   0.003558   0.005342  -0.000993
     8  Si  -0.097908  -0.350490  -0.299657  -0.010793   0.105162   0.078025
     9  Si  -0.000135  -0.001097  -0.000220  -0.001364   0.003562   0.004264
    10  O   -0.000000  -0.000001   0.000001   0.000010   0.000000   0.000001
    11  O    0.000015   0.000004  -0.000026  -0.000003   0.000002  -0.000000
    12  O    0.000014   0.000042  -0.000034   0.000001  -0.000007  -0.000001
    13  O    8.628222   0.086894  -0.092078   0.003756  -0.031082  -0.045681
    14  O    0.086894   8.672567   0.055472   0.003524  -0.035566  -0.027241
    15  O   -0.092078   0.055472   8.775790  -0.000173   0.003660   0.001692
    16  O    0.003756   0.003524  -0.000173   8.901159  -0.092109  -0.114102
    17  O   -0.031082  -0.035566   0.003660  -0.092109   8.932495   0.227687
    18  O   -0.045681  -0.027241   0.001692  -0.114102   0.227687   9.013386
    19  O    0.000208  -0.000282   0.000141  -0.001451  -0.029344   0.000181
    20  O    0.000009  -0.000454   0.000034   0.000054  -0.001130   0.000019
    21  O   -0.000237   0.016789  -0.000534  -0.000198  -0.005793   0.000464
    22  H   -0.000000   0.000000   0.000000  -0.000000   0.000000  -0.000000
    23  H    0.000000   0.000000   0.000000   0.000000   0.000000  -0.000000
    24  H   -0.000000   0.000000   0.000001   0.000000  -0.000000  -0.000000
    25  H    0.218531  -0.011785   0.008939  -0.000066   0.000606   0.014726
    26  H   -0.005242  -0.010140   0.217133   0.000000  -0.000005   0.000005
    27  H   -0.009751   0.218670   0.004580   0.000205   0.017429  -0.000280
    28  H    0.000000  -0.000006  -0.000001  -0.000000   0.000004  -0.000000
    29  H    0.000783   0.017675  -0.002565  -0.000004  -0.000382   0.000007
    30  H    0.000001   0.000002   0.000000   0.000120  -0.000357  -0.000009
    31  H    0.002316   0.000171  -0.000018   0.003748  -0.000724   0.217769
    32  H   -0.000008  -0.000006   0.000000   0.233486  -0.003629   0.003862
    33  H    0.000245   0.002182  -0.000037  -0.000185   0.231173   0.002078
              19         20         21         22         23         24
     1  Zr  -0.001696  -0.141640   0.041949  -0.011215  -0.005797  -0.005980
     2  O    0.008978  -0.000603   0.010557  -0.000014  -0.000012  -0.000127
     3  O    0.268961   0.152606   0.154137   0.000033  -0.000007   0.000001
     4  O    0.011636  -0.000804   0.003660  -0.000009  -0.000058   0.000003
     5  O    0.002026   0.000948   0.000534   0.004664  -0.024940  -0.004101
     6  Si  -0.008610   0.009106  -0.014790   0.000135   0.000084   0.000044
     7  Si  -0.413474  -0.095357   0.012885  -0.000262   0.000050   0.000060
     8  Si  -0.017343   0.009931  -0.043903   0.000140   0.000054  -0.000072
     9  Si   0.001031   0.003652  -0.002782   0.050528   0.076706   0.039217
    10  O    0.000009   0.000005   0.000000  -0.005435   0.229773   0.007747
    11  O    0.000000  -0.000002   0.000003  -0.005028  -0.005448   0.238880
    12  O   -0.000016  -0.000036   0.000035   0.219520   0.005711  -0.007135
    13  O    0.000208   0.000009  -0.000237  -0.000000   0.000000  -0.000000
    14  O   -0.000282  -0.000454   0.016789   0.000000   0.000000   0.000000
    15  O    0.000141   0.000034  -0.000534   0.000000   0.000000   0.000001
    16  O   -0.001451   0.000054  -0.000198  -0.000000   0.000000   0.000000
    17  O   -0.029344  -0.001130  -0.005793   0.000000   0.000000  -0.000000
    18  O    0.000181   0.000019   0.000464  -0.000000  -0.000000  -0.000000
    19  O    8.876414   0.031385   0.025644  -0.000000   0.000000  -0.000000
    20  O    0.031385   8.651379  -0.050433   0.000001   0.000000  -0.000000
    21  O    0.025644  -0.050433   8.489523  -0.000001   0.000000   0.000000
    22  H   -0.000000   0.000001  -0.000001   0.356561   0.000048   0.000122
    23  H    0.000000   0.000000   0.000000   0.000048   0.350915   0.000017
    24  H   -0.000000  -0.000000   0.000000   0.000122   0.000017   0.365574
    25  H   -0.000024   0.000000  -0.000017   0.000000   0.000000   0.000000
    26  H    0.000000  -0.000000   0.000037  -0.000000  -0.000000  -0.000000
    27  H   -0.000036   0.000196  -0.004077  -0.000000  -0.000000   0.000000
    28  H    0.004601   0.229718  -0.001931  -0.000000   0.000000  -0.000000
    29  H   -0.008540   0.007697   0.206703   0.000000  -0.000000  -0.000000
    30  H    0.223896  -0.001523  -0.007225   0.000000  -0.000000   0.000000
    31  H    0.000004  -0.000000  -0.000000  -0.000000  -0.000000   0.000000
    32  H    0.000089   0.000000   0.000001  -0.000000  -0.000000  -0.000000
    33  H    0.014618  -0.000039   0.001412  -0.000000  -0.000000  -0.000000
              25         26         27         28         29         30
     1  Zr   0.015928   0.008600   0.011898   0.004603   0.003973   0.001122
     2  O   -0.019995   0.000727  -0.019411  -0.000010  -0.007046  -0.000013
     3  O   -0.000101   0.000014   0.000945  -0.017949  -0.020163   0.000119
     4  O   -0.000567  -0.000010  -0.001640  -0.000014  -0.000128  -0.000469
     5  O    0.000025  -0.000002   0.000022  -0.000013  -0.000063  -0.000007
     6  Si   0.003674  -0.000297   0.006484  -0.000302  -0.000057  -0.001007
     7  Si  -0.000396  -0.000417   0.000205   0.056164   0.048299   0.040658
     8  Si   0.057487   0.044941   0.065618  -0.000054   0.021947   0.000141
     9  Si  -0.000175  -0.000070  -0.000082  -0.000144  -0.000087   0.000017
    10  O    0.000000  -0.000000   0.000000  -0.000000   0.000000   0.000000
    11  O    0.000000   0.000000  -0.000000  -0.000000  -0.000000  -0.000000
    12  O   -0.000000  -0.000000  -0.000000  -0.000008  -0.000002  -0.000000
    13  O    0.218531  -0.005242  -0.009751   0.000000   0.000783   0.000001
    14  O   -0.011785  -0.010140   0.218670  -0.000006   0.017675   0.000002
    15  O    0.008939   0.217133   0.004580  -0.000001  -0.002565   0.000000
    16  O   -0.000066   0.000000   0.000205  -0.000000  -0.000004   0.000120
    17  O    0.000606  -0.000005   0.017429   0.000004  -0.000382  -0.000357
    18  O    0.014726   0.000005  -0.000280  -0.000000   0.000007  -0.000009
    19  O   -0.000024   0.000000  -0.000036   0.004601  -0.008540   0.223896
    20  O    0.000000  -0.000000   0.000196   0.229718   0.007697  -0.001523
    21  O   -0.000017   0.000037  -0.004077  -0.001931   0.206703  -0.007225
    22  H    0.000000  -0.000000  -0.000000  -0.000000   0.000000   0.000000
    23  H    0.000000  -0.000000  -0.000000   0.000000  -0.000000  -0.000000
    24  H    0.000000  -0.000000   0.000000  -0.000000  -0.000000   0.000000
    25  H    0.299027  -0.000011   0.000098   0.000000   0.000001   0.000000
    26  H   -0.000011   0.366370   0.000039   0.000000   0.000021  -0.000000
    27  H    0.000098   0.000039   0.283623  -0.000000  -0.001485   0.000009
    28  H    0.000000   0.000000  -0.000000   0.349492  -0.000017  -0.000014
    29  H    0.000001   0.000021  -0.001485  -0.000017   0.285774   0.000154
    30  H    0.000000  -0.000000   0.000009  -0.000014   0.000154   0.334465
    31  H   -0.000466   0.000000   0.000012  -0.000000   0.000000  -0.000000
    32  H   -0.000001   0.000000  -0.000000   0.000000  -0.000000  -0.000000
    33  H    0.000005  -0.000000  -0.002387  -0.000002   0.000108  -0.001144
              31         32         33
     1  Zr   0.000886   0.001960  -0.017796
     2  O    0.000160  -0.000026   0.001052
     3  O   -0.000021   0.000038  -0.010212
     4  O   -0.018465   0.010645  -0.009879
     5  O   -0.000009   0.000004  -0.000082
     6  Si   0.063570   0.022803   0.054772
     7  Si   0.000152  -0.000705   0.020859
     8  Si  -0.002313   0.000072   0.000292
     9  Si  -0.000052  -0.000032   0.000114
    10  O    0.000000  -0.000000  -0.000000
    11  O   -0.000000   0.000000   0.000000
    12  O   -0.000000  -0.000000   0.000000
    13  O    0.002316  -0.000008   0.000245
    14  O    0.000171  -0.000006   0.002182
    15  O   -0.000018   0.000000  -0.000037
    16  O    0.003748   0.233486  -0.000185
    17  O   -0.000724  -0.003629   0.231173
    18  O    0.217769   0.003862   0.002078
    19  O    0.000004   0.000089   0.014618
    20  O   -0.000000   0.000000  -0.000039
    21  O   -0.000000   0.000001   0.001412
    22  H   -0.000000  -0.000000  -0.000000
    23  H   -0.000000  -0.000000  -0.000000
    24  H    0.000000  -0.000000  -0.000000
    25  H   -0.000466  -0.000001   0.000005
    26  H    0.000000   0.000000  -0.000000
    27  H    0.000012  -0.000000  -0.002387
    28  H   -0.000000   0.000000  -0.000002
    29  H    0.000000  -0.000000   0.000108
    30  H   -0.000000  -0.000000  -0.001144
    31  H    0.331434   0.000000  -0.000038
    32  H    0.000000   0.350055   0.000158
    33  H   -0.000038   0.000158   0.269193
 Mulliken charges:
               1
     1  Zr  -0.019076
     2  O   -0.559878
     3  O   -0.422934
     4  O   -0.669551
     5  O   -0.375081
     6  Si   2.229700
     7  Si   1.776646
     8  Si   2.021354
     9  Si   1.647904
    10  O   -0.859558
    11  O   -0.783987
    12  O   -0.793536
    13  O   -0.842237
    14  O   -0.881300
    15  O   -0.874674
    16  O   -0.733325
    17  O   -0.967072
    18  O   -1.079103
    19  O   -0.989005
    20  O   -0.804718
    21  O   -0.832413
    22  H    0.390211
    23  H    0.372904
    24  H    0.365748
    25  H    0.414556
    26  H    0.378309
    27  H    0.429114
    28  H    0.375884
    29  H    0.447398
    30  H    0.411060
    31  H    0.401884
    32  H    0.381234
    33  H    0.443540
 Sum of Mulliken charges =  -0.00000
 Mulliken charges with hydrogens summed into heavy atoms:
               1
     1  Zr  -0.019076
     2  O   -0.559878
     3  O   -0.422934
     4  O   -0.669551
     5  O   -0.375081
     6  Si   2.229700
     7  Si   1.776646
     8  Si   2.021354
     9  Si   1.647904
    10  O   -0.486654
    11  O   -0.418238
    12  O   -0.403325
    13  O   -0.427680
    14  O   -0.452185
    15  O   -0.496365
    16  O   -0.352091
    17  O   -0.523531
    18  O   -0.677219
    19  O   -0.577945
    20  O   -0.428834
    21  O   -0.385015
 Electronic spatial extent (au):  <R**2>=           9773.4938
 Charge=             -0.0000 electrons
 Dipole moment (field-independent basis, Debye):
    X=              1.1978    Y=             -0.6512    Z=             -2.3763  Tot=              2.7397
 Quadrupole moment (field-independent basis, Debye-Ang):
   XX=           -160.1851   YY=           -153.9069   ZZ=           -157.6948
   XY=             -3.6961   XZ=              2.7289   YZ=              5.8849
 Traceless Quadrupole moment (field-independent basis, Debye-Ang):
   XX=             -2.9229   YY=              3.3554   ZZ=             -0.4325
   XY=             -3.6961   XZ=              2.7289   YZ=              5.8849
 Octapole moment (field-independent basis, Debye-Ang**2):
  XXX=             75.3936  YYY=              7.6502  ZZZ=            -18.8398  XYY=             -0.8460
  XXY=             16.2125  XXZ=             19.6853  XZZ=              5.6396  YZZ=            -17.7658
  YYZ=            -17.6193  XYZ=             25.2042
 Hexadecapole moment (field-independent basis, Debye-Ang**3):
 XXXX=          -6028.0706 YYYY=          -2804.4809 ZZZZ=          -2251.6024 XXXY=             55.4410
 XXXZ=            -60.9859 YYYX=             18.1643 YYYZ=            192.4852 ZZZX=           -185.5281
 ZZZY=            -42.1398 XXYY=          -1442.6433 XXZZ=          -1347.9950 YYZZ=           -915.1279
 XXYZ=             15.6984 YYXZ=            160.1484 ZZXY=            -56.2245
 N-N= 2.839516393353D+03 E-N=-1.139170076336D+04  KE= 2.373161830091D+03
 PrsmSu:  requested number of processors reduced to:   2 ShMem   1 Linda.
 PrsmSu:  requested number of processors reduced to:  10 ShMem   1 Linda.
   1 Symmetry operations used in ECPInt.
 ECPInt:  NShTT=   13203 NPrTT=   78401 LenC2=   11543 LenP2D=   44728.
 LDataN:  DoStor=T MaxTD1= 9 Len=  602
 Number of processors reduced to  14 by ecpmxn.
 Calling FoFJK, ICntrl=      2127 FMM=F ISym2X=0 I1Cent= 0 IOpClX= 0 NMat=1 NMatS=1 NMatT=0.
 CoulSu:  requested number of processors reduced to:  10 ShMem   1 Linda.
 Defaulting to unpruned grid for atomic number  40.
 Defaulting to unpruned grid for atomic number  40.
 Defaulting to unpruned grid for atomic number  40.
 Defaulting to unpruned grid for atomic number  40.
 Defaulting to unpruned grid for atomic number  40.
 Defaulting to unpruned grid for atomic number  40.
 Defaulting to unpruned grid for atomic number  40.
 Defaulting to unpruned grid for atomic number  40.
 Defaulting to unpruned grid for atomic number  40.
 Defaulting to unpruned grid for atomic number  40.
 Defaulting to unpruned grid for atomic number  40.
 Defaulting to unpruned grid for atomic number  40.
 Defaulting to unpruned grid for atomic number  40.
 Defaulting to unpruned grid for atomic number  40.
 Defaulting to unpruned grid for atomic number  40.
 Defaulting to unpruned grid for atomic number  40.
 ***** Axes restored to original set *****
 -------------------------------------------------------------------
 Center     Atomic                   Forces (Hartrees/Bohr)
 Number     Number              X              Y              Z
 -------------------------------------------------------------------
      1       40          -0.001854583    0.000482065    0.000035310
      2        8          -0.000059269   -0.000054087    0.000160364
      3        8          -0.000168408   -0.000309765   -0.000066484
      4        8          -0.000014771   -0.000074955   -0.000149130
      5        8           0.001011702    0.000716930    0.000205235
      6       14           0.000106081    0.000016171    0.000085246
      7       14           0.000150198   -0.000140267    0.000053879
      8       14           0.000163336    0.000005939   -0.000114253
      9       14           0.001229630   -0.001697840   -0.000486718
     10        8          -0.000019631    0.000251260    0.000137678
     11        8          -0.000049388    0.000327445    0.000046861
     12        8          -0.000155587    0.000328374    0.000164507
     13        8          -0.000053231   -0.000010784    0.000020278
     14        8          -0.000056224    0.000038191    0.000001883
     15        8          -0.000031166    0.000007387    0.000051690
     16        8          -0.000023144    0.000003540   -0.000039896
     17        8          -0.000043548    0.000015624   -0.000023808
     18        8          -0.000043968   -0.000001445   -0.000011065
     19        8          -0.000020998    0.000034052   -0.000023052
     20        8          -0.000021567    0.000068775   -0.000018502
     21        8          -0.000036885    0.000024475   -0.000006239
     22        1          -0.000042639    0.000156063    0.000062295
     23        1          -0.000047134   -0.000028767   -0.000024858
     24        1          -0.000049174   -0.000072088   -0.000071704
     25        1           0.000015048   -0.000015637    0.000009061
     26        1           0.000006458    0.000000567   -0.000012005
     27        1           0.000042983   -0.000008896   -0.000010429
     28        1           0.000012165   -0.000042286    0.000000383
     29        1           0.000037811    0.000000416   -0.000002268
     30        1           0.000001196   -0.000004793    0.000006464
     31        1           0.000018790    0.000001295    0.000002457
     32        1           0.000000908   -0.000007730    0.000015844
     33        1          -0.000004992   -0.000009229    0.000000978
 -------------------------------------------------------------------
 Cartesian Forces:  Max     0.001854583 RMS     0.000327404

 GradGradGradGradGradGradGradGradGradGradGradGradGradGradGradGradGradGrad
 Berny optimization.
 FormGI is forming the generalized inverse of G from B-inverse, IUseBI=4.
 Internal  Forces:  Max     0.001856429 RMS     0.000244113
 Search for a local minimum.
 Step number   1 out of a maximum of  148
 All quantities printed in internal units (Hartrees-Bohrs-Radians)
 Mixed Optimization -- En-DIIS/RFO-DIIS
 Second derivative matrix not updated -- first step.
 ITU=  0
     Eigenvalues ---    0.00230   0.00230   0.00230   0.03240   0.03358
     Eigenvalues ---    0.03498   0.03580   0.03665   0.03665   0.03680
     Eigenvalues ---    0.03686   0.03693   0.03739   0.03789   0.03792
     Eigenvalues ---    0.03816   0.03834   0.03850   0.05521   0.09402
     Eigenvalues ---    0.09687   0.11077   0.11224   0.11833   0.11884
     Eigenvalues ---    0.11890   0.12177   0.12239   0.12299   0.12782
     Eigenvalues ---    0.12895   0.13099   0.13313   0.16000   0.16000
     Eigenvalues ---    0.16000   0.16000   0.16000   0.16000   0.16000
     Eigenvalues ---    0.16000   0.16000   0.16000   0.16000   0.16000
     Eigenvalues ---    0.19173   0.19314   0.19332   0.20013   0.20203
     Eigenvalues ---    0.20204   0.20208   0.20515   0.20653   0.20795
     Eigenvalues ---    0.20989   0.21175   0.21186   0.21227   0.25000
     Eigenvalues ---    0.25000   0.25000   0.38002   0.39187   0.40659
     Eigenvalues ---    0.41547   0.42502   0.42508   0.42670   0.42743
     Eigenvalues ---    0.42824   0.43363   0.43951   0.43980   0.44273
     Eigenvalues ---    0.44485   0.44689   0.44768   0.50655   0.51353
     Eigenvalues ---    0.52036   0.52548   0.54334   0.54624   0.54642
     Eigenvalues ---    0.54649   0.54689   0.54692   0.54711   0.54765
     Eigenvalues --- 1000.000001000.000001000.000001000.000001000.00000
     Eigenvalues --- 1000.000001000.000001000.000001000.000001000.00000
     Eigenvalues --- 1000.000001000.000001000.000001000.000001000.00000
     Eigenvalues --- 1000.000001000.000001000.000001000.000001000.00000
     Eigenvalues --- 1000.000001000.000001000.000001000.000001000.00000
     Eigenvalues --- 1000.000001000.000001000.000001000.000001000.00000
     Eigenvalues --- 1000.000001000.000001000.000001000.000001000.00000
     Eigenvalues --- 1000.000001000.000001000.000001000.000001000.00000
     Eigenvalues --- 1000.000001000.000001000.000001000.000001000.00000
     Eigenvalues --- 1000.000001000.000001000.00000
 RFO step:  Lambda=-2.97231501D-05 EMin= 2.30000000D-03
 Linear search not attempted -- first point.
 Iteration  1 RMS(Cart)=  0.01405618 RMS(Int)=  0.00004983
 Iteration  2 RMS(Cart)=  0.00008543 RMS(Int)=  0.00000054
 Iteration  3 RMS(Cart)=  0.00000000 RMS(Int)=  0.00000054
 Iteration  1 RMS(Cart)=  0.00000010 RMS(Int)=  0.00000003
 Variable       Old X    -DE/DX   Delta X   Delta X   Delta X     New X
                                 (Linear)    (Quad)   (Total)
    R1        3.67647   0.00009   0.00000   0.00042   0.00042   3.67689
    R2        3.69189  -0.00034   0.00000  -0.00165  -0.00165   3.69024
    R3        3.73835   0.00012   0.00000   0.00062   0.00062   3.73897
    R4        3.70232   0.00186   0.00000   0.00919   0.00919   3.71151
    R5        3.11688  -0.00010   0.00000  -0.00024  -0.00024   3.11663
    R6        3.09579  -0.00013   0.00000  -0.00029  -0.00029   3.09550
    R7        3.10213  -0.00002   0.00000  -0.00004  -0.00004   3.10209
    R8        3.09246   0.00062   0.00000   0.00139   0.00139   3.09385
    R9        3.11587   0.00003   0.00000   0.00006   0.00006   3.11593
   R10        3.11989   0.00002   0.00000   0.00006   0.00006   3.11995
   R11        3.14367   0.00001   0.00000   0.00001   0.00001   3.14369
   R12        3.18062   0.00002   0.00000   0.00005   0.00005   3.18067
   R13        3.10924   0.00002   0.00000   0.00006   0.00006   3.10930
   R14        3.09339  -0.00001   0.00000  -0.00002  -0.00002   3.09336
   R15        3.10179   0.00003   0.00000   0.00007   0.00007   3.10185
   R16        3.16373   0.00003   0.00000   0.00008   0.00008   3.16382
   R17        3.09830   0.00004   0.00000   0.00009   0.00009   3.09839
   R18        3.11981  -0.00009   0.00000  -0.00022  -0.00022   3.11959
   R19        3.13204  -0.00025   0.00000  -0.00060  -0.00060   3.13143
   R20        3.11779   0.00053   0.00000   0.00125   0.00125   3.11904
   R21        1.82152   0.00001   0.00000   0.00001   0.00001   1.82153
   R22        1.82107  -0.00000   0.00000  -0.00001  -0.00001   1.82106
   R23        1.82089   0.00005   0.00000   0.00009   0.00009   1.82098
   R24        1.84078  -0.00001   0.00000  -0.00002  -0.00002   1.84077
   R25        1.84565  -0.00000   0.00000  -0.00001  -0.00001   1.84564
   R26        1.82041  -0.00001   0.00000  -0.00002  -0.00002   1.82039
   R27        1.82109  -0.00001   0.00000  -0.00002  -0.00002   1.82107
   R28        1.85910  -0.00001   0.00000  -0.00002  -0.00002   1.85908
   R29        1.82145  -0.00000   0.00000  -0.00000  -0.00000   1.82145
   R30        1.82428  -0.00001   0.00000  -0.00001  -0.00001   1.82427
   R31        1.82168  -0.00002   0.00000  -0.00004  -0.00004   1.82164
   R32        1.85224  -0.00001   0.00000  -0.00003  -0.00003   1.85221
    A1        1.85172  -0.00008   0.00000  -0.00097  -0.00097   1.85075
    A2        1.80155   0.00011   0.00000   0.00026   0.00026   1.80181
    A3        1.96889  -0.00006   0.00000  -0.00076  -0.00076   1.96813
    A4        1.83430  -0.00006   0.00000   0.00046   0.00046   1.83477
    A5        2.01802   0.00025   0.00000   0.00150   0.00150   2.01953
    A6        1.97057  -0.00016   0.00000  -0.00057  -0.00057   1.97000
    A7        2.46524  -0.00020   0.00000  -0.00079  -0.00079   2.46446
    A8        2.58826   0.00010   0.00000   0.00042   0.00042   2.58868
    A9        2.35483   0.00003   0.00000   0.00010   0.00010   2.35493
   A10        2.70526   0.00164   0.00000   0.00000  -0.00000   2.70526
   A11        1.91978  -0.00002   0.00000  -0.00009  -0.00009   1.91968
   A12        1.91546   0.00006   0.00000   0.00037   0.00037   1.91583
   A13        1.95201   0.00002   0.00000   0.00013   0.00013   1.95215
   A14        2.00708  -0.00003   0.00000  -0.00023  -0.00023   2.00685
   A15        1.88610  -0.00001   0.00000  -0.00012  -0.00012   1.88598
[...]
 Alpha virt. eigenvalues --    3.47831   3.48615   3.49018   3.51032   3.51044
 Alpha virt. eigenvalues --    3.52370   3.54517   3.60359   3.61106   3.62026
 Alpha virt. eigenvalues --    3.66206   4.37230   4.65400   7.74235  31.25104
          Condensed to atoms (all electrons):
               1          2          3          4          5          6
     1  Zr  15.429670  -0.151482   0.001879  -0.180849  -0.145851  -0.636550
     2  O   -0.151482   9.058074   0.016374  -0.041955  -0.051196   0.091795
     3  O    0.001879   0.016374   8.806428   0.011936  -0.047464  -0.007601
     4  O   -0.180849  -0.041955   0.011936   8.802754  -0.064665  -0.650100
     5  O   -0.145851  -0.051196  -0.047464  -0.064665   9.346431  -0.001117
     6  Si  -0.636550   0.091795  -0.007601  -0.650100  -0.001117  13.956098
     7  Si  -0.641857  -0.026193  -0.867221  -0.005167  -0.029585   0.092452
     8  Si  -0.628602  -0.972164  -0.027736   0.082131  -0.007063  -0.019063
     9  Si  -0.460132  -0.028379   0.008432  -0.019060  -1.210860   0.052584
    10  O   -0.019814   0.000656  -0.003485   0.000320   0.125595  -0.003015
    11  O   -0.090020   0.003280   0.002912   0.001336   0.324165  -0.000525
    12  O    0.056842  -0.000285   0.005550   0.001932   0.168606  -0.003492
    13  O   -0.030639   0.190706   0.001500  -0.014512  -0.000904   0.030219
    14  O   -0.034408   0.257595  -0.018460  -0.009639   0.000893   0.034217
    15  O   -0.084995   0.287635  -0.000617   0.001140   0.000556   0.001086
    16  O   -0.115685   0.004650  -0.000525   0.342729   0.002886  -0.429711
    17  O   -0.115626  -0.038429   0.006904   0.214484   0.000519  -0.427953
    18  O   -0.043640  -0.014456   0.003607   0.203760  -0.000783  -0.444599
    19  O   -0.001310   0.009028   0.269258   0.011455   0.002004  -0.008686
    20  O   -0.141071  -0.000593   0.152838  -0.000820   0.000917   0.009139
    21  O    0.041514   0.010405   0.156897   0.003649   0.000529  -0.014830
    22  H   -0.011300  -0.000013   0.000035  -0.000009   0.004316   0.000135
    23  H   -0.005893  -0.000012  -0.000006  -0.000058  -0.024932   0.000084
    24  H   -0.005764  -0.000137  -0.000000   0.000001  -0.003078   0.000045
    25  H    0.015911  -0.019967  -0.000103  -0.000573   0.000024   0.003635
    26  H    0.008525   0.000718   0.000014  -0.000010  -0.000002  -0.000291
    27  H    0.012074  -0.019422   0.000930  -0.001647   0.000021   0.006589
    28  H    0.004524  -0.000010  -0.018084  -0.000015  -0.000013  -0.000295
    29  H    0.004062  -0.007015  -0.020265  -0.000127  -0.000062  -0.000078
    30  H    0.000962  -0.000014   0.000180  -0.000464  -0.000007  -0.000966
    31  H    0.000774   0.000163  -0.000021  -0.018456  -0.000008   0.063746
    32  H    0.001946  -0.000026   0.000039   0.010709   0.000004   0.022870
    33  H   -0.017601   0.001025  -0.010251  -0.009798  -0.000081   0.054596
               7          8          9         10         11         12
     1  Zr  -0.641857  -0.628602  -0.460132  -0.019814  -0.090020   0.056842
     2  O   -0.026193  -0.972164  -0.028379   0.000656   0.003280  -0.000285
     3  O   -0.867221  -0.027736   0.008432  -0.003485   0.002912   0.005550
     4  O   -0.005167   0.082131  -0.019060   0.000320   0.001336   0.001932
     5  O   -0.029585  -0.007063  -1.210860   0.125595   0.324165   0.168606
     6  Si   0.092452  -0.019063   0.052584  -0.003015  -0.000525  -0.003492
     7  Si  13.785791   0.189292   0.026693   0.000216  -0.000324   0.004156
     8  Si   0.189292  13.766920   0.032821  -0.001085   0.001628  -0.001187
     9  Si   0.026693   0.032821  14.268446  -0.036160  -0.191136  -0.278402
    10  O    0.000216  -0.001085  -0.036160   8.529087  -0.008286   0.044035
    11  O   -0.000324   0.001628  -0.191136  -0.008286   8.561175  -0.048609
    12  O    0.004156  -0.001187  -0.278402   0.044035  -0.048609   8.631231
    13  O    0.006700  -0.099003  -0.000139   0.000000   0.000016   0.000014
    14  O    0.014374  -0.350181  -0.001097  -0.000001   0.000004   0.000042
    15  O   -0.001942  -0.298509  -0.000237   0.000001  -0.000027  -0.000034
    16  O    0.003445  -0.011037  -0.001382   0.000010  -0.000003   0.000001
    17  O    0.005188   0.104930   0.003589  -0.000000   0.000002  -0.000007
    18  O   -0.000965   0.078279   0.004258   0.000001  -0.000000  -0.000001
    19  O   -0.413731  -0.017363   0.000977   0.000009   0.000000  -0.000018
    20  O   -0.092512   0.009855   0.003627   0.000004  -0.000002  -0.000036
    21  O    0.009187  -0.043631  -0.002769   0.000001   0.000003   0.000033
    22  H   -0.000259   0.000143   0.050957  -0.005416  -0.004871   0.219231
    23  H    0.000050   0.000054   0.076311   0.230100  -0.005416   0.005867
    24  H    0.000058  -0.000074   0.037914   0.007524   0.238190  -0.006872
    25  H   -0.000398   0.057540  -0.000174   0.000000  -0.000000  -0.000000
    26  H   -0.000417   0.045041  -0.000068  -0.000000   0.000000  -0.000000
    27  H    0.000244   0.065523  -0.000082   0.000000  -0.000000  -0.000000
    28  H    0.056299  -0.000050  -0.000144  -0.000000  -0.000000  -0.000009
    29  H    0.048387   0.021806  -0.000085   0.000000  -0.000000  -0.000002
    30  H    0.040643   0.000139   0.000019   0.000000  -0.000000  -0.000000
    31  H    0.000153  -0.002340  -0.000051   0.000000  -0.000000  -0.000000
    32  H   -0.000697   0.000071  -0.000031  -0.000000   0.000000  -0.000000
    33  H    0.020865   0.000272   0.000108  -0.000000   0.000000   0.000000
              13         14         15         16         17         18
     1  Zr  -0.030639  -0.034408  -0.084995  -0.115685  -0.115626  -0.043640
     2  O    0.190706   0.257595   0.287635   0.004650  -0.038429  -0.014456
     3  O    0.001500  -0.018460  -0.000617  -0.000525   0.006904   0.003607
     4  O   -0.014512  -0.009639   0.001140   0.342729   0.214484   0.203760
     5  O   -0.000904   0.000893   0.000556   0.002886   0.000519  -0.000783
     6  Si   0.030219   0.034217   0.001086  -0.429711  -0.427953  -0.444599
     7  Si   0.006700   0.014374  -0.001942   0.003445   0.005188  -0.000965
     8  Si  -0.099003  -0.350181  -0.298509  -0.011037   0.104930   0.078279
     9  Si  -0.000139  -0.001097  -0.000237  -0.001382   0.003589   0.004258
    10  O    0.000000  -0.000001   0.000001   0.000010  -0.000000   0.000001
    11  O    0.000016   0.000004  -0.000027  -0.000003   0.000002  -0.000000
    12  O    0.000014   0.000042  -0.000034   0.000001  -0.000007  -0.000001
    13  O    8.629228   0.086951  -0.092489   0.003744  -0.030854  -0.045338
    14  O    0.086951   8.672242   0.055775   0.003518  -0.035409  -0.027318
    15  O   -0.092489   0.055775   8.774774  -0.000174   0.003665   0.001688
    16  O    0.003744   0.003518  -0.000174   8.902002  -0.092553  -0.114604
    17  O   -0.030854  -0.035409   0.003665  -0.092553   8.932450   0.228019
    18  O   -0.045338  -0.027318   0.001688  -0.114604   0.228019   9.012012
    19  O    0.000201  -0.000165   0.000141  -0.001447  -0.029315   0.000191
    20  O    0.000009  -0.000484   0.000035   0.000054  -0.001151   0.000018
    21  O   -0.000245   0.016840  -0.000564  -0.000199  -0.005651   0.000462
    22  H   -0.000000   0.000000   0.000000  -0.000000   0.000000  -0.000000
    23  H    0.000000   0.000000  -0.000000   0.000000   0.000000  -0.000000
    24  H   -0.000000   0.000000   0.000001   0.000000  -0.000000  -0.000000
    25  H    0.218573  -0.011775   0.008941  -0.000056   0.000586   0.014628
    26  H   -0.005211  -0.010189   0.217233   0.000000  -0.000005   0.000005
    27  H   -0.009736   0.218407   0.004571   0.000208   0.017523  -0.000278
    28  H    0.000000  -0.000005  -0.000001  -0.000000   0.000003  -0.000000
    29  H    0.000781   0.017706  -0.002543  -0.000004  -0.000393   0.000008
    30  H    0.000001   0.000001   0.000000   0.000119  -0.000357  -0.000008
    31  H    0.002316   0.000173  -0.000018   0.003655  -0.000692   0.217749
    32  H   -0.000008  -0.000006   0.000000   0.233298  -0.003591   0.003815
    33  H    0.000240   0.002164  -0.000037  -0.000158   0.231370   0.002055
              19         20         21         22         23         24
     1  Zr  -0.001310  -0.141071   0.041514  -0.011300  -0.005893  -0.005764
     2  O    0.009028  -0.000593   0.010405  -0.000013  -0.000012  -0.000137
     3  O    0.269258   0.152838   0.156897   0.000035  -0.000006  -0.000000
     4  O    0.011455  -0.000820   0.003649  -0.000009  -0.000058   0.000001
     5  O    0.002004   0.000917   0.000529   0.004316  -0.024932  -0.003078
     6  Si  -0.008686   0.009139  -0.014830   0.000135   0.000084   0.000045
     7  Si  -0.413731  -0.092512   0.009187  -0.000259   0.000050   0.000058
     8  Si  -0.017363   0.009855  -0.043631   0.000143   0.000054  -0.000074
     9  Si   0.000977   0.003627  -0.002769   0.050957   0.076311   0.037914
    10  O    0.000009   0.000004   0.000001  -0.005416   0.230100   0.007524
    11  O    0.000000  -0.000002   0.000003  -0.004871  -0.005416   0.238190
    12  O   -0.000018  -0.000036   0.000033   0.219231   0.005867  -0.006872
    13  O    0.000201   0.000009  -0.000245  -0.000000   0.000000  -0.000000
    14  O   -0.000165  -0.000484   0.016840   0.000000   0.000000   0.000000
    15  O    0.000141   0.000035  -0.000564   0.000000  -0.000000   0.000001
    16  O   -0.001447   0.000054  -0.000199  -0.000000   0.000000   0.000000
    17  O   -0.029315  -0.001151  -0.005651   0.000000   0.000000  -0.000000
    18  O    0.000191   0.000018   0.000462  -0.000000  -0.000000  -0.000000
    19  O    8.874352   0.031778   0.026048  -0.000000   0.000000  -0.000000
    20  O    0.031778   8.647726  -0.051306   0.000001   0.000000  -0.000000
    21  O    0.026048  -0.051306   8.490554  -0.000001   0.000000   0.000000
    22  H   -0.000000   0.000001  -0.000001   0.356897   0.000042   0.000107
    23  H    0.000000   0.000000   0.000000   0.000042   0.351508   0.000023
    24  H   -0.000000  -0.000000   0.000000   0.000107   0.000023   0.365686
    25  H   -0.000024   0.000000  -0.000017   0.000000   0.000000   0.000000
    26  H    0.000000  -0.000000   0.000038  -0.000000  -0.000000  -0.000000
    27  H   -0.000023   0.000197  -0.004106  -0.000000  -0.000000   0.000000
    28  H    0.004674   0.229941  -0.002061  -0.000000   0.000000  -0.000000
    29  H   -0.008610   0.007692   0.206626   0.000000  -0.000000  -0.000000
    30  H    0.224089  -0.001571  -0.007263   0.000000  -0.000000   0.000000
    31  H    0.000004  -0.000000  -0.000000  -0.000000  -0.000000   0.000000
    32  H    0.000089   0.000000   0.000001  -0.000000  -0.000000  -0.000000
    33  H    0.014596  -0.000042   0.001391  -0.000000  -0.000000  -0.000000
              25         26         27         28         29         30
     1  Zr   0.015911   0.008525   0.012074   0.004524   0.004062   0.000962
     2  O   -0.019967   0.000718  -0.019422  -0.000010  -0.007015  -0.000014
     3  O   -0.000103   0.000014   0.000930  -0.018084  -0.020265   0.000180
     4  O   -0.000573  -0.000010  -0.001647  -0.000015  -0.000127  -0.000464
     5  O    0.000024  -0.000002   0.000021  -0.000013  -0.000062  -0.000007
     6  Si   0.003635  -0.000291   0.006589  -0.000295  -0.000078  -0.000966
     7  Si  -0.000398  -0.000417   0.000244   0.056299   0.048387   0.040643
     8  Si   0.057540   0.045041   0.065523  -0.000050   0.021806   0.000139
     9  Si  -0.000174  -0.000068  -0.000082  -0.000144  -0.000085   0.000019
    10  O    0.000000  -0.000000   0.000000  -0.000000   0.000000   0.000000
    11  O   -0.000000   0.000000  -0.000000  -0.000000  -0.000000  -0.000000
    12  O   -0.000000  -0.000000  -0.000000  -0.000009  -0.000002  -0.000000
    13  O    0.218573  -0.005211  -0.009736   0.000000   0.000781   0.000001
    14  O   -0.011775  -0.010189   0.218407  -0.000005   0.017706   0.000001
    15  O    0.008941   0.217233   0.004571  -0.000001  -0.002543   0.000000
    16  O   -0.000056   0.000000   0.000208  -0.000000  -0.000004   0.000119
    17  O    0.000586  -0.000005   0.017523   0.000003  -0.000393  -0.000357
    18  O    0.014628   0.000005  -0.000278  -0.000000   0.000008  -0.000008
    19  O   -0.000024   0.000000  -0.000023   0.004674  -0.008610   0.224089
    20  O    0.000000  -0.000000   0.000197   0.229941   0.007692  -0.001571
    21  O   -0.000017   0.000038  -0.004106  -0.002061   0.206626  -0.007263
    22  H    0.000000  -0.000000  -0.000000  -0.000000   0.000000   0.000000
    23  H    0.000000  -0.000000  -0.000000   0.000000  -0.000000  -0.000000
    24  H    0.000000  -0.000000   0.000000  -0.000000  -0.000000   0.000000
    25  H    0.299285  -0.000010   0.000096   0.000000   0.000001   0.000000
    26  H   -0.000010   0.366272   0.000039   0.000000   0.000021  -0.000000
    27  H    0.000096   0.000039   0.283627  -0.000000  -0.001472   0.000009
    28  H    0.000000   0.000000  -0.000000   0.349478  -0.000017  -0.000014
    29  H    0.000001   0.000021  -0.001472  -0.000017   0.285910   0.000155
    30  H    0.000000  -0.000000   0.000009  -0.000014   0.000155   0.334482
    31  H   -0.000479   0.000000   0.000012  -0.000000   0.000000  -0.000000
    32  H   -0.000001   0.000000  -0.000000   0.000000  -0.000000  -0.000000
    33  H    0.000005  -0.000000  -0.002411  -0.000002   0.000109  -0.001135
              31         32         33
     1  Zr   0.000774   0.001946  -0.017601
     2  O    0.000163  -0.000026   0.001025
     3  O   -0.000021   0.000039  -0.010251
     4  O   -0.018456   0.010709  -0.009798
     5  O   -0.000008   0.000004  -0.000081
     6  Si   0.063746   0.022870   0.054596
     7  Si   0.000153  -0.000697   0.020865
     8  Si  -0.002340   0.000071   0.000272
     9  Si  -0.000051  -0.000031   0.000108
    10  O    0.000000  -0.000000  -0.000000
    11  O   -0.000000   0.000000   0.000000
    12  O   -0.000000  -0.000000   0.000000
    13  O    0.002316  -0.000008   0.000240
    14  O    0.000173  -0.000006   0.002164
    15  O   -0.000018   0.000000  -0.000037
    16  O    0.003655   0.233298  -0.000158
    17  O   -0.000692  -0.003591   0.231370
    18  O    0.217749   0.003815   0.002055
    19  O    0.000004   0.000089   0.014596
    20  O   -0.000000   0.000000  -0.000042
    21  O   -0.000000   0.000001   0.001391
    22  H   -0.000000  -0.000000  -0.000000
    23  H   -0.000000  -0.000000  -0.000000
    24  H    0.000000  -0.000000  -0.000000
    25  H   -0.000479  -0.000001   0.000005
    26  H    0.000000   0.000000  -0.000000
    27  H    0.000012  -0.000000  -0.002411
    28  H   -0.000000   0.000000  -0.000002
    29  H    0.000000  -0.000000   0.000109
    30  H   -0.000000  -0.000000  -0.001135
    31  H    0.331796   0.000002  -0.000038
    32  H    0.000002   0.350079   0.000157
    33  H   -0.000038   0.000157   0.269100
 Mulliken charges:
               1
     1  Zr  -0.015593
     2  O   -0.560357
     3  O   -0.423875
     4  O   -0.670410
     5  O   -0.389797
     6  Si   2.229582
     7  Si   1.777074
     8  Si   2.022643
     9  Si   1.663652
    10  O   -0.860294
    11  O   -0.783491
    12  O   -0.798586
    13  O   -0.842120
    14  O   -0.881763
    15  O   -0.875055
    16  O   -0.732778
    17  O   -0.967246
    18  O   -1.078565
    19  O   -0.988204
    20  O   -0.804244
    21  O   -0.831536
    22  H    0.390005
    23  H    0.372279
    24  H    0.366377
    25  H    0.414352
    26  H    0.378299
    27  H    0.429103
    28  H    0.375801
    29  H    0.447409
    30  H    0.411000
    31  H    0.401561
    32  H    0.381278
    33  H    0.443498
 Sum of Mulliken charges =  -0.00000
 Mulliken charges with hydrogens summed into heavy atoms:
               1
     1  Zr  -0.015593
     2  O   -0.560357
     3  O   -0.423875
     4  O   -0.670410
     5  O   -0.389797
     6  Si   2.229582
     7  Si   1.777074
     8  Si   2.022643
     9  Si   1.663652
    10  O   -0.488015
    11  O   -0.417114
    12  O   -0.408581
    13  O   -0.427768
    14  O   -0.452660
    15  O   -0.496756
    16  O   -0.351500
    17  O   -0.523748
    18  O   -0.677004
    19  O   -0.577204
    20  O   -0.428442
    21  O   -0.384127
 Electronic spatial extent (au):  <R**2>=           9779.7124
 Charge=             -0.0000 electrons
 Dipole moment (field-independent basis, Debye):
    X=              1.1435    Y=             -0.6810    Z=             -2.4355  Tot=              2.7754
 Quadrupole moment (field-independent basis, Debye-Ang):
   XX=           -160.8365   YY=           -153.6993   ZZ=           -157.7794
   XY=             -3.7694   XZ=              2.3497   YZ=              5.9523
 Traceless Quadrupole moment (field-independent basis, Debye-Ang):
   XX=             -3.3981   YY=              3.7391   ZZ=             -0.3410
   XY=             -3.7694   XZ=              2.3497   YZ=              5.9523
 Octapole moment (field-independent basis, Debye-Ang**2):
  XXX=             71.0542  YYY=              6.6974  ZZZ=            -19.3195  XYY=              0.2796
  XXY=             16.7236  XXZ=             17.9550  XZZ=              5.3178  YZZ=            -17.5316
  YYZ=            -17.4321  XYZ=             25.7998
 Hexadecapole moment (field-independent basis, Debye-Ang**3):
 XXXX=          -6062.7543 YYYY=          -2804.4604 ZZZZ=          -2251.2168 XXXY=             55.9999
 XXXZ=            -68.4742 YYYX=             17.8242 YYYZ=            192.2776 ZZZX=           -189.2086
 ZZZY=            -41.0767 XXYY=          -1442.6018 XXZZ=          -1351.4112 YYZZ=           -916.5608
 XXYZ=             16.3035 YYXZ=            160.3048 ZZXY=            -56.2638
 N-N= 2.839049907356D+03 E-N=-1.139074560525D+04  KE= 2.373154389614D+03
 1\1\GINC-GRA620\FOpt\RB3LYP\Gen\H12O16Si4Zr1\SARASHS\12-Aug-2020\0\\#n
  B3LYP/Gen Pseudo=cards EmpiricalDispersion=GD3 Opt=modredundant\\Titl
 e\\0,1\Zr,0.6579311603,-0.1221577834,-0.07056862\O,-0.220870713,-0.905
 9340334,1.4781044004\O,0.0942556676,1.7463200874,-0.1213256902\O,-0.26
 57772538,-0.9776319848,-1.5965089292\O,2.5961569508,-0.436248903,-0.08
 17948568\Si,-1.8283372726,-1.3341527498,-1.9518352668\Si,-1.1221559039
 ,2.8428029593,-0.0839257011\Si,-1.7218749576,-1.1499094221,2.116777901
 7\Si,4.169454446,-0.0099308418,0.0726840591\O,4.9322509058,0.271942882
 7,-1.3640036398\O,5.0252901717,-1.2319330899,0.7930665134\O,4.14337246
 44,1.4019419139,0.927706608\O,-2.3179685805,-2.6221546534,1.7024849804
 \O,-2.7221681943,0.066598805,1.5490555992\O,-1.5957708449,-1.011375535
 8,3.7456331526\O,-1.9979872121,-1.564836983,-3.5756715335\O,-2.8244135
 23,-0.1887701256,-1.302481339\O,-2.3399642517,-2.7150379637,-1.1779324
 006\O,-2.0460923864,2.439982357,-1.4316942695\O,-0.6399782758,4.400578
 458,-0.3029947227\O,-1.9732625131,2.7648049373,1.3121740321\H,4.956613
 9152,1.9184361239,0.9455005976\H,5.4054938951,-0.4772895424,-1.7432591
 829\H,4.6058468346,-1.6895313841,1.5301714569\H,-2.4038407896,-2.80987
 84569,0.7505392476\H,-2.3797131499,-1.2152739747,4.2670140925\H,-3.056
 5995509,-0.0827591971,0.6436066423\H,-0.5255693777,4.9263937215,0.4968
 14663\H,-2.273142308,1.872649665,1.5856319164\H,-2.655904134,3.1258316
 876,-1.7311092715\H,-2.2939066569,-3.5318465826,-1.6876178372\H,-1.266
 5958248,-1.2708256293,-4.1300160803\H,-2.6115927371,0.7527152379,-1.49
 24265221\\Version=ES64L-G16RevB.01\State=1-A\HF=-2416.9467722\RMSD=5.0
 45e-09\RMSF=1.001e-04\Dipole=0.4826633,-0.2418819,-0.9491239\Quadrupol
 e=-2.126324,2.4128738,-0.2865498,-3.2183622,1.4143223,4.4728656\PG=C01
  [X(H12O16Si4Zr1)]\\@


 LEARN FROM YESTERDAY,
 LIVE FOR TODAY,
 LOOK TO TOMORROW,
 REST THIS AFTERNOON.

           -- SNOOPY
 Job cpu time:       1 days  1 hours  8 minutes  2.4 seconds.
 Elapsed time:       0 days  1 hours 56 minutes 39.8 seconds.
 File lengths (MBytes):  RWF=    167 Int=      0 D2E=      0 Chk=     21 Scr=      1
 Normal termination of Gaussian 16 at Wed Aug 12 21:39:43 2020.
