 Entering Gaussian System, Link 0=g16
 Initial command:
 /opt/software/gaussian/g16.b01/l1.exe "/localscratch/sarashs.36760140.0/Gau-58134.inp" -scrdir="/localscratch/sarashs.36760140.0/"
 Entering Link 1 = /opt/software/gaussian/g16.b01/l1.exe PID=     58135.
  
 Copyright (c) 1988-2017, Gaussian, Inc.  All Rights Reserved.
  
 This is part of the Gaussian(R) 16 program.  It is based on
 the Gaussian(R) 09 system (copyright 2009, Gaussian, Inc.),
 the Gaussian(R) 03 system (copyright 2003, Gaussian, Inc.),
 the Gaussian(R) 98 system (copyright 1998, Gaussian, Inc.),
 the Gaussian(R) 94 system (copyright 1995, Gaussian, Inc.),
 the Gaussian 92(TM) system (copyright 1992, Gaussian, Inc.),
 the Gaussian 90(TM) system (copyright 1990, Gaussian, Inc.),
 the Gaussian 88(TM) system (copyright 1988, Gaussian, Inc.),
 the Gaussian 86(TM) system (copyright 1986, Carnegie Mellon
 University), and the Gaussian 82(TM) system (copyright 1983,
 Carnegie Mellon University). Gaussian is a federally registered
 trademark of Gaussian, Inc.
  
 This software contains proprietary and confidential information,
 including trade secrets, belonging to Gaussian, Inc.
  
 This software is provided under written license and may be
 used, copied, transmitted, or stored only in accord with that
 written license.
  
 The following legend is applicable only to US Government
 contracts under FAR:
  
                    RESTRICTED RIGHTS LEGEND
  
 Use, reproduction and disclosure by the US Government is
 subject to restrictions as set forth in subparagraphs (a)
 and (c) of the Commercial Computer Software - Restricted
 Rights clause in FAR 52.227-19.
  
 Gaussian, Inc.
 340 Quinnipiac St., Bldg. 40, Wallingford CT 06492
  
  
 ---------------------------------------------------------------
 Warning -- This program may not be used in any manner that
 competes with the business of Gaussian, Inc. or will provide
 assistance to any competitor of Gaussian, Inc.  The licensee
 of this program is prohibited from giving any competitor of
 Gaussian, Inc. access to this program.  By using this program,
 the user acknowledges that Gaussian, Inc. is engaged in the
 business of creating and licensing software in the field of
 computational chemistry and represents and warrants to the
 licensee that it is not a competitor of Gaussian, Inc. and that
 it will not use this program in any manner prohibited above.
 ---------------------------------------------------------------
  

 Cite this work as:
 Gaussian 16, Revision B.01,
 M. J. Frisch, G. W. Trucks, H. B. Schlegel, G. E. Scuseria, 
 M. A. Robb, J. R. Cheeseman, G. Scalmani, V. Barone, 
 G. A. Petersson, H. Nakatsuji, X. Li, M. Caricato, A. V. Marenich, 
 J. Bloino, B. G. Janesko, R. Gomperts, B. Mennucci, H. P. Hratchian, 
 J. V. Ortiz, A. F. Izmaylov, J. L. Sonnenberg, D. Williams-Young, 
 F. Ding, F. Lipparini, F. Egidi, J. Goings, B. Peng, A. Petrone, 
 T. Henderson, D. Ranasinghe, V. G. Zakrzewski, J. Gao, N. Rega, 
 G. Zheng, W. Liang, M. Hada, M. Ehara, K. Toyota, R. Fukuda, 
 J. Hasegawa, M. Ishida, T. Nakajima, Y. Honda, O. Kitao, H. Nakai, 
 T. Vreven, K. Throssell, J. A. Montgomery, Jr., J. E. Peralta, 
 F. Ogliaro, M. J. Bearpark, J. J. Heyd, E. N. Brothers, K. N. Kudin, 
 V. N. Staroverov, T. A. Keith, R. Kobayashi, J. Normand, 
 K. Raghavachari, A. P. Rendell, J. C. Burant, S. S. Iyengar, 
 J. Tomasi, M. Cossi, J. M. Millam, M. Klene, C. Adamo, R. Cammi, 
 J. W. Ochterski, R. L. Martin, K. Morokuma, O. Farkas, 
 J. B. Foresman, and D. J. Fox, Gaussian, Inc., Wallingford CT, 2016.
 
 ******************************************
 Gaussian 16:  ES64L-G16RevB.01 20-Dec-2017
                 2-Aug-2020 
 ******************************************
 %NProcShared=16
 Will use up to   16 processors via shared memory.
 ------------------------------------------------------------------
 #n B3LYP/Gen Pseudo=cards EmpiricalDispersion=GD3 Opt=modredundant
 ------------------------------------------------------------------
 1/18=120,19=15,26=3,38=1/1,3;
 2/9=110,12=2,17=6,18=5,40=1/2;
 3/5=7,11=2,16=1,17=8,25=1,30=1,71=1,74=-5,124=31/1,2,3;
 4//1;
 5/5=2,38=5/2;
 6/7=2,8=2,9=2,10=2,28=1/1;
 7//1,2,3,16;
 1/18=20,19=15,26=3/3(2);
 2/9=110/2;
 99//99;
 2/9=110/2;
 3/5=7,6=1,11=2,16=1,17=8,25=1,30=1,71=1,74=-5,82=7,124=31/1,2,3;
 4/5=5,16=3,69=1/1;
 5/5=2,38=5/2;
 7//1,2,3,16;
 1/18=20,19=15,26=3/3(-5);
 2/9=110/2;
 6/7=2,8=2,9=2,10=2,19=2,28=1/1;
 99/9=1/99;
 -----
 Title
 -----
 Symbolic Z-matrix:
 Charge =  0 Multiplicity = 1
 Zr                    0.64646  -0.19013  -0.1519 
 O                    -0.19212  -0.93131   1.43939 
 O                     0.17263   1.70395  -0.1904 
 O                    -0.37772  -1.01692  -1.62844 
 O                     2.5678   -0.57883  -0.26812 
 Si                   -1.96924  -1.33216  -1.87829 
 Si                   -0.98958   2.85681  -0.11809 
 Si                   -1.67476  -1.05152   2.17706 
 Si                    4.17525  -0.36416  -0.04892 
 O                     4.9271    0.4164   -1.29345 
 O                     4.93819  -1.83036   0.07322 
 O                     4.29371   0.58036   1.30039 
 O                    -2.33574  -2.51245   1.83004 
 O                    -2.6209    0.20928   1.64149 
 O                    -1.552    -0.82432   3.7965 
 O                    -2.25427  -1.59164  -3.48183 
 O                    -2.88371  -0.13912  -1.19557 
 O                    -2.46027  -2.68598  -1.04579 
 O                    -2.00825   2.45605  -1.3967 
 O                    -0.44623   4.38142  -0.41555 
 O                    -1.75835   2.86715   1.32642 
 H                     5.14666   0.99598   1.46876 
 H                     5.331    -0.14651  -1.96356 
 H                     4.50627  -2.51038   0.60166 
 H                    -2.40738  -2.74575   0.88712 
 H                    -0.93391  -1.38513   4.27638 
 H                    -3.02928   0.04705   0.77024 
 H                    -0.29029   4.93346   0.35924 
 H                    -2.09489   2.00321   1.64266 
 H                    -2.6086    3.15807  -1.6773 
 H                    -2.56602  -3.49143  -1.56436 
 H                    -1.55278  -1.33714  -4.09141 
 H                    -2.64046   0.78995  -1.40829 
 
 The following ModRedundant input section has been read:
 A       1       5       9 F                                                   
 

 GradGradGradGradGradGradGradGradGradGradGradGradGradGradGradGradGradGrad
 Berny optimization.
 Initialization pass.
                           ----------------------------
                           !    Initial Parameters    !
                           ! (Angstroms and Degrees)  !
 --------------------------                            --------------------------
 ! Name  Definition              Value          Derivative Info.                !
 --------------------------------------------------------------------------------
 ! R1    R(1,2)                  1.9454         estimate D2E/DX2                !
 ! R2    R(1,3)                  1.9528         estimate D2E/DX2                !
 ! R3    R(1,4)                  1.9781         estimate D2E/DX2                !
 ! R4    R(1,5)                  1.9637         estimate D2E/DX2                !
 ! R5    R(2,8)                  1.6604         estimate D2E/DX2                !
 ! R6    R(3,7)                  1.6386         estimate D2E/DX2                !
 ! R7    R(4,6)                  1.6416         estimate D2E/DX2                !
 ! R8    R(5,9)                  1.6365         estimate D2E/DX2                !
 ! R9    R(6,16)                 1.6492         estimate D2E/DX2                !
 ! R10   R(6,17)                 1.651          estimate D2E/DX2                !
 ! R11   R(6,18)                 1.6634         estimate D2E/DX2                !
 ! R12   R(7,19)                 1.6832         estimate D2E/DX2                !
 ! R13   R(7,20)                 1.6456         estimate D2E/DX2                !
 ! R14   R(7,21)                 1.6364         estimate D2E/DX2                !
 ! R15   R(8,13)                 1.6406         estimate D2E/DX2                !
 ! R16   R(8,14)                 1.6648         estimate D2E/DX2                !
 ! R17   R(8,15)                 1.6399         estimate D2E/DX2                !
 ! R18   R(9,10)                 1.6503         estimate D2E/DX2                !
 ! R19   R(9,11)                 1.6573         estimate D2E/DX2                !
 ! R20   R(9,12)                 1.6513         estimate D2E/DX2                !
 ! R21   R(10,23)                0.9639         estimate D2E/DX2                !
 ! R22   R(11,24)                0.9634         estimate D2E/DX2                !
 ! R23   R(12,22)                0.9636         estimate D2E/DX2                !
 ! R24   R(13,25)                0.974          estimate D2E/DX2                !
 ! R25   R(14,27)                0.9758         estimate D2E/DX2                !
 ! R26   R(15,26)                0.9627         estimate D2E/DX2                !
 ! R27   R(16,32)                0.9636         estimate D2E/DX2                !
 ! R28   R(17,33)                0.9837         estimate D2E/DX2                !
 ! R29   R(18,31)                0.9638         estimate D2E/DX2                !
 ! R30   R(19,30)                0.9654         estimate D2E/DX2                !
 ! R31   R(20,28)                0.964          estimate D2E/DX2                !
 ! R32   R(21,29)                0.9796         estimate D2E/DX2                !
 ! A1    A(2,1,3)              106.3234         estimate D2E/DX2                !
 ! A2    A(2,1,4)              103.1879         estimate D2E/DX2                !
 ! A3    A(2,1,5)              113.2501         estimate D2E/DX2                !
 ! A4    A(3,1,4)              105.3705         estimate D2E/DX2                !
 ! A5    A(3,1,5)              115.3549         estimate D2E/DX2                !
 ! A6    A(4,1,5)              112.3142         estimate D2E/DX2                !
 ! A7    A(1,2,8)              140.8859         estimate D2E/DX2                !
 ! A8    A(1,3,7)              148.6074         estimate D2E/DX2                !
 ! A9    A(1,4,6)              134.0964         estimate D2E/DX2                !
 ! A10   A(1,5,9)              157.9998         Frozen                          !
 ! A11   A(4,6,16)             110.2282         estimate D2E/DX2                !
 ! A12   A(4,6,17)             109.5909         estimate D2E/DX2                !
 ! A13   A(4,6,18)             111.4884         estimate D2E/DX2                !
 ! A14   A(16,6,17)            114.8371         estimate D2E/DX2                !
 ! A15   A(16,6,18)            107.9112         estimate D2E/DX2                !
 ! A16   A(17,6,18)            102.5719         estimate D2E/DX2                !
 ! A17   A(3,7,19)             103.1918         estimate D2E/DX2                !
 ! A18   A(3,7,20)             114.1832         estimate D2E/DX2                !
 ! A19   A(3,7,21)             112.1241         estimate D2E/DX2                !
 ! A20   A(19,7,20)            106.4451         estimate D2E/DX2                !
 ! A21   A(19,7,21)            112.8144         estimate D2E/DX2                !
 ! A22   A(20,7,21)            107.9884         estimate D2E/DX2                !
 ! A23   A(2,8,13)             109.2843         estimate D2E/DX2                !
 ! A24   A(2,8,14)             108.0427         estimate D2E/DX2                !
 ! A25   A(2,8,15)             111.2146         estimate D2E/DX2                !
 ! A26   A(13,8,14)            112.1704         estimate D2E/DX2                !
 ! A27   A(13,8,15)            111.2482         estimate D2E/DX2                !
 ! A28   A(14,8,15)            104.7916         estimate D2E/DX2                !
 ! A29   A(5,9,10)             114.1134         estimate D2E/DX2                !
 ! A30   A(5,9,11)             110.2429         estimate D2E/DX2                !
 ! A31   A(5,9,12)             104.7705         estimate D2E/DX2                !
 ! A32   A(10,9,11)            105.3248         estimate D2E/DX2                !
 ! A33   A(10,9,12)            108.2397         estimate D2E/DX2                !
 ! A34   A(11,9,12)            114.3796         estimate D2E/DX2                !
 ! A35   A(9,10,23)            116.0386         estimate D2E/DX2                !
 ! A36   A(9,11,24)            117.2884         estimate D2E/DX2                !
 ! A37   A(9,12,22)            116.934          estimate D2E/DX2                !
 ! A38   A(8,13,25)            116.5961         estimate D2E/DX2                !
 ! A39   A(8,14,27)            113.5263         estimate D2E/DX2                !
 ! A40   A(8,15,26)            117.3612         estimate D2E/DX2                !
 ! A41   A(6,16,32)            116.5984         estimate D2E/DX2                !
 ! A42   A(6,17,33)            117.1373         estimate D2E/DX2                !
 ! A43   A(6,18,31)            116.3135         estimate D2E/DX2                !
 ! A44   A(7,19,30)            115.0881         estimate D2E/DX2                !
 ! A45   A(7,20,28)            116.018          estimate D2E/DX2                !
 ! A46   A(7,21,29)            116.1544         estimate D2E/DX2                !
 ! D1    D(3,1,2,8)             54.013          estimate D2E/DX2                !
 ! D2    D(4,1,2,8)            -56.615          estimate D2E/DX2                !
 ! D3    D(5,1,2,8)           -178.2908         estimate D2E/DX2                !
 ! D4    D(2,1,3,7)            -51.1331         estimate D2E/DX2                !
 ! D5    D(4,1,3,7)             57.9568         estimate D2E/DX2                !
 ! D6    D(5,1,3,7)           -177.5709         estimate D2E/DX2                !
 ! D7    D(2,1,4,6)             41.2968         estimate D2E/DX2                !
 ! D8    D(3,1,4,6)            -70.0365         estimate D2E/DX2                !
 ! D9    D(5,1,4,6)            163.602          estimate D2E/DX2                !
 ! D10   D(2,1,5,9)            -89.6366         estimate D2E/DX2                !
 ! D11   D(3,1,5,9)             33.19           estimate D2E/DX2                !
 ! D12   D(4,1,5,9)            153.9566         estimate D2E/DX2                !
 ! D13   D(1,2,8,13)            98.0767         estimate D2E/DX2                !
 ! D14   D(1,2,8,14)           -24.2296         estimate D2E/DX2                !
 ! D15   D(1,2,8,15)          -138.7156         estimate D2E/DX2                !
 ! D16   D(1,3,7,19)           -58.6416         estimate D2E/DX2                !
 ! D17   D(1,3,7,20)          -173.7291         estimate D2E/DX2                !
 ! D18   D(1,3,7,21)            63.0404         estimate D2E/DX2                !
 ! D19   D(1,4,6,16)           161.8736         estimate D2E/DX2                !
 ! D20   D(1,4,6,17)            34.551          estimate D2E/DX2                !
 ! D21   D(1,4,6,18)           -78.3045         estimate D2E/DX2                !
 ! D22   D(1,5,9,10)           -93.0135         estimate D2E/DX2                !
 ! D23   D(1,5,9,11)           148.7126         estimate D2E/DX2                !
 ! D24   D(1,5,9,12)            25.1931         estimate D2E/DX2                !
 ! D25   D(4,6,16,32)          -13.7229         estimate D2E/DX2                !
 ! D26   D(17,6,16,32)         110.6319         estimate D2E/DX2                !
 ! D27   D(18,6,16,32)        -135.686          estimate D2E/DX2                !
 ! D28   D(4,6,17,33)           49.7998         estimate D2E/DX2                !
 ! D29   D(16,6,17,33)         -74.8906         estimate D2E/DX2                !
 ! D30   D(18,6,17,33)         168.3378         estimate D2E/DX2                !
 ! D31   D(4,6,18,31)         -102.9126         estimate D2E/DX2                !
 ! D32   D(16,6,18,31)          18.2691         estimate D2E/DX2                !
 ! D33   D(17,6,18,31)         139.8941         estimate D2E/DX2                !
 ! D34   D(3,7,19,30)         -162.9704         estimate D2E/DX2                !
 ! D35   D(20,7,19,30)         -42.4468         estimate D2E/DX2                !
 ! D36   D(21,7,19,30)          75.8144         estimate D2E/DX2                !
 ! D37   D(3,7,20,28)         -100.1112         estimate D2E/DX2                !
 ! D38   D(19,7,20,28)         146.7232         estimate D2E/DX2                !
 ! D39   D(21,7,20,28)          25.3303         estimate D2E/DX2                !
 ! D40   D(3,7,21,29)          -50.5298         estimate D2E/DX2                !
 ! D41   D(19,7,21,29)          65.4642         estimate D2E/DX2                !
 ! D42   D(20,7,21,29)        -177.1813         estimate D2E/DX2                !
 ! D43   D(2,8,13,25)          -54.0971         estimate D2E/DX2                !
 ! D44   D(14,8,13,25)          65.6987         estimate D2E/DX2                !
 ! D45   D(15,8,13,25)        -177.2849         estimate D2E/DX2                !
 ! D46   D(2,8,14,27)           81.1206         estimate D2E/DX2                !
 ! D47   D(13,8,14,27)         -39.3971         estimate D2E/DX2                !
 ! D48   D(15,8,14,27)        -160.2179         estimate D2E/DX2                !
 ! D49   D(2,8,15,26)          -54.9076         estimate D2E/DX2                !
 ! D50   D(13,8,15,26)          67.168          estimate D2E/DX2                !
 ! D51   D(14,8,15,26)        -171.403          estimate D2E/DX2                !
 ! D52   D(5,9,10,23)          -94.3732         estimate D2E/DX2                !
 ! D53   D(11,9,10,23)          26.672          estimate D2E/DX2                !
 ! D54   D(12,9,10,23)         149.4203         estimate D2E/DX2                !
 ! D55   D(5,9,11,24)          -42.1579         estimate D2E/DX2                !
 ! D56   D(10,9,11,24)        -165.7001         estimate D2E/DX2                !
 ! D57   D(12,9,11,24)          75.5822         estimate D2E/DX2                !
 ! D58   D(5,9,12,22)         -165.3213         estimate D2E/DX2                !
 ! D59   D(10,9,12,22)         -43.1976         estimate D2E/DX2                !
 ! D60   D(11,9,12,22)          73.8586         estimate D2E/DX2                !
 --------------------------------------------------------------------------------
 Trust Radius=3.00D-01 FncErr=1.00D-07 GrdErr=1.00D-06 EigMax=2.50D+02 EigMin=1.00D-04
 Number of steps in this run=    148 maximum allowed number of steps=    198.
 GradGradGradGradGradGradGradGradGradGradGradGradGradGradGradGradGradGrad

                          Input orientation:                          
 ---------------------------------------------------------------------
 Center     Atomic      Atomic             Coordinates (Angstroms)
 Number     Number       Type             X           Y           Z
 ---------------------------------------------------------------------
      1         40           0        0.646460   -0.190130   -0.151900
      2          8           0       -0.192120   -0.931310    1.439390
      3          8           0        0.172630    1.703950   -0.190400
      4          8           0       -0.377720   -1.016920   -1.628440
      5          8           0        2.567800   -0.578830   -0.268120
      6         14           0       -1.969240   -1.332160   -1.878290
      7         14           0       -0.989580    2.856810   -0.118090
      8         14           0       -1.674760   -1.051520    2.177060
      9         14           0        4.175250   -0.364160   -0.048920
     10          8           0        4.927100    0.416400   -1.293450
     11          8           0        4.938190   -1.830360    0.073220
     12          8           0        4.293710    0.580360    1.300390
     13          8           0       -2.335740   -2.512450    1.830040
     14          8           0       -2.620900    0.209280    1.641490
     15          8           0       -1.552000   -0.824320    3.796500
     16          8           0       -2.254270   -1.591640   -3.481830
     17          8           0       -2.883710   -0.139120   -1.195570
     18          8           0       -2.460270   -2.685980   -1.045790
     19          8           0       -2.008250    2.456050   -1.396700
     20          8           0       -0.446230    4.381420   -0.415550
     21          8           0       -1.758350    2.867150    1.326420
     22          1           0        5.146660    0.995980    1.468760
     23          1           0        5.331000   -0.146510   -1.963560
     24          1           0        4.506270   -2.510380    0.601660
     25          1           0       -2.407380   -2.745750    0.887120
     26          1           0       -0.933910   -1.385130    4.276380
     27          1           0       -3.029280    0.047050    0.770240
     28          1           0       -0.290290    4.933460    0.359240
     29          1           0       -2.094890    2.003210    1.642660
     30          1           0       -2.608600    3.158070   -1.677300
     31          1           0       -2.566020   -3.491430   -1.564360
     32          1           0       -1.552780   -1.337140   -4.091410
     33          1           0       -2.640460    0.789950   -1.408290
 ---------------------------------------------------------------------
                    Distance matrix (angstroms):
                    1          2          3          4          5
     1  Zr   0.000000
     2  O    1.945448   0.000000
     3  O    1.952828   3.119912   0.000000
     4  O    1.978054   3.074631   3.126336   0.000000
     5  O    1.963706   3.264505   3.309677   3.273909   0.000000
     6  Si   3.335647   3.784949   4.080998   1.641565   4.872872
     7  Si   3.458557   4.172714   1.638611   4.202537   4.947836
     8  Si   3.399134   1.660370   4.075577   4.020614   4.919518
     9  Si   3.534579   4.648725   4.507556   4.863180   1.636468
    10  O    4.471565   5.957445   5.047721   5.505247   2.758275
    11  O    4.599998   5.384681   5.938973   5.640588   2.702145
    12  O    4.000654   4.735730   4.524181   5.740349   2.604364
    13  O    4.267877   2.692159   5.305858   4.246356   5.673259
    14  O    3.748522   2.690866   3.659736   4.150646   5.584831
    15  O    4.563473   2.723360   5.026119   5.553918   5.792595
    16  O    4.633238   5.376514   5.252073   2.699407   5.882693
    17  O    3.681569   3.849056   3.707895   2.690334   5.547294
    18  O    4.084125   3.794666   5.189927   2.731713   5.506936
    19  O    3.949592   4.776604   2.603277   3.843677   5.605749
    20  O    4.707712   5.632981   2.757268   5.533342   5.806048
    21  O    4.161190   4.110248   2.717068   5.071818   5.756119
    22  H    4.928001   5.676080   5.291031   6.645539   3.485297
    23  H    5.022841   6.534588   5.759955   5.784410   3.270580
    24  H    4.566130   5.026940   6.096587   5.572892   2.871423
    25  H    4.115422   2.916260   5.255219   3.665572   5.548201
    26  H    4.851315   2.967274   5.542470   5.942375   5.793494
    27  H    3.797060   3.074805   3.731002   3.730478   5.726886
    28  H    5.233540   5.964217   3.308494   6.274196   6.240801
    29  H    3.942865   3.503321   2.931094   4.771787   5.662039
    30  H    4.912505   5.681211   3.472834   4.733894   6.537991
    31  H    4.818055   4.605663   6.031579   3.303931   6.043144
    32  H    4.655322   5.710153   5.238621   2.747640   5.672016
    33  H    3.652796   4.131148   3.198770   2.904004   5.504500
                    6          7          8          9         10
     6  Si   0.000000
     7  Si   4.648172   0.000000
     8  Si   4.075701   4.583910   0.000000
     9  Si   6.483701   6.087274   6.296830   0.000000
    10  O    7.138558   6.507240   7.601565   1.650275   0.000000
    11  O    7.195081   7.559406   6.983111   1.657329   2.629799
    12  O    7.279168   5.925155   6.249337   1.651299   2.675083
    13  O    3.908851   5.868246   1.640620   7.109053   8.431085
    14  O    3.897377   3.573058   1.664822   7.026662   8.101177
    15  O    5.712725   5.402874   1.639901   6.913783   8.332209
    16  O    1.649216   5.718645   5.714070   7.391232   7.771313
    17  O    1.650971   3.704631   3.697116   7.155024   7.831152
    18  O    1.663429   5.809137   3.698006   7.100333   8.016192
    19  O    3.818898   1.683194   5.018568   6.928619   7.229793
    20  O    6.091319   1.645645   6.143920   6.634231   6.735337
    21  O    5.286667   1.636375   4.010804   6.894964   7.587169
    22  H    8.201159   6.605621   7.157214   2.257647   2.830887
    23  H    7.396387   7.237087   8.188068   2.246993   0.963873
    24  H    7.033533   7.715513   6.543339   2.266956   3.512062
    25  H    3.136510   5.865943   2.251909   7.062518   8.279413
    26  H    6.241368   6.108070   2.251066   6.771567   8.283716
    27  H    3.168693   3.583889   2.240697   7.262601   8.227953
    28  H    6.861735   2.242616   6.406342   6.940635   7.096222
    29  H    4.851553   2.247350   3.129452   6.912347   7.774770
    30  H    4.539972   2.267845   5.783493   7.815264   8.028130
    31  H    2.262111   6.699031   4.554748   7.584266   8.455257
    32  H    2.251969   5.804626   6.276159   7.078047   7.272711
    33  H    2.274816   2.943116   4.144674   7.045123   7.577644
                   11         12         13         14         15
    11  O    0.000000
    12  O    2.780804   0.000000
    13  O    7.514101   7.334549   0.000000
    14  O    7.984951   6.932956   2.743115   0.000000
    15  O    7.549669   6.509686   2.707581   2.618195   0.000000
    16  O    8.026634   8.394239   5.391706   5.442990   7.352282
    17  O    8.102607   7.633009   3.884235   2.870429   5.211882
    18  O    7.531366   7.860648   2.883751   3.953455   5.266736
    19  O    8.293793   7.106842   5.933388   3.828043   6.159409
    20  O    8.235113   6.313441   7.492554   5.134915   6.787033
    21  O    8.275310   6.469739   5.433885   2.812034   4.446440
    22  H    3.158986   0.963645   8.271996   7.809207   7.321469
    23  H    2.671727   3.501097   8.875132   8.738174   9.000745
    24  H    0.963447   3.175859   6.951404   7.698984   7.053541
    25  H    7.446997   7.492557   0.973991   3.057265   3.589994
    26  H    7.235077   6.328323   3.036537   3.511513   0.962719
    27  H    8.215296   7.361499   2.855734   0.975792   3.478490
    28  H    8.553834   6.391267   7.860578   5.421604   6.823394
    29  H    8.162329   6.554072   4.525959   1.869458   3.595648
    30  H    9.214271   7.946893   6.673131   4.439581   6.851155
    31  H    7.858371   8.475976   3.540252   4.896503   6.072934
    32  H    7.727878   8.181061   6.087524   6.033112   7.904563
    33  H    8.154559   7.447388   4.635243   3.104629   5.557018
                   16         17         18         19         20
    16  O    0.000000
    17  O    2.780826   0.000000
    18  O    2.678490   2.586162   0.000000
    19  O    4.559834   2.746232   5.173774   0.000000
    20  O    6.953311   5.194711   7.375751   2.666385   0.000000
    21  O    6.576170   4.082221   6.079254   2.765291   2.655020
    22  H    9.272426   8.536624   8.817322   7.844450   6.803841
    23  H    7.869553   8.250535   8.245914   7.807640   7.501658
    24  H    7.951344   7.966474   7.160838   8.431954   8.547449
    25  H    4.521409   3.370313   1.934557   5.695073   7.505972
    26  H    7.872472   5.941086   5.687484   6.934891   7.450177
    27  H    4.622342   1.979964   3.330344   3.397265   5.183147
    28  H    7.822274   5.905449   8.046042   3.488878   0.964036
    29  H    6.261689   3.642439   5.417543   3.074131   3.551083
    30  H    5.093292   3.343533   5.879943   0.965396   2.786475
    31  H    2.717183   3.387464   0.963767   5.975930   8.233774
    32  H    0.963559   3.404778   3.452348   4.675169   6.887549
    33  H    3.181302   0.983662   3.499423   1.782053   4.324215
                   21         22         23         24         25
    21  O    0.000000
    22  H    7.155467   0.000000
    23  H    8.376455   3.622166   0.000000
    24  H    8.287857   3.668313   3.584469   0.000000
    25  H    5.667351   8.449992   8.646673   6.923543   0.000000
    26  H    5.240596   7.108146   8.928613   6.660729   3.938208
    27  H    3.142859   8.260411   8.798034   7.959484   2.863591
    28  H    2.712983   6.804058   7.924670   8.858697   7.983169
    29  H    0.979622   7.313330   8.530531   8.064210   4.818829
    30  H    3.135266   8.643864   8.604617   9.377972   6.439863
    31  H    7.031392   9.424548   8.585498   7.461326   2.567286
    32  H    6.860845   9.013403   7.302861   7.753289   5.244071
    33  H    3.545633   8.304162   8.045462   8.124520   4.221896
                   26         27         28         29         30
    26  H    0.000000
    27  H    4.328364   0.000000
    28  H    7.462092   5.616760   0.000000
    29  H    4.445807   2.336828   3.672889   0.000000
    30  H    7.674084   3.980687   3.560065   3.552426   0.000000
    31  H    6.419854   4.264482   8.936328   6.379499   6.650595
    32  H    8.390781   5.266087   7.792470   6.658181   5.210527
    33  H    6.321294   2.334325   5.080958   3.328354   2.383563
                   31         32         33
    31  H    0.000000
    32  H    3.471830   0.000000
    33  H    4.284870   3.592589   0.000000
 Stoichiometry    H12O16Si4Zr
 Framework group  C1[X(H12O16Si4Zr)]
 Deg. of freedom    93
 Full point group                 C1      NOp   1
 Largest Abelian subgroup         C1      NOp   1
 Largest concise Abelian subgroup C1      NOp   1
                         Standard orientation:                         
 ---------------------------------------------------------------------
 Center     Atomic      Atomic             Coordinates (Angstroms)
 Number     Number       Type             X           Y           Z
 ---------------------------------------------------------------------
      1         40           0        0.647421   -0.176433   -0.144057
      2          8           0       -0.191088   -0.921944    1.445246
      3          8           0        0.154082    1.712490   -0.190134
      4          8           0       -0.360933   -1.017910   -1.623190
      5          8           0        2.573245   -0.545393   -0.249942
      6         14           0       -1.947855   -1.350414   -1.879814
      7         14           0       -1.020408    2.853362   -0.126642
      8         14           0       -1.675949   -1.055582    2.176106
      9         14           0        4.177292   -0.313371   -0.023611
     10          8           0        4.926988    0.471566   -1.266687
     11          8           0        4.954861   -1.771194    0.106299
     12          8           0        4.279376    0.636035    1.323607
     13          8           0       -2.319991   -2.524273    1.829996
     14          8           0       -2.632565    0.193807    1.632465
     15          8           0       -1.563403   -0.822668    3.795476
     16          8           0       -2.222401   -1.617256   -3.483975
     17          8           0       -2.877995   -0.165105   -1.204841
     18          8           0       -2.428783   -2.706990   -1.045903
     19          8           0       -2.028647    2.438491   -1.409013
     20          8           0       -0.491532    4.382733   -0.425747
     21          8           0       -1.796228    2.859652    1.314117
     22          1           0        5.127126    1.060988    1.494916
     23          1           0        5.339968   -0.088940   -1.933268
     24          1           0        4.527493   -2.454228    0.634554
     25          1           0       -2.384631   -2.760896    0.887399
     26          1           0       -0.941837   -1.375681    4.279891
     27          1           0       -3.035011    0.024935    0.759717
     28          1           0       -0.345102    4.938495    0.348238
     29          1           0       -2.125279    1.993121    1.631149
     30          1           0       -2.634910    3.133439   -1.694461
     31          1           0       -2.523627   -3.514920   -1.562721
     32          1           0       -1.520657   -1.357129   -4.090881
     33          1           0       -2.643407    0.765863   -1.418986
 ---------------------------------------------------------------------
 Rotational constants (GHZ):           0.2127562           0.1348921           0.1251389
 General basis read from cards:  (5D, 7F)
 ======================================================================================================
                                       Pseudopotential Parameters
 ======================================================================================================
  Center     Atomic      Valence      Angular      Power
  Number     Number     Electrons     Momentum     of R      Exponent        Coefficient   SO-Coeffient
 ======================================================================================================
    1         40           12
                                      G and up 
                                                     2        1.0000000        0.00000000    0.00000000
                                      S - G
                                                     2        8.6365280      150.24299400    0.00000000
                                                     2        3.7176390       18.78003600    0.00000000
                                      P - G
                                                     2        7.6267280       33.19279100    0.00000000
                                                     2        7.4532070       66.38903900    0.00000000
                                                     2        3.3583890        4.62072600    0.00000000
                                                     2        3.2297380        9.26027000    0.00000000
                                      D - G
                                                     2        5.9380860       13.99338300    0.00000000
                                                     2        5.8255440       20.99588200    0.00000000
                                                     2        2.2050190        2.28516600    0.00000000
                                                     2        2.2062920        3.44126000    0.00000000
                                      F - G
                                                     2        4.8002150       -5.23932000    0.00000000
                                                     2        4.7989920       -6.98742400    0.00000000
    2          8
                                   No pseudopotential on this center.
    3          8
                                   No pseudopotential on this center.
    4          8
                                   No pseudopotential on this center.
    5          8
                                   No pseudopotential on this center.
    6         14
                                   No pseudopotential on this center.
    7         14
                                   No pseudopotential on this center.
    8         14
                                   No pseudopotential on this center.
    9         14
                                   No pseudopotential on this center.
   10          8
                                   No pseudopotential on this center.
   11          8
                                   No pseudopotential on this center.
   12          8
                                   No pseudopotential on this center.
   13          8
                                   No pseudopotential on this center.
   14          8
                                   No pseudopotential on this center.
   15          8
                                   No pseudopotential on this center.
   16          8
                                   No pseudopotential on this center.
   17          8
                                   No pseudopotential on this center.
   18          8
                                   No pseudopotential on this center.
   19          8
                                   No pseudopotential on this center.
   20          8
                                   No pseudopotential on this center.
   21          8
                                   No pseudopotential on this center.
   22          1
                                   No pseudopotential on this center.
   23          1
                                   No pseudopotential on this center.
   24          1
                                   No pseudopotential on this center.
   25          1
                                   No pseudopotential on this center.
   26          1
                                   No pseudopotential on this center.
   27          1
                                   No pseudopotential on this center.
   28          1
                                   No pseudopotential on this center.
   29          1
                                   No pseudopotential on this center.
   30          1
                                   No pseudopotential on this center.
   31          1
                                   No pseudopotential on this center.
   32          1
                                   No pseudopotential on this center.
   33          1
                                   No pseudopotential on this center.
 ======================================================================================================
 There are   570 symmetry adapted cartesian basis functions of A   symmetry.
 There are   524 symmetry adapted basis functions of A   symmetry.
   524 basis functions,  1074 primitive gaussians,   570 cartesian basis functions
   104 alpha electrons      104 beta electrons
       nuclear repulsion energy      2837.0451219881 Hartrees.
 NAtoms=   33 NActive=   33 NUniq=   33 SFac= 1.00D+00 NAtFMM=   60 NAOKFM=F Big=F
 Integral buffers will be    131072 words long.
 Raffenetti 2 integral format.
 Two-electron integral symmetry is turned on.
 Nuclear repulsion after empirical dispersion term =     2837.0042401155 Hartrees.
 One-electron integrals computed using PRISM.
 PrsmSu:  requested number of processors reduced to:   4 ShMem   1 Linda.
   1 Symmetry operations used in ECPInt.
 ECPInt:  NShTT=   13203 NPrTT=   78401 LenC2=   11535 LenP2D=   44734.
 LDataN:  DoStor=T MaxTD1= 8 Len=  415
 Number of processors reduced to  13 by ecpmxn.
 NBasis=   524 RedAO= T EigKep=  3.15D-05  NBF=   524
 NBsUse=   524 1.00D-06 EigRej= -1.00D+00 NBFU=   524
 Defaulting to unpruned grid for atomic number  40.
 ExpMin= 1.01D-02 ExpMax= 1.61D+04 ExpMxC= 2.43D+03 IAcc=3 IRadAn=         5 AccDes= 0.00D+00
 Harris functional with IExCor=  402 and IRadAn=       5 diagonalized for initial guess.
 HarFok:  IExCor=  402 AccDes= 0.00D+00 IRadAn=         5 IDoV= 1 UseB2=F ITyADJ=14
 ICtDFT=  3500011 ScaDFX=  1.000000  1.000000  1.000000  1.000000
 Defaulting to unpruned grid for atomic number  40.
 FoFCou: FMM=F IPFlag=           0 FMFlag=      100000 FMFlg1=           0
         NFxFlg=           0 DoJE=T BraDBF=F KetDBF=T FulRan=T
         wScrn=  0.000000 ICntrl=       500 IOpCl=  0 I1Cent=   200000004 NGrid=           0
         NMat0=    1 NMatS0=      1 NMatT0=    0 NMatD0=    1 NMtDS0=    0 NMtDT0=    0
 Petite list used in FoFCou.
 Requested convergence on RMS density matrix=1.00D-08 within 128 cycles.
 Requested convergence on MAX density matrix=1.00D-06.
 Requested convergence on             energy=1.00D-06.
 No special actions if energy rises.
 Defaulting to unpruned grid for atomic number  40.
 Defaulting to unpruned grid for atomic number  40.
 Defaulting to unpruned grid for atomic number  40.
 Defaulting to unpruned grid for atomic number  40.
 Defaulting to unpruned grid for atomic number  40.
 Defaulting to unpruned grid for atomic number  40.
 Defaulting to unpruned grid for atomic number  40.
 Defaulting to unpruned grid for atomic number  40.
 Defaulting to unpruned grid for atomic number  40.
 Defaulting to unpruned grid for atomic number  40.
 Defaulting to unpruned grid for atomic number  40.
 Defaulting to unpruned grid for atomic number  40.
 Defaulting to unpruned grid for atomic number  40.
 Defaulting to unpruned grid for atomic number  40.
 Defaulting to unpruned grid for atomic number  40.
 Defaulting to unpruned grid for atomic number  40.
 SCF Done:  E(RB3LYP) =  -2416.94586459     A.U. after   14 cycles
            NFock= 14  Conv=0.35D-08     -V/T= 2.0185

 **********************************************************************

            Population analysis using the SCF Density.

 **********************************************************************

 Orbital symmetries:
       Occupied  (A) (A) (A) (A) (A) (A) (A) (A) (A) (A) (A) (A)
                 (A) (A) (A) (A) (A) (A) (A) (A) (A) (A) (A) (A)
                 (A) (A) (A) (A) (A) (A) (A) (A) (A) (A) (A) (A)
                 (A) (A) (A) (A) (A) (A) (A) (A) (A) (A) (A) (A)
                 (A) (A) (A) (A) (A) (A) (A) (A) (A) (A) (A) (A)
                 (A) (A) (A) (A) (A) (A) (A) (A) (A) (A) (A) (A)
                 (A) (A) (A) (A) (A) (A) (A) (A) (A) (A) (A) (A)
                 (A) (A) (A) (A) (A) (A) (A) (A) (A) (A) (A) (A)
                 (A) (A) (A) (A) (A) (A) (A) (A)
       Virtual   (A) (A) (A) (A) (A) (A) (A) (A) (A) (A) (A) (A)
                 (A) (A) (A) (A) (A) (A) (A) (A) (A) (A) (A) (A)
                 (A) (A) (A) (A) (A) (A) (A) (A) (A) (A) (A) (A)
                 (A) (A) (A) (A) (A) (A) (A) (A) (A) (A) (A) (A)
                 (A) (A) (A) (A) (A) (A) (A) (A) (A) (A) (A) (A)
                 (A) (A) (A) (A) (A) (A) (A) (A) (A) (A) (A) (A)
                 (A) (A) (A) (A) (A) (A) (A) (A) (A) (A) (A) (A)
                 (A) (A) (A) (A) (A) (A) (A) (A) (A) (A) (A) (A)
                 (A) (A) (A) (A) (A) (A) (A) (A) (A) (A) (A) (A)
                 (A) (A) (A) (A) (A) (A) (A) (A) (A) (A) (A) (A)
                 (A) (A) (A) (A) (A) (A) (A) (A) (A) (A) (A) (A)
                 (A) (A) (A) (A) (A) (A) (A) (A) (A) (A) (A) (A)
                 (A) (A) (A) (A) (A) (A) (A) (A) (A) (A) (A) (A)
                 (A) (A) (A) (A) (A) (A) (A) (A) (A) (A) (A) (A)
                 (A) (A) (A) (A) (A) (A) (A) (A) (A) (A) (A) (A)
                 (A) (A) (A) (A) (A) (A) (A) (A) (A) (A) (A) (A)
                 (A) (A) (A) (A) (A) (A) (A) (A) (A) (A) (A) (A)
                 (A) (A) (A) (A) (A) (A) (A) (A) (A) (A) (A) (A)
                 (A) (A) (A) (A) (A) (A) (A) (A) (A) (A) (A) (A)
                 (A) (A) (A) (A) (A) (A) (A) (A) (A) (A) (A) (A)
                 (A) (A) (A) (A) (A) (A) (A) (A) (A) (A) (A) (A)
                 (A) (A) (A) (A) (A) (A) (A) (A) (A) (A) (A) (A)
                 (A) (A) (A) (A) (A) (A) (A) (A) (A) (A) (A) (A)
                 (A) (A) (A) (A) (A) (A) (A) (A) (A) (A) (A) (A)
                 (A) (A) (A) (A) (A) (A) (A) (A) (A) (A) (A) (A)
                 (A) (A) (A) (A) (A) (A) (A) (A) (A) (A) (A) (A)
                 (A) (A) (A) (A) (A) (A) (A) (A) (A) (A) (A) (A)
                 (A) (A) (A) (A) (A) (A) (A) (A) (A) (A) (A) (A)
                 (A) (A) (A) (A) (A) (A) (A) (A) (A) (A) (A) (A)
                 (A) (A) (A) (A) (A) (A) (A) (A) (A) (A) (A) (A)
                 (A) (A) (A) (A) (A) (A) (A) (A) (A) (A) (A) (A)
                 (A) (A) (A) (A) (A) (A) (A) (A) (A) (A) (A) (A)
                 (A) (A) (A) (A) (A) (A) (A) (A) (A) (A) (A) (A)
                 (A) (A) (A) (A) (A) (A) (A) (A) (A) (A) (A) (A)
                 (A) (A) (A) (A) (A) (A) (A) (A) (A) (A) (A) (A)
 The electronic state is 1-A.
 Alpha  occ. eigenvalues --  -66.22781 -66.21727 -66.21649 -66.21009 -19.18520
 Alpha  occ. eigenvalues --  -19.18326 -19.17794 -19.16951 -19.16768 -19.16689
 Alpha  occ. eigenvalues --  -19.16599 -19.16435 -19.16165 -19.16003 -19.15972
 Alpha  occ. eigenvalues --  -19.15523 -19.15439 -19.15280 -19.14847 -19.14605
 Alpha  occ. eigenvalues --   -5.36840  -5.35808  -5.35728  -5.35067  -3.72826
 Alpha  occ. eigenvalues --   -3.72801  -3.72746  -3.71798  -3.71752  -3.71717
 Alpha  occ. eigenvalues --   -3.71694  -3.71688  -3.71651  -3.71048  -3.71029
 Alpha  occ. eigenvalues --   -3.70976  -2.13357  -1.29591  -1.29527  -1.29362
 Alpha  occ. eigenvalues --   -1.05636  -1.04743  -1.04340  -1.03499  -1.02530
 Alpha  occ. eigenvalues --   -1.02128  -1.01434  -1.01143  -1.00936  -1.00679
 Alpha  occ. eigenvalues --   -0.99793  -0.99323  -0.97382  -0.96280  -0.95759
 Alpha  occ. eigenvalues --   -0.95290  -0.60902  -0.59186  -0.59087  -0.58927
 Alpha  occ. eigenvalues --   -0.55554  -0.54500  -0.54055  -0.53197  -0.53076
 Alpha  occ. eigenvalues --   -0.52567  -0.51844  -0.50167  -0.48651  -0.47853
 Alpha  occ. eigenvalues --   -0.47486  -0.47072  -0.43385  -0.42842  -0.41821
 Alpha  occ. eigenvalues --   -0.41481  -0.41225  -0.40563  -0.39828  -0.39441
 Alpha  occ. eigenvalues --   -0.38921  -0.38881  -0.38637  -0.38196  -0.38023
 Alpha  occ. eigenvalues --   -0.37605  -0.37446  -0.37081  -0.36491  -0.36380
 Alpha  occ. eigenvalues --   -0.36190  -0.35811  -0.35441  -0.35257  -0.34936
 Alpha  occ. eigenvalues --   -0.34458  -0.34069  -0.33767  -0.33585  -0.33065
 Alpha  occ. eigenvalues --   -0.32665  -0.32240  -0.31990  -0.31295
 Alpha virt. eigenvalues --   -0.04405  -0.03166  -0.03022  -0.02912  -0.02071
 Alpha virt. eigenvalues --   -0.01356  -0.00567  -0.00224  -0.00040   0.00227
 Alpha virt. eigenvalues --    0.00703   0.00857   0.00950   0.01854   0.02189
 Alpha virt. eigenvalues --    0.02981   0.03290   0.03837   0.03891   0.04131
 Alpha virt. eigenvalues --    0.04317   0.04761   0.05839   0.05954   0.06128
 Alpha virt. eigenvalues --    0.06350   0.07045   0.07562   0.07590   0.08336
 Alpha virt. eigenvalues --    0.08576   0.08795   0.09109   0.09493   0.09764
 Alpha virt. eigenvalues --    0.10347   0.10638   0.10905   0.11102   0.11597
 Alpha virt. eigenvalues --    0.11828   0.12529   0.13176   0.13340   0.13882
 Alpha virt. eigenvalues --    0.14005   0.14093   0.14861   0.15042   0.15240
 Alpha virt. eigenvalues --    0.15489   0.15736   0.16186   0.16573   0.16843
 Alpha virt. eigenvalues --    0.17135   0.17363   0.17668   0.17763   0.18511
 Alpha virt. eigenvalues --    0.18650   0.18821   0.19024   0.19349   0.19666
 Alpha virt. eigenvalues --    0.19779   0.20300   0.20877   0.21196   0.21310
 Alpha virt. eigenvalues --    0.21455   0.21840   0.22251   0.22455   0.23253
 Alpha virt. eigenvalues --    0.23629   0.23921   0.24032   0.24326   0.24640
 Alpha virt. eigenvalues --    0.24938   0.25540   0.25663   0.25919   0.26108
 Alpha virt. eigenvalues --    0.26407   0.26669   0.26810   0.27228   0.27662
 Alpha virt. eigenvalues --    0.27732   0.28397   0.28457   0.28709   0.28853
 Alpha virt. eigenvalues --    0.29532   0.29995   0.30049   0.30524   0.30583
 Alpha virt. eigenvalues --    0.30787   0.31121   0.31321   0.31636   0.32116
 Alpha virt. eigenvalues --    0.32454   0.32762   0.33206   0.33513   0.34137
 Alpha virt. eigenvalues --    0.34314   0.34927   0.35399   0.35833   0.36418
 Alpha virt. eigenvalues --    0.36569   0.37633   0.38536   0.38679   0.38992
 Alpha virt. eigenvalues --    0.39299   0.40217   0.40380   0.40916   0.41225
 Alpha virt. eigenvalues --    0.41461   0.42234   0.43202   0.43911   0.44033
 Alpha virt. eigenvalues --    0.45237   0.45794   0.46365   0.46734   0.47023
 Alpha virt. eigenvalues --    0.47143   0.48403   0.48585   0.49004   0.49478
 Alpha virt. eigenvalues --    0.49925   0.50306   0.51531   0.52270   0.53043
 Alpha virt. eigenvalues --    0.53865   0.54266   0.55499   0.56718   0.57017
 Alpha virt. eigenvalues --    0.57937   0.58376   0.59074   0.60033   0.60117
 Alpha virt. eigenvalues --    0.60754   0.61536   0.61950   0.64518   0.66132
 Alpha virt. eigenvalues --    0.66562   0.67201   0.68242   0.69059   0.69677
 Alpha virt. eigenvalues --    0.70070   0.70868   0.72767   0.74015   0.74897
 Alpha virt. eigenvalues --    0.75348   0.77166   0.78668   0.78730   0.80200
 Alpha virt. eigenvalues --    0.81092   0.81433   0.83179   0.83580   0.85440
 Alpha virt. eigenvalues --    0.86641   0.87814   0.90268   0.90556   0.90968
 Alpha virt. eigenvalues --    0.93712   0.95755   0.96251   0.96754   0.97476
 Alpha virt. eigenvalues --    0.98103   0.98684   0.99079   0.99322   1.00134
 Alpha virt. eigenvalues --    1.00285   1.01152   1.01828   1.03306   1.03568
 Alpha virt. eigenvalues --    1.04505   1.04580   1.05470   1.06732   1.08086
 Alpha virt. eigenvalues --    1.09647   1.12263   1.15258   1.16228   1.16747
 Alpha virt. eigenvalues --    1.18745   1.19056   1.20059   1.20465   1.20817
 Alpha virt. eigenvalues --    1.21586   1.22075   1.22167   1.22471   1.23674
 Alpha virt. eigenvalues --    1.23937   1.24114   1.24233   1.25145   1.25480
 Alpha virt. eigenvalues --    1.25762   1.26559   1.27600   1.27840   1.28572
 Alpha virt. eigenvalues --    1.28801   1.29442   1.30299   1.30526   1.31577
 Alpha virt. eigenvalues --    1.32017   1.32706   1.33598   1.33772   1.34825
 Alpha virt. eigenvalues --    1.35447   1.36356   1.36676   1.37134   1.38524
 Alpha virt. eigenvalues --    1.38795   1.39922   1.40088   1.40615   1.41530
 Alpha virt. eigenvalues --    1.41879   1.42723   1.43802   1.44516   1.45394
 Alpha virt. eigenvalues --    1.47394   1.49571   1.51018   1.52163   1.52644
 Alpha virt. eigenvalues --    1.56719   1.57175   1.58487   1.59390   1.59677
 Alpha virt. eigenvalues --    1.60082   1.60925   1.61104   1.62220   1.62659
 Alpha virt. eigenvalues --    1.63456   1.64275   1.65097   1.66021   1.66336
 Alpha virt. eigenvalues --    1.67381   1.67539   1.68952   1.69687   1.70046
 Alpha virt. eigenvalues --    1.70721   1.71093   1.71555   1.73000   1.73289
 Alpha virt. eigenvalues --    1.74493   1.75293   1.75608   1.76210   1.76364
 Alpha virt. eigenvalues --    1.76829   1.77688   1.78406   1.79619   1.79901
 Alpha virt. eigenvalues --    1.80387   1.81294   1.82167   1.82336   1.82678
 Alpha virt. eigenvalues --    1.83510   1.84230   1.84728   1.85664   1.86103
 Alpha virt. eigenvalues --    1.87355   1.88134   1.88776   1.89953   1.90131
 Alpha virt. eigenvalues --    1.90980   1.91668   1.92340   1.92886   1.93426
 Alpha virt. eigenvalues --    1.94113   1.95450   1.95762   1.97290   1.98027
 Alpha virt. eigenvalues --    1.98657   1.99968   2.00623   2.02712   2.05429
 Alpha virt. eigenvalues --    2.06173   2.07825   2.09126   2.10120   2.10502
 Alpha virt. eigenvalues --    2.11707   2.13440   2.14313   2.15781   2.16134
 Alpha virt. eigenvalues --    2.16481   2.19425   2.19904   2.21577   2.25579
 Alpha virt. eigenvalues --    2.31817   2.32811   2.36308   2.39488   2.40182
 Alpha virt. eigenvalues --    2.40787   2.41452   2.41873   2.42999   2.43413
 Alpha virt. eigenvalues --    2.44024   2.45339   2.46255   2.47885   2.48973
 Alpha virt. eigenvalues --    2.49372   2.50449   2.50818   2.52978   2.53440
 Alpha virt. eigenvalues --    2.54647   2.58087   2.59411   2.60021   2.60831
 Alpha virt. eigenvalues --    2.61075   2.61640   2.61821   2.62279   2.62794
 Alpha virt. eigenvalues --    2.63218   2.63564   2.64930   2.65292   2.65683
 Alpha virt. eigenvalues --    2.66276   2.66626   2.67217   2.67615   2.67913
 Alpha virt. eigenvalues --    2.69387   2.71029   2.71308   2.71855   2.73111
 Alpha virt. eigenvalues --    2.73813   2.75102   2.75855   2.76596   2.78046
 Alpha virt. eigenvalues --    2.79569   2.80374   2.81022   2.83044   2.83396
 Alpha virt. eigenvalues --    2.83883   2.84930   2.86465   2.87660   2.88162
 Alpha virt. eigenvalues --    3.15914   3.21911   3.36891   3.40902   3.46454
 Alpha virt. eigenvalues --    3.47700   3.48596   3.48806   3.48876   3.51796
 Alpha virt. eigenvalues --    3.52767   3.53692   3.59981   3.61192   3.62153
 Alpha virt. eigenvalues --    3.65893   4.38786   4.66112   7.79382  31.24097
          Condensed to atoms (all electrons):
               1          2          3          4          5          6
     1  Zr  15.108285  -0.040901  -0.005293  -0.137073  -0.186747  -0.713300
     2  O   -0.040901   8.854329   0.014684  -0.043795  -0.052516   0.064847
     3  O   -0.005293   0.014684   8.831494   0.016759  -0.047784  -0.002821
     4  O   -0.137073  -0.043795   0.016759   8.820029  -0.063167  -0.706449
     5  O   -0.186747  -0.052516  -0.047784  -0.063167   9.347715  -0.007033
     6  Si  -0.713300   0.064847  -0.002821  -0.706449  -0.007033  14.177152
     7  Si  -0.586274  -0.021639  -0.871326  -0.010566  -0.031838   0.093098
     8  Si  -0.673203  -0.760731  -0.021540   0.069960  -0.012299   0.026928
     9  Si  -0.277298  -0.031509  -0.013455  -0.020558  -1.102150   0.042858
    10  O   -0.033060   0.000780  -0.001464  -0.000205   0.117953  -0.001381
    11  O   -0.104993   0.002287   0.003371   0.002305   0.331197   0.000032
    12  O    0.053328   0.001415   0.005185   0.001640   0.112744  -0.003072
    13  O   -0.005237   0.258875   0.001540  -0.015513  -0.000589   0.029171
    14  O   -0.039199   0.249517  -0.017497  -0.002694   0.000635   0.008585
    15  O   -0.056385   0.257672   0.000261   0.002549   0.000832  -0.006000
    16  O   -0.131467   0.005538  -0.000386   0.349152   0.003431  -0.444843
    17  O   -0.088391  -0.039393   0.010482   0.210411   0.000747  -0.444222
    18  O   -0.025586  -0.019154   0.003696   0.205572  -0.001209  -0.480814
    19  O    0.002643   0.008189   0.272931   0.012827   0.002388  -0.009066
    20  O   -0.136860  -0.000770   0.152987  -0.000624   0.001240   0.009949
    21  O    0.032041   0.010943   0.154720   0.003823   0.000348  -0.014177
    22  H   -0.011812  -0.000004   0.000038  -0.000004   0.006297   0.000115
    23  H   -0.007410  -0.000009  -0.000007  -0.000033  -0.024181   0.000143
    24  H   -0.006255  -0.000064  -0.000005   0.000006  -0.002847   0.000144
    25  H    0.021661  -0.021826  -0.000132  -0.000940  -0.000016   0.000595
    26  H   -0.007650  -0.012628   0.000017  -0.000012  -0.000020   0.000233
    27  H    0.006574  -0.020598   0.000730  -0.001631   0.000035   0.010068
    28  H    0.004472  -0.000011  -0.018054  -0.000013  -0.000010  -0.000275
    29  H   -0.000204  -0.005193  -0.019735  -0.000195  -0.000060   0.000691
    30  H   -0.000297  -0.000010   0.000127  -0.000488  -0.000008  -0.000438
    31  H    0.003363   0.000287  -0.000021  -0.018095  -0.000018   0.060792
    32  H    0.002489  -0.000028   0.000035   0.011177   0.000007   0.019426
    33  H   -0.014457   0.000940  -0.010384  -0.009474  -0.000086   0.052129
               7          8          9         10         11         12
     1  Zr  -0.586274  -0.673203  -0.277298  -0.033060  -0.104993   0.053328
     2  O   -0.021639  -0.760731  -0.031509   0.000780   0.002287   0.001415
     3  O   -0.871326  -0.021540  -0.013455  -0.001464   0.003371   0.005185
     4  O   -0.010566   0.069960  -0.020558  -0.000205   0.002305   0.001640
     5  O   -0.031838  -0.012299  -1.102150   0.117953   0.331197   0.112744
     6  Si   0.093098   0.026928   0.042858  -0.001381   0.000032  -0.003072
     7  Si  13.758566   0.171130   0.019241   0.001421  -0.000843   0.002408
     8  Si   0.171130  13.760398   0.036795  -0.001438   0.001872  -0.002329
     9  Si   0.019241   0.036795  13.932861  -0.023246  -0.186214  -0.169424
    10  O    0.001421  -0.001438  -0.023246   8.513420   0.003395   0.039237
    11  O   -0.000843   0.001872  -0.186214   0.003395   8.553553  -0.053142
    12  O    0.002408  -0.002329  -0.169424   0.039237  -0.053142   8.591515
    13  O    0.003242  -0.144141  -0.000371  -0.000001   0.000015  -0.000020
    14  O    0.016228  -0.495972  -0.000731  -0.000002   0.000005   0.000012
    15  O   -0.003297  -0.383363  -0.000960  -0.000001  -0.000015   0.000018
    16  O    0.003745  -0.009652  -0.001099   0.000005  -0.000010  -0.000001
    17  O   -0.002581   0.097916   0.003022   0.000005   0.000005  -0.000009
    18  O   -0.001595   0.080959   0.003641   0.000004   0.000008   0.000004
    19  O   -0.429765  -0.018004   0.000842   0.000007   0.000000  -0.000065
    20  O   -0.097033   0.009409   0.003204   0.000036  -0.000003  -0.000052
    21  O    0.021540  -0.047122  -0.001500  -0.000002   0.000002   0.000003
    22  H   -0.000022   0.000141   0.048276  -0.005765  -0.004832   0.220780
    23  H    0.000004   0.000054   0.077179   0.230871  -0.005140   0.005543
    24  H    0.000037   0.000187   0.035800   0.007336   0.240301  -0.006861
    25  H   -0.000342   0.053790  -0.000217  -0.000000  -0.000000  -0.000000
    26  H    0.000563   0.063358  -0.000265   0.000000   0.000000  -0.000002
    27  H    0.000918   0.076514   0.000012   0.000000  -0.000000   0.000000
    28  H    0.056669   0.000071  -0.000160  -0.000000  -0.000000  -0.000002
    29  H    0.048250   0.024070  -0.000089   0.000000  -0.000000  -0.000001
    30  H    0.042123   0.000134   0.000010  -0.000000   0.000000   0.000000
    31  H    0.000094  -0.002845  -0.000059   0.000000  -0.000000   0.000000
    32  H   -0.000606   0.000120   0.000004  -0.000000   0.000000  -0.000000
    33  H    0.021526  -0.000090   0.000064  -0.000000   0.000000   0.000000
              13         14         15         16         17         18
     1  Zr  -0.005237  -0.039199  -0.056385  -0.131467  -0.088391  -0.025586
     2  O    0.258875   0.249517   0.257672   0.005538  -0.039393  -0.019154
     3  O    0.001540  -0.017497   0.000261  -0.000386   0.010482   0.003696
     4  O   -0.015513  -0.002694   0.002549   0.349152   0.210411   0.205572
     5  O   -0.000589   0.000635   0.000832   0.003431   0.000747  -0.001209
     6  Si   0.029171   0.008585  -0.006000  -0.444843  -0.444222  -0.480814
     7  Si   0.003242   0.016228  -0.003297   0.003745  -0.002581  -0.001595
     8  Si  -0.144141  -0.495972  -0.383363  -0.009652   0.097916   0.080959
     9  Si  -0.000371  -0.000731  -0.000960  -0.001099   0.003022   0.003641
    10  O   -0.000001  -0.000002  -0.000001   0.000005   0.000005   0.000004
    11  O    0.000015   0.000005  -0.000015  -0.000010   0.000005   0.000008
    12  O   -0.000020   0.000012   0.000018  -0.000001  -0.000009   0.000004
    13  O    8.640195   0.024454  -0.115300   0.003898  -0.028561  -0.042248
    14  O    0.024454   8.810606   0.154953   0.002637  -0.028368  -0.022747
    15  O   -0.115300   0.154953   8.779255  -0.000163   0.003857   0.001143
    16  O    0.003898   0.002637  -0.000163   8.914526  -0.095823  -0.103083
    17  O   -0.028561  -0.028368   0.003857  -0.095823   8.942880   0.223405
    18  O   -0.042248  -0.022747   0.001143  -0.103083   0.223405   9.035072
    19  O    0.000229   0.001861   0.000331  -0.000992  -0.030917   0.000141
    20  O    0.000010  -0.001037   0.000005   0.000051  -0.000784   0.000014
    21  O   -0.000486   0.025763   0.000784  -0.000183  -0.005814   0.000400
    22  H   -0.000000  -0.000000   0.000000  -0.000000   0.000000  -0.000000
    23  H    0.000000   0.000000   0.000000  -0.000000   0.000000   0.000000
    24  H   -0.000000   0.000000   0.000001   0.000000  -0.000000  -0.000000
    25  H    0.216853  -0.009324   0.007491  -0.000253   0.000570   0.015254
    26  H   -0.006665   0.001153   0.225892   0.000000  -0.000021   0.000009
    27  H   -0.004540   0.206814   0.000052   0.000297   0.017873  -0.000796
    28  H    0.000000  -0.000003  -0.000001  -0.000000   0.000002  -0.000000
    29  H    0.000780   0.013896  -0.001360  -0.000004  -0.000715  -0.000002
    30  H    0.000001  -0.000005   0.000001   0.000102  -0.000441  -0.000008
    31  H    0.002345   0.000072  -0.000020   0.005105  -0.001210   0.216254
    32  H   -0.000007  -0.000006   0.000000   0.236011  -0.003418   0.003907
    33  H    0.000247   0.001961  -0.000055   0.000203   0.229778   0.002261
              19         20         21         22         23         24
     1  Zr   0.002643  -0.136860   0.032041  -0.011812  -0.007410  -0.006255
     2  O    0.008189  -0.000770   0.010943  -0.000004  -0.000009  -0.000064
     3  O    0.272931   0.152987   0.154720   0.000038  -0.000007  -0.000005
     4  O    0.012827  -0.000624   0.003823  -0.000004  -0.000033   0.000006
     5  O    0.002388   0.001240   0.000348   0.006297  -0.024181  -0.002847
     6  Si  -0.009066   0.009949  -0.014177   0.000115   0.000143   0.000144
     7  Si  -0.429765  -0.097033   0.021540  -0.000022   0.000004   0.000037
     8  Si  -0.018004   0.009409  -0.047122   0.000141   0.000054   0.000187
     9  Si   0.000842   0.003204  -0.001500   0.048276   0.077179   0.035800
    10  O    0.000007   0.000036  -0.000002  -0.005765   0.230871   0.007336
    11  O    0.000000  -0.000003   0.000002  -0.004832  -0.005140   0.240301
    12  O   -0.000065  -0.000052   0.000003   0.220780   0.005543  -0.006861
    13  O    0.000229   0.000010  -0.000486  -0.000000   0.000000  -0.000000
    14  O    0.001861  -0.001037   0.025763  -0.000000   0.000000   0.000000
    15  O    0.000331   0.000005   0.000784   0.000000   0.000000   0.000001
    16  O   -0.000992   0.000051  -0.000183  -0.000000  -0.000000   0.000000
    17  O   -0.030917  -0.000784  -0.005814   0.000000   0.000000  -0.000000
    18  O    0.000141   0.000014   0.000400  -0.000000   0.000000  -0.000000
    19  O    8.885026   0.033091   0.025261  -0.000000   0.000000  -0.000000
    20  O    0.033091   8.654127  -0.055665   0.000000   0.000000  -0.000000
    21  O    0.025261  -0.055665   8.486228  -0.000000   0.000000   0.000000
    22  H   -0.000000   0.000000  -0.000000   0.359560   0.000056   0.000110
    23  H    0.000000   0.000000   0.000000   0.000056   0.350806   0.000020
    24  H   -0.000000  -0.000000   0.000000   0.000110   0.000020   0.368153
    25  H   -0.000034   0.000000  -0.000012   0.000000   0.000000   0.000000
    26  H    0.000000  -0.000000   0.000043  -0.000000   0.000000  -0.000000
    27  H   -0.000227   0.000223  -0.004728  -0.000000  -0.000000   0.000000
    28  H    0.004343   0.228945  -0.001605  -0.000000   0.000000  -0.000000
    29  H   -0.008643   0.008070   0.208314   0.000000  -0.000000  -0.000000
    30  H    0.223342  -0.001495  -0.007292   0.000000  -0.000000  -0.000000
    31  H    0.000002  -0.000000  -0.000000  -0.000000   0.000000   0.000000
    32  H    0.000093   0.000000   0.000001  -0.000000  -0.000000  -0.000000
    33  H    0.013378  -0.000074   0.001399  -0.000000  -0.000000  -0.000000
              25         26         27         28         29         30
     1  Zr   0.021661  -0.007650   0.006574   0.004472  -0.000204  -0.000297
     2  O   -0.021826  -0.012628  -0.020598  -0.000011  -0.005193  -0.000010
     3  O   -0.000132   0.000017   0.000730  -0.018054  -0.019735   0.000127
     4  O   -0.000940  -0.000012  -0.001631  -0.000013  -0.000195  -0.000488
     5  O   -0.000016  -0.000020   0.000035  -0.000010  -0.000060  -0.000008
     6  Si   0.000595   0.000233   0.010068  -0.000275   0.000691  -0.000438
     7  Si  -0.000342   0.000563   0.000918   0.056669   0.048250   0.042123
     8  Si   0.053790   0.063358   0.076514   0.000071   0.024070   0.000134
     9  Si  -0.000217  -0.000265   0.000012  -0.000160  -0.000089   0.000010
    10  O   -0.000000   0.000000   0.000000  -0.000000   0.000000  -0.000000
    11  O   -0.000000   0.000000  -0.000000  -0.000000  -0.000000   0.000000
    12  O   -0.000000  -0.000002   0.000000  -0.000002  -0.000001   0.000000
    13  O    0.216853  -0.006665  -0.004540   0.000000   0.000780   0.000001
    14  O   -0.009324   0.001153   0.206814  -0.000003   0.013896  -0.000005
    15  O    0.007491   0.225892   0.000052  -0.000001  -0.001360   0.000001
    16  O   -0.000253   0.000000   0.000297  -0.000000  -0.000004   0.000102
    17  O    0.000570  -0.000021   0.017873   0.000002  -0.000715  -0.000441
    18  O    0.015254   0.000009  -0.000796  -0.000000  -0.000002  -0.000008
    19  O   -0.000034   0.000000  -0.000227   0.004343  -0.008643   0.223342
    20  O    0.000000  -0.000000   0.000223   0.228945   0.008070  -0.001495
    21  O   -0.000012   0.000043  -0.004728  -0.001605   0.208314  -0.007292
    22  H    0.000000  -0.000000  -0.000000  -0.000000   0.000000   0.000000
    23  H    0.000000   0.000000  -0.000000   0.000000  -0.000000  -0.000000
    24  H    0.000000  -0.000000   0.000000  -0.000000  -0.000000  -0.000000
    25  H    0.301509  -0.000031   0.000031   0.000000   0.000001   0.000000
    26  H   -0.000031   0.369299  -0.000036   0.000000   0.000018  -0.000000
    27  H    0.000031  -0.000036   0.284795  -0.000000  -0.000991   0.000007
    28  H    0.000000   0.000000  -0.000000   0.349174  -0.000017  -0.000011
    29  H    0.000001   0.000018  -0.000991  -0.000017   0.286047   0.000167
    30  H    0.000000  -0.000000   0.000007  -0.000011   0.000167   0.334506
    31  H   -0.000195   0.000000   0.000014   0.000000   0.000000  -0.000000
    32  H   -0.000001  -0.000000  -0.000000   0.000000  -0.000000  -0.000000
    33  H    0.000005   0.000000  -0.002457  -0.000002   0.000126  -0.001047
              31         32         33
     1  Zr   0.003363   0.002489  -0.014457
     2  O    0.000287  -0.000028   0.000940
     3  O   -0.000021   0.000035  -0.010384
     4  O   -0.018095   0.011177  -0.009474
     5  O   -0.000018   0.000007  -0.000086
     6  Si   0.060792   0.019426   0.052129
     7  Si   0.000094  -0.000606   0.021526
     8  Si  -0.002845   0.000120  -0.000090
     9  Si  -0.000059   0.000004   0.000064
    10  O    0.000000  -0.000000  -0.000000
    11  O   -0.000000   0.000000   0.000000
    12  O    0.000000  -0.000000   0.000000
    13  O    0.002345  -0.000007   0.000247
    14  O    0.000072  -0.000006   0.001961
    15  O   -0.000020   0.000000  -0.000055
    16  O    0.005105   0.236011   0.000203
    17  O   -0.001210  -0.003418   0.229778
    18  O    0.216254   0.003907   0.002261
    19  O    0.000002   0.000093   0.013378
    20  O   -0.000000   0.000000  -0.000074
    21  O   -0.000000   0.000001   0.001399
    22  H   -0.000000  -0.000000  -0.000000
    23  H    0.000000  -0.000000  -0.000000
    24  H    0.000000  -0.000000  -0.000000
    25  H   -0.000195  -0.000001   0.000005
    26  H    0.000000  -0.000000   0.000000
    27  H    0.000014  -0.000000  -0.002457
    28  H    0.000000   0.000000  -0.000002
    29  H    0.000000  -0.000000   0.000126
    30  H   -0.000000  -0.000000  -0.001047
    31  H    0.327399  -0.000010  -0.000036
    32  H   -0.000010   0.349069   0.000146
    33  H   -0.000036   0.000146   0.270984
 Mulliken charges:
               1
     1  Zr   0.054492
     2  O   -0.659524
     3  O   -0.439150
     4  O   -0.674684
     5  O   -0.392989
     6  Si   2.236931
     7  Si   1.796924
     8  Si   2.098922
     9  Si   1.625495
    10  O   -0.847906
    11  O   -0.783156
    12  O   -0.798852
    13  O   -0.818173
    14  O   -0.901565
    15  O   -0.868176
    16  O   -0.736741
    17  O   -0.970284
    18  O   -1.094500
    19  O   -0.989212
    20  O   -0.806965
    21  O   -0.833024
    22  H    0.387066
    23  H    0.372103
    24  H    0.363936
    25  H    0.415563
    26  H    0.366746
    27  H    0.431048
    28  H    0.376488
    29  H    0.446780
    30  H    0.411020
    31  H    0.406784
    32  H    0.381589
    33  H    0.443015
 Sum of Mulliken charges =  -0.00000
 Mulliken charges with hydrogens summed into heavy atoms:
               1
     1  Zr   0.054492
     2  O   -0.659524
     3  O   -0.439150
     4  O   -0.674684
     5  O   -0.392989
     6  Si   2.236931
     7  Si   1.796924
     8  Si   2.098922
     9  Si   1.625495
    10  O   -0.475803
    11  O   -0.419220
    12  O   -0.411786
    13  O   -0.402610
    14  O   -0.470517
    15  O   -0.501430
    16  O   -0.355152
    17  O   -0.527269
    18  O   -0.687716
    19  O   -0.578191
    20  O   -0.430477
    21  O   -0.386244
 Electronic spatial extent (au):  <R**2>=           9801.5129
 Charge=              0.0000 electrons
 Dipole moment (field-independent basis, Debye):
    X=              2.9873    Y=             -1.4886    Z=             -3.0454  Tot=              4.5182
 Quadrupole moment (field-independent basis, Debye-Ang):
   XX=           -166.9748   YY=           -152.0020   ZZ=           -158.6184
   XY=             -6.6891   XZ=             13.0614   YZ=              2.7337
 Traceless Quadrupole moment (field-independent basis, Debye-Ang):
   XX=             -7.7764   YY=              7.1964   ZZ=              0.5800
   XY=             -6.6891   XZ=             13.0614   YZ=              2.7337
 Octapole moment (field-independent basis, Debye-Ang**2):
  XXX=             86.0213  YYY=             -6.7755  ZZZ=            -39.6227  XYY=             -5.9844
  XXY=             26.8502  XXZ=            -21.3554  XZZ=             62.7759  YZZ=            -24.4645
  YYZ=             -2.1859  XYZ=             12.0352
 Hexadecapole moment (field-independent basis, Debye-Ang**3):
 XXXX=          -6069.2198 YYYY=          -2762.8525 ZZZZ=          -2258.9841 XXXY=             21.4024
 XXXZ=             89.5761 YYYX=            -16.1847 YYYZ=            173.0950 ZZZX=             32.0398
 ZZZY=            -86.3626 XXYY=          -1499.3762 XXZZ=          -1470.4782 YYZZ=           -926.4292
 XXYZ=             21.7203 YYXZ=            186.5580 ZZXY=            -66.8958
 N-N= 2.837004240116D+03 E-N=-1.138657212329D+04  KE= 2.373153207123D+03
 PrsmSu:  requested number of processors reduced to:   2 ShMem   1 Linda.
 PrsmSu:  requested number of processors reduced to:  10 ShMem   1 Linda.
   1 Symmetry operations used in ECPInt.
 ECPInt:  NShTT=   13203 NPrTT=   78401 LenC2=   11535 LenP2D=   44734.
 LDataN:  DoStor=T MaxTD1= 9 Len=  602
 Number of processors reduced to  14 by ecpmxn.
 Calling FoFJK, ICntrl=      2127 FMM=F ISym2X=0 I1Cent= 0 IOpClX= 0 NMat=1 NMatS=1 NMatT=0.
 CoulSu:  requested number of processors reduced to:  10 ShMem   1 Linda.
 Defaulting to unpruned grid for atomic number  40.
 Defaulting to unpruned grid for atomic number  40.
 Defaulting to unpruned grid for atomic number  40.
 Defaulting to unpruned grid for atomic number  40.
 Defaulting to unpruned grid for atomic number  40.
 Defaulting to unpruned grid for atomic number  40.
 Defaulting to unpruned grid for atomic number  40.
 Defaulting to unpruned grid for atomic number  40.
 Defaulting to unpruned grid for atomic number  40.
 Defaulting to unpruned grid for atomic number  40.
 Defaulting to unpruned grid for atomic number  40.
 Defaulting to unpruned grid for atomic number  40.
 Defaulting to unpruned grid for atomic number  40.
 Defaulting to unpruned grid for atomic number  40.
 Defaulting to unpruned grid for atomic number  40.
 Defaulting to unpruned grid for atomic number  40.
 ***** Axes restored to original set *****
 -------------------------------------------------------------------
 Center     Atomic                   Forces (Hartrees/Bohr)
 Number     Number              X              Y              Z
 -------------------------------------------------------------------
      1       40           0.000306909   -0.000066248   -0.000012318
      2        8           0.000006911    0.000019530   -0.000024923
      3        8           0.000026439    0.000025960    0.000005836
      4        8          -0.000011933    0.000011545    0.000007066
      5        8          -0.000181552   -0.000096798   -0.000064340
      6       14          -0.000017216    0.000000765    0.000000133
      7       14          -0.000024223    0.000020732   -0.000004829
      8       14          -0.000028241   -0.000007625    0.000010709
      9       14          -0.000183588    0.000260668    0.000194982
     10        8           0.000005500   -0.000027716   -0.000040983
     11        8           0.000006827   -0.000056774   -0.000019259
     12        8           0.000038869   -0.000068167   -0.000045060
     13        8           0.000008462    0.000008821   -0.000000603
     14        8           0.000004281   -0.000002489   -0.000005668
     15        8           0.000001897   -0.000003425   -0.000005388
     16        8          -0.000003229   -0.000000317    0.000006549
     17        8           0.000006408   -0.000008145   -0.000001324
     18        8           0.000005191   -0.000001847   -0.000001233
     19        8           0.000001579   -0.000011024    0.000006530
     20        8           0.000008084   -0.000005101    0.000002267
     21        8           0.000009067    0.000001682   -0.000006283
     22        1           0.000003759   -0.000017547   -0.000017910
     23        1           0.000004271   -0.000001439    0.000006760
     24        1           0.000011453    0.000007791    0.000013338
     25        1          -0.000003451   -0.000000061    0.000000535
     26        1          -0.000002522    0.000002470    0.000003624
     27        1          -0.000009829    0.000002634    0.000007506
     28        1           0.000000036    0.000004187   -0.000002123
     29        1          -0.000001627   -0.000004262   -0.000002938
     30        1           0.000001261    0.000004187   -0.000004765
     31        1          -0.000001376    0.000002304   -0.000000192
     32        1           0.000006847    0.000001082   -0.000007869
     33        1           0.000004734    0.000004627    0.000002176
 -------------------------------------------------------------------
 Cartesian Forces:  Max     0.000306909 RMS     0.000055654

 GradGradGradGradGradGradGradGradGradGradGradGradGradGradGradGradGradGrad
 Berny optimization.
 FormGI is forming the generalized inverse of G from B-inverse, IUseBI=4.
 Internal  Forces:  Max     0.000290532 RMS     0.000037872
 Search for a local minimum.
 Step number   1 out of a maximum of  148
 All quantities printed in internal units (Hartrees-Bohrs-Radians)
 Mixed Optimization -- En-DIIS/RFO-DIIS
 Second derivative matrix not updated -- first step.
 ITU=  0
     Eigenvalues ---    0.00230   0.00230   0.00230   0.00230   0.03239
     Eigenvalues ---    0.03482   0.03500   0.03541   0.03581   0.03661
     Eigenvalues ---    0.03665   0.03674   0.03688   0.03735   0.03789
     Eigenvalues ---    0.03802   0.03811   0.03828   0.03857   0.03858
     Eigenvalues ---    0.08414   0.09469   0.11097   0.11247   0.11629
     Eigenvalues ---    0.11809   0.11979   0.12096   0.12205   0.12217
     Eigenvalues ---    0.12600   0.12707   0.12970   0.13105   0.13263
     Eigenvalues ---    0.16000   0.16000   0.16000   0.16000   0.16000
     Eigenvalues ---    0.16000   0.16000   0.16000   0.16000   0.16000
     Eigenvalues ---    0.16000   0.16000   0.19184   0.19894   0.19953
     Eigenvalues ---    0.20035   0.20159   0.20200   0.20253   0.20422
     Eigenvalues ---    0.20563   0.20992   0.21009   0.21136   0.21189
     Eigenvalues ---    0.21280   0.25000   0.25000   0.25000   0.37992
     Eigenvalues ---    0.40480   0.40678   0.41116   0.41558   0.42453
     Eigenvalues ---    0.42502   0.42608   0.42768   0.43316   0.43953
     Eigenvalues ---    0.44102   0.44216   0.44422   0.44767   0.44782
     Eigenvalues ---    0.50680   0.51458   0.52211   0.52570   0.54329
     Eigenvalues ---    0.54614   0.54649   0.54671   0.54697   0.54715
     Eigenvalues ---    0.54738   0.548931000.000001000.000001000.00000
     Eigenvalues --- 1000.000001000.000001000.000001000.000001000.00000
     Eigenvalues --- 1000.000001000.000001000.000001000.000001000.00000
     Eigenvalues --- 1000.000001000.000001000.000001000.000001000.00000
     Eigenvalues --- 1000.000001000.000001000.000001000.000001000.00000
     Eigenvalues --- 1000.000001000.000001000.000001000.000001000.00000
     Eigenvalues --- 1000.000001000.000001000.000001000.000001000.00000
     Eigenvalues --- 1000.000001000.000001000.000001000.000001000.00000
     Eigenvalues --- 1000.000001000.000001000.000001000.000001000.00000
     Eigenvalues --- 1000.000001000.000001000.00000
 RFO step:  Lambda=-1.04797062D-06 EMin= 2.30000000D-03
 Linear search not attempted -- first point.
 Iteration  1 RMS(Cart)=  0.00462675 RMS(Int)=  0.00000574
 Iteration  2 RMS(Cart)=  0.00000945 RMS(Int)=  0.00000002
 Iteration  3 RMS(Cart)=  0.00000000 RMS(Int)=  0.00000002
 Iteration  1 RMS(Cart)=  0.00000000 RMS(Int)=  0.00000000
 Variable       Old X    -DE/DX   Delta X   Delta X   Delta X     New X
                                 (Linear)    (Quad)   (Total)
    R1        3.67636  -0.00001   0.00000  -0.00004  -0.00004   3.67633
    R2        3.69031   0.00003   0.00000   0.00014   0.00014   3.69045
    R3        3.73798  -0.00000   0.00000  -0.00002  -0.00002   3.73796
    R4        3.71087  -0.00029   0.00000  -0.00146  -0.00146   3.70941
    R5        3.13764   0.00003   0.00000   0.00006   0.00006   3.13771
    R6        3.09653   0.00002   0.00000   0.00003   0.00003   3.09656
    R7        3.10211   0.00000   0.00000   0.00000   0.00000   3.10211
    R8        3.09248  -0.00008   0.00000  -0.00019  -0.00019   3.09229
    R9        3.11657   0.00000   0.00000   0.00000   0.00000   3.11657
   R10        3.11988  -0.00001   0.00000  -0.00002  -0.00002   3.11986
   R11        3.14342  -0.00000   0.00000  -0.00000  -0.00000   3.14342
   R12        3.18077  -0.00000   0.00000  -0.00000  -0.00000   3.18077
   R13        3.10982  -0.00000   0.00000  -0.00000  -0.00000   3.10982
   R14        3.09230  -0.00001   0.00000  -0.00002  -0.00002   3.09228
   R15        3.10032  -0.00001   0.00000  -0.00002  -0.00002   3.10030
   R16        3.14606  -0.00000   0.00000  -0.00000  -0.00000   3.14606
   R17        3.09896  -0.00000   0.00000  -0.00000  -0.00000   3.09896
   R18        3.11857   0.00002   0.00000   0.00005   0.00005   3.11862
   R19        3.13190   0.00005   0.00000   0.00012   0.00012   3.13201
   R20        3.12050  -0.00010   0.00000  -0.00023  -0.00023   3.12027
   R21        1.82146  -0.00000   0.00000  -0.00000  -0.00000   1.82145
   R22        1.82065  -0.00001   0.00000  -0.00001  -0.00001   1.82064
   R23        1.82103  -0.00001   0.00000  -0.00001  -0.00001   1.82101
   R24        1.84058  -0.00000   0.00000  -0.00000  -0.00000   1.84058
   R25        1.84398  -0.00000   0.00000  -0.00001  -0.00001   1.84397
   R26        1.81928   0.00000   0.00000   0.00000   0.00000   1.81928
   R27        1.82086   0.00001   0.00000   0.00002   0.00002   1.82088
   R28        1.85885   0.00000   0.00000   0.00001   0.00001   1.85886
   R29        1.82126  -0.00000   0.00000  -0.00000  -0.00000   1.82125
   R30        1.82433   0.00000   0.00000   0.00001   0.00001   1.82434
   R31        1.82176   0.00000   0.00000   0.00000   0.00000   1.82177
   R32        1.85122   0.00000   0.00000   0.00001   0.00001   1.85123
    A1        1.85569   0.00001   0.00000   0.00001   0.00001   1.85570
    A2        1.80097  -0.00001   0.00000  -0.00004  -0.00004   1.80093
    A3        1.97659  -0.00000   0.00000  -0.00003  -0.00003   1.97656
    A4        1.83906  -0.00001   0.00000  -0.00004  -0.00004   1.83902
    A5        2.01332  -0.00002   0.00000  -0.00014  -0.00014   2.01318
    A6        1.96025   0.00004   0.00000   0.00024   0.00024   1.96050
    A7        2.45892   0.00006   0.00000   0.00026   0.00026   2.45918
    A8        2.59369  -0.00002   0.00000  -0.00010  -0.00010   2.59359
    A9        2.34042  -0.00001   0.00000  -0.00005  -0.00005   2.34037
   A10        2.75762  -0.00022   0.00000   0.00000   0.00000   2.75762
   A11        1.92384   0.00000   0.00000   0.00001   0.00001   1.92386
   A12        1.91272  -0.00001   0.00000  -0.00006  -0.00006   1.91266
   A13        1.94584  -0.00000   0.00000  -0.00002  -0.00002   1.94582
   A14        2.00429   0.00001   0.00000   0.00004   0.00004   2.00433
   A15        1.88341  -0.00000   0.00000   0.00001   0.00001   1.88342
   A16        1.79022   0.00000   0.00000   0.00002   0.00002   1.79023
   A17        1.80104  -0.00000   0.00000  -0.00004  -0.00004   1.80100
   A18        1.99287  -0.00000   0.00000  -0.00000  -0.00000   1.99287
[...]
 Alpha virt. eigenvalues --    3.15925   3.21904   3.36846   3.40957   3.46437
 Alpha virt. eigenvalues --    3.47697   3.48598   3.48807   3.48874   3.51780
 Alpha virt. eigenvalues --    3.52778   3.53715   3.59983   3.61198   3.62155
 Alpha virt. eigenvalues --    3.65899   4.38744   4.66091   7.79971  31.24125
          Condensed to atoms (all electrons):
               1          2          3          4          5          6
     1  Zr  15.118757  -0.041904  -0.005058  -0.138192  -0.186126  -0.713456
     2  O   -0.041904   8.854802   0.014690  -0.043646  -0.052950   0.065733
     3  O   -0.005058   0.014690   8.831831   0.016684  -0.047795  -0.003094
     4  O   -0.138192  -0.043646   0.016684   8.819100  -0.063346  -0.704487
     5  O   -0.186126  -0.052950  -0.047795  -0.063346   9.350025  -0.006925
     6  Si  -0.713456   0.065733  -0.003094  -0.704487  -0.006925  14.173615
     7  Si  -0.589915  -0.021504  -0.872843  -0.010152  -0.031943   0.093343
     8  Si  -0.674149  -0.760614  -0.021621   0.070016  -0.012256   0.026078
     9  Si  -0.281367  -0.031587  -0.012850  -0.020479  -1.106756   0.043123
    10  O   -0.032240   0.000787  -0.001555  -0.000184   0.117974  -0.001473
    11  O   -0.104811   0.002349   0.003363   0.002231   0.330666   0.000028
    12  O    0.054191   0.001263   0.005299   0.001641   0.113799  -0.003140
    13  O   -0.005760   0.258576   0.001547  -0.015544  -0.000606   0.029474
    14  O   -0.038992   0.249817  -0.017478  -0.002689   0.000647   0.008545
    15  O   -0.055659   0.257858   0.000257   0.002554   0.000841  -0.006207
    16  O   -0.131250   0.005532  -0.000348   0.348859   0.003419  -0.445290
    17  O   -0.089001  -0.039561   0.010238   0.210543   0.000727  -0.443432
    18  O   -0.025040  -0.019157   0.003682   0.205340  -0.001222  -0.480274
    19  O    0.002470   0.008197   0.273069   0.012753   0.002371  -0.009184
    20  O   -0.136731  -0.000775   0.153106  -0.000630   0.001226   0.009880
    21  O    0.032255   0.011033   0.154694   0.003800   0.000350  -0.014205
    22  H   -0.011848  -0.000003   0.000039  -0.000004   0.006242   0.000116
    23  H   -0.007423  -0.000009  -0.000006  -0.000035  -0.024220   0.000142
    24  H   -0.006310  -0.000067  -0.000005   0.000007  -0.003009   0.000142
    25  H    0.021650  -0.021816  -0.000132  -0.000945  -0.000016   0.000617
    26  H   -0.007631  -0.012677   0.000017  -0.000012  -0.000020   0.000234
    27  H    0.006839  -0.020600   0.000734  -0.001618   0.000035   0.009868
    28  H    0.004470  -0.000011  -0.018022  -0.000013  -0.000010  -0.000277
    29  H   -0.000168  -0.005215  -0.019759  -0.000195  -0.000060   0.000689
    30  H   -0.000272  -0.000010   0.000109  -0.000486  -0.000008  -0.000441
    31  H    0.003317   0.000290  -0.000021  -0.018086  -0.000018   0.060757
    32  H    0.002482  -0.000029   0.000035   0.011182   0.000007   0.019467
    33  H   -0.014584   0.000952  -0.010390  -0.009501  -0.000086   0.052231
               7          8          9         10         11         12
     1  Zr  -0.589915  -0.674149  -0.281367  -0.032240  -0.104811   0.054191
     2  O   -0.021504  -0.760614  -0.031587   0.000787   0.002349   0.001263
     3  O   -0.872843  -0.021621  -0.012850  -0.001555   0.003363   0.005299
     4  O   -0.010152   0.070016  -0.020479  -0.000184   0.002231   0.001641
     5  O   -0.031943  -0.012256  -1.106756   0.117974   0.330666   0.113799
     6  Si   0.093343   0.026078   0.043123  -0.001473   0.000028  -0.003140
     7  Si  13.762239   0.171986   0.019647   0.001313  -0.000833   0.002524
     8  Si   0.171986  13.762198   0.036749  -0.001449   0.001871  -0.002359
     9  Si   0.019647   0.036749  13.942925  -0.023883  -0.185726  -0.171930
    10  O    0.001313  -0.001449  -0.023883   8.513596   0.003794   0.039027
    11  O   -0.000833   0.001871  -0.185726   0.003794   8.553361  -0.053371
    12  O    0.002524  -0.002359  -0.171930   0.039027  -0.053371   8.592633
    13  O    0.003280  -0.143410  -0.000375  -0.000001   0.000015  -0.000017
    14  O    0.016221  -0.497360  -0.000729  -0.000002   0.000005   0.000013
    15  O   -0.003403  -0.383884  -0.000951  -0.000001  -0.000016   0.000012
    16  O    0.003747  -0.009559  -0.001099   0.000006  -0.000010  -0.000001
    17  O   -0.002260   0.098134   0.003035   0.000005   0.000005  -0.000009
    18  O   -0.001587   0.080602   0.003669   0.000004   0.000007   0.000003
    19  O   -0.429504  -0.018187   0.000850   0.000007   0.000000  -0.000065
    20  O   -0.097614   0.009420   0.003214   0.000034  -0.000003  -0.000056
    21  O    0.021803  -0.047514  -0.001526  -0.000002   0.000002   0.000003
    22  H   -0.000030   0.000142   0.048551  -0.005789  -0.004843   0.220639
    23  H    0.000009   0.000054   0.077287   0.230818  -0.005161   0.005539
    24  H    0.000038   0.000174   0.036201   0.007345   0.240215  -0.006896
    25  H   -0.000341   0.053748  -0.000216  -0.000000  -0.000000  -0.000000
    26  H    0.000563   0.063415  -0.000263   0.000000   0.000000  -0.000002
    27  H    0.000870   0.076550   0.000010   0.000000  -0.000000   0.000000
    28  H    0.056639   0.000069  -0.000159  -0.000000  -0.000000  -0.000002
    29  H    0.048286   0.024151  -0.000091   0.000000  -0.000000  -0.000001
    30  H    0.042104   0.000145   0.000010  -0.000000   0.000000   0.000000
    31  H    0.000095  -0.002824  -0.000059   0.000000  -0.000000   0.000000
    32  H   -0.000608   0.000116   0.000002  -0.000000   0.000000  -0.000000
    33  H    0.021548  -0.000089   0.000064  -0.000000   0.000000   0.000000
              13         14         15         16         17         18
     1  Zr  -0.005760  -0.038992  -0.055659  -0.131250  -0.089001  -0.025040
     2  O    0.258576   0.249817   0.257858   0.005532  -0.039561  -0.019157
     3  O    0.001547  -0.017478   0.000257  -0.000348   0.010238   0.003682
     4  O   -0.015544  -0.002689   0.002554   0.348859   0.210543   0.205340
     5  O   -0.000606   0.000647   0.000841   0.003419   0.000727  -0.001222
     6  Si   0.029474   0.008545  -0.006207  -0.445290  -0.443432  -0.480274
     7  Si   0.003280   0.016221  -0.003403   0.003747  -0.002260  -0.001587
     8  Si  -0.143410  -0.497360  -0.383884  -0.009559   0.098134   0.080602
     9  Si  -0.000375  -0.000729  -0.000951  -0.001099   0.003035   0.003669
    10  O   -0.000001  -0.000002  -0.000001   0.000006   0.000005   0.000004
    11  O    0.000015   0.000005  -0.000016  -0.000010   0.000005   0.000007
    12  O   -0.000017   0.000013   0.000012  -0.000001  -0.000009   0.000003
    13  O    8.639928   0.024398  -0.115036   0.003899  -0.028604  -0.042286
    14  O    0.024398   8.811347   0.154938   0.002641  -0.028419  -0.022746
    15  O   -0.115036   0.154938   8.778600  -0.000163   0.003845   0.001138
    16  O    0.003899   0.002641  -0.000163   8.915002  -0.095712  -0.103198
    17  O   -0.028604  -0.028419   0.003845  -0.095712   8.943140   0.223181
    18  O   -0.042286  -0.022746   0.001138  -0.103198   0.223181   9.034739
    19  O    0.000230   0.001902   0.000333  -0.001003  -0.031009   0.000142
    20  O    0.000009  -0.001036   0.000005   0.000051  -0.000781   0.000014
    21  O   -0.000486   0.025792   0.000799  -0.000183  -0.005849   0.000400
    22  H   -0.000000  -0.000000   0.000000  -0.000000   0.000000  -0.000000
    23  H    0.000000   0.000000   0.000000  -0.000000   0.000000   0.000000
    24  H   -0.000000   0.000000   0.000001   0.000000  -0.000000  -0.000000
    25  H    0.216853  -0.009314   0.007491  -0.000255   0.000576   0.015270
    26  H   -0.006689   0.001158   0.225901   0.000000  -0.000021   0.000009
    27  H   -0.004540   0.206756   0.000052   0.000298   0.017858  -0.000803
    28  H    0.000000  -0.000003  -0.000001  -0.000000   0.000002   0.000000
    29  H    0.000779   0.013857  -0.001367  -0.000004  -0.000712  -0.000002
    30  H    0.000001  -0.000005   0.000001   0.000103  -0.000434  -0.000008
    31  H    0.002345   0.000072  -0.000020   0.005126  -0.001203   0.216312
    32  H   -0.000007  -0.000006   0.000000   0.235989  -0.003425   0.003904
    33  H    0.000248   0.001965  -0.000055   0.000192   0.229706   0.002264
              19         20         21         22         23         24
     1  Zr   0.002470  -0.136731   0.032255  -0.011848  -0.007423  -0.006310
     2  O    0.008197  -0.000775   0.011033  -0.000003  -0.000009  -0.000067
     3  O    0.273069   0.153106   0.154694   0.000039  -0.000006  -0.000005
     4  O    0.012753  -0.000630   0.003800  -0.000004  -0.000035   0.000007
     5  O    0.002371   0.001226   0.000350   0.006242  -0.024220  -0.003009
     6  Si  -0.009184   0.009880  -0.014205   0.000116   0.000142   0.000142
     7  Si  -0.429504  -0.097614   0.021803  -0.000030   0.000009   0.000038
     8  Si  -0.018187   0.009420  -0.047514   0.000142   0.000054   0.000174
     9  Si   0.000850   0.003214  -0.001526   0.048551   0.077287   0.036201
    10  O    0.000007   0.000034  -0.000002  -0.005789   0.230818   0.007345
    11  O    0.000000  -0.000003   0.000002  -0.004843  -0.005161   0.240215
    12  O   -0.000065  -0.000056   0.000003   0.220639   0.005539  -0.006896
    13  O    0.000230   0.000009  -0.000486  -0.000000   0.000000  -0.000000
    14  O    0.001902  -0.001036   0.025792  -0.000000   0.000000   0.000000
    15  O    0.000333   0.000005   0.000799   0.000000   0.000000   0.000001
    16  O   -0.001003   0.000051  -0.000183  -0.000000  -0.000000   0.000000
    17  O   -0.031009  -0.000781  -0.005849   0.000000   0.000000  -0.000000
    18  O    0.000142   0.000014   0.000400  -0.000000   0.000000  -0.000000
    19  O    8.885229   0.033148   0.025328  -0.000000   0.000000  -0.000000
    20  O    0.033148   8.654435  -0.055584   0.000000   0.000000  -0.000000
    21  O    0.025328  -0.055584   8.486051  -0.000000   0.000000   0.000000
    22  H   -0.000000   0.000000  -0.000000   0.359566   0.000057   0.000112
    23  H    0.000000   0.000000   0.000000   0.000057   0.350774   0.000020
    24  H   -0.000000  -0.000000   0.000000   0.000112   0.000020   0.368166
    25  H   -0.000034   0.000000  -0.000012   0.000000   0.000000   0.000000
    26  H    0.000000  -0.000000   0.000043  -0.000000   0.000000  -0.000000
    27  H   -0.000228   0.000223  -0.004726  -0.000000  -0.000000   0.000000
    28  H    0.004338   0.228913  -0.001591  -0.000000   0.000000  -0.000000
    29  H   -0.008643   0.008068   0.208304   0.000000  -0.000000  -0.000000
    30  H    0.223307  -0.001495  -0.007285   0.000000  -0.000000  -0.000000
    31  H    0.000002  -0.000000  -0.000000  -0.000000   0.000000   0.000000
    32  H    0.000093   0.000000   0.000001  -0.000000  -0.000000  -0.000000
    33  H    0.013407  -0.000074   0.001400  -0.000000  -0.000000  -0.000000
              25         26         27         28         29         30
     1  Zr   0.021650  -0.007631   0.006839   0.004470  -0.000168  -0.000272
     2  O   -0.021816  -0.012677  -0.020600  -0.000011  -0.005215  -0.000010
     3  O   -0.000132   0.000017   0.000734  -0.018022  -0.019759   0.000109
     4  O   -0.000945  -0.000012  -0.001618  -0.000013  -0.000195  -0.000486
     5  O   -0.000016  -0.000020   0.000035  -0.000010  -0.000060  -0.000008
     6  Si   0.000617   0.000234   0.009868  -0.000277   0.000689  -0.000441
     7  Si  -0.000341   0.000563   0.000870   0.056639   0.048286   0.042104
     8  Si   0.053748   0.063415   0.076550   0.000069   0.024151   0.000145
     9  Si  -0.000216  -0.000263   0.000010  -0.000159  -0.000091   0.000010
    10  O   -0.000000   0.000000   0.000000  -0.000000   0.000000  -0.000000
    11  O   -0.000000   0.000000  -0.000000  -0.000000  -0.000000   0.000000
    12  O   -0.000000  -0.000002   0.000000  -0.000002  -0.000001   0.000000
    13  O    0.216853  -0.006689  -0.004540   0.000000   0.000779   0.000001
    14  O   -0.009314   0.001158   0.206756  -0.000003   0.013857  -0.000005
    15  O    0.007491   0.225901   0.000052  -0.000001  -0.001367   0.000001
    16  O   -0.000255   0.000000   0.000298  -0.000000  -0.000004   0.000103
    17  O    0.000576  -0.000021   0.017858   0.000002  -0.000712  -0.000434
    18  O    0.015270   0.000009  -0.000803   0.000000  -0.000002  -0.000008
    19  O   -0.000034   0.000000  -0.000228   0.004338  -0.008643   0.223307
    20  O    0.000000  -0.000000   0.000223   0.228913   0.008068  -0.001495
    21  O   -0.000012   0.000043  -0.004726  -0.001591   0.208304  -0.007285
    22  H    0.000000  -0.000000  -0.000000  -0.000000   0.000000   0.000000
    23  H    0.000000   0.000000  -0.000000   0.000000  -0.000000  -0.000000
    24  H    0.000000  -0.000000   0.000000  -0.000000  -0.000000  -0.000000
    25  H    0.301465  -0.000031   0.000032   0.000000   0.000001   0.000000
    26  H   -0.000031   0.369334  -0.000036   0.000000   0.000018  -0.000000
    27  H    0.000032  -0.000036   0.284807  -0.000000  -0.000992   0.000007
    28  H    0.000000   0.000000  -0.000000   0.349187  -0.000017  -0.000011
    29  H    0.000001   0.000018  -0.000992  -0.000017   0.286050   0.000166
    30  H    0.000000  -0.000000   0.000007  -0.000011   0.000166   0.334478
    31  H   -0.000194   0.000000   0.000014   0.000000   0.000000  -0.000000
    32  H   -0.000001  -0.000000  -0.000000   0.000000  -0.000000  -0.000000
    33  H    0.000005   0.000000  -0.002455  -0.000002   0.000126  -0.001048
              31         32         33
     1  Zr   0.003317   0.002482  -0.014584
     2  O    0.000290  -0.000029   0.000952
     3  O   -0.000021   0.000035  -0.010390
     4  O   -0.018086   0.011182  -0.009501
     5  O   -0.000018   0.000007  -0.000086
     6  Si   0.060757   0.019467   0.052231
     7  Si   0.000095  -0.000608   0.021548
     8  Si  -0.002824   0.000116  -0.000089
     9  Si  -0.000059   0.000002   0.000064
    10  O    0.000000  -0.000000  -0.000000
    11  O   -0.000000   0.000000   0.000000
    12  O    0.000000  -0.000000   0.000000
    13  O    0.002345  -0.000007   0.000248
    14  O    0.000072  -0.000006   0.001965
    15  O   -0.000020   0.000000  -0.000055
    16  O    0.005126   0.235989   0.000192
    17  O   -0.001203  -0.003425   0.229706
    18  O    0.216312   0.003904   0.002264
    19  O    0.000002   0.000093   0.013407
    20  O   -0.000000   0.000000  -0.000074
    21  O   -0.000000   0.000001   0.001400
    22  H   -0.000000  -0.000000  -0.000000
    23  H    0.000000  -0.000000  -0.000000
    24  H    0.000000  -0.000000  -0.000000
    25  H   -0.000194  -0.000001   0.000005
    26  H    0.000000  -0.000000   0.000000
    27  H    0.000014  -0.000000  -0.002455
    28  H    0.000000   0.000000  -0.000002
    29  H    0.000000  -0.000000   0.000126
    30  H   -0.000000  -0.000000  -0.001048
    31  H    0.327342  -0.000010  -0.000036
    32  H   -0.000010   0.349067   0.000146
    33  H   -0.000036   0.000146   0.271001
 Mulliken charges:
               1
     1  Zr   0.051456
     2  O   -0.659746
     3  O   -0.438418
     4  O   -0.674465
     5  O   -0.390956
     6  Si   2.237803
     7  Si   1.796282
     8  Si   2.099655
     9  Si   1.624707
    10  O   -0.848133
    11  O   -0.783140
    12  O   -0.798736
    13  O   -0.818225
    14  O   -0.901292
    15  O   -0.867866
    16  O   -0.736792
    17  O   -0.970563
    18  O   -1.094358
    19  O   -0.989321
    20  O   -0.806968
    21  O   -0.833095
    22  H    0.387054
    23  H    0.372154
    24  H    0.363866
    25  H    0.415601
    26  H    0.366691
    27  H    0.431044
    28  H    0.376500
    29  H    0.446729
    30  H    0.411074
    31  H    0.406801
    32  H    0.381594
    33  H    0.443061
 Sum of Mulliken charges =  -0.00000
 Mulliken charges with hydrogens summed into heavy atoms:
               1
     1  Zr   0.051456
     2  O   -0.659746
     3  O   -0.438418
     4  O   -0.674465
     5  O   -0.390956
     6  Si   2.237803
     7  Si   1.796282
     8  Si   2.099655
     9  Si   1.624707
    10  O   -0.475979
    11  O   -0.419274
    12  O   -0.411682
    13  O   -0.402624
    14  O   -0.470248
    15  O   -0.501175
    16  O   -0.355198
    17  O   -0.527501
    18  O   -0.687557
    19  O   -0.578247
    20  O   -0.430468
    21  O   -0.386365
 Electronic spatial extent (au):  <R**2>=           9800.8929
 Charge=             -0.0000 electrons
 Dipole moment (field-independent basis, Debye):
    X=              2.9972    Y=             -1.4908    Z=             -3.0155  Tot=              4.5055
 Quadrupole moment (field-independent basis, Debye-Ang):
   XX=           -166.9930   YY=           -151.9848   ZZ=           -158.5979
   XY=             -6.6515   XZ=             13.1294   YZ=              2.6925
 Traceless Quadrupole moment (field-independent basis, Debye-Ang):
   XX=             -7.8011   YY=              7.2071   ZZ=              0.5940
   XY=             -6.6515   XZ=             13.1294   YZ=              2.6925
 Octapole moment (field-independent basis, Debye-Ang**2):
  XXX=             86.6295  YYY=             -6.0373  ZZZ=            -39.1041  XYY=             -5.8180
  XXY=             26.8141  XXZ=            -21.3512  XZZ=             62.4428  YZZ=            -25.2685
  YYZ=             -2.1974  XYZ=             12.3111
 Hexadecapole moment (field-independent basis, Debye-Ang**3):
 XXXX=          -6067.9210 YYYY=          -2763.3648 ZZZZ=          -2259.0262 XXXY=             22.4446
 XXXZ=             88.8442 YYYX=            -12.7834 YYYZ=            171.8377 ZZZX=             31.9473
 ZZZY=            -86.8631 XXYY=          -1497.4145 XXZZ=          -1473.2793 YYZZ=           -924.6543
 XXYZ=             24.1697 YYXZ=            186.8701 ZZXY=            -70.1752
 N-N= 2.837068018787D+03 E-N=-1.138670127219D+04  KE= 2.373154244604D+03
 1\1\GINC-GRA1196\FOpt\RB3LYP\Gen\H12O16Si4Zr1\SARASHS\02-Aug-2020\0\\#
 n B3LYP/Gen Pseudo=cards EmpiricalDispersion=GD3 Opt=modredundant\\Tit
 le\\0,1\Zr,0.6464825943,-0.1917806661,-0.149995228\O,-0.1944714457,-0.
 9342605549,1.4394704241\O,0.174684204,1.7029748354,-0.1858492497\O,-0.
 3770515938,-1.0151745374,-1.6289675667\O,2.567042912,-0.582108959,-0.2
 621010155\Si,-1.9684882557,-1.329503981,-1.880477283\Si,-0.9874891568,
 2.8558559303,-0.1126773707\Si,-1.6778226396,-1.0556228643,2.1755667714
 \Si,4.1747805504,-0.3623227457,-0.051056816\O,4.9226108624,0.392934477
 8,-1.3135925832\O,4.9387745901,-1.825601405,0.0978745905\O,4.297410143
 3,0.6083445697,1.2789554036\O,-2.3388550901,-2.5156642233,1.8250721237
 \O,-2.623095308,0.206589645,1.6418016217\O,-1.5564365089,-0.8319205807
 ,3.7956135611\O,-2.2525740318,-1.5857919256,-3.4846937352\O,-2.8830058
 152,-0.137472421,-1.1960593172\O,-2.4604006295,-2.6848049187,-1.050912
 6118\O,-2.0053833012,2.4571738388,-1.3925799208\O,-0.4436565578,4.3808
 16618,-0.4074327029\O,-1.7573487098,2.8640354827,1.3312472801\H,5.1509
 612593,1.0270610218,1.4361974944\H,5.3254784987,-0.1836873653,-1.97258
 30197\H,4.5103460437,-2.4941750188,0.6434812311\H,-2.4095316929,-2.747
 3997737,0.8816873509\H,-0.9396087771,-1.3945081752,4.2750250556\H,-3.0
 309778973,0.0459982583,0.7700217846\H,-0.2885533675,4.9318199419,0.368
 2624762\H,-2.0949987928,1.9998320775,1.6456133426\H,-2.6048810768,3.16
 000581,-1.6729908126\H,-2.5660036894,-3.4892334262,-1.571093172\H,-1.5
 506138923,-1.3303622382,-4.0933582942\H,-2.6390034284,0.791853273,-1.4
 068698126\\Version=ES64L-G16RevB.01\State=1-A\HF=-2416.9458662\RMSD=2.
 346e-09\RMSF=1.634e-05\Dipole=1.166878,-0.5919682,-1.1958322\Quadrupol
 e=-5.7794465,5.4315008,0.3479457,-4.8748526,9.7925425,1.9619201\PG=C01
  [X(H12O16Si4Zr1)]\\@


 TRUST EVERYONE, BUT CUT THE CARDS.
 Job cpu time:       0 days  9 hours 57 minutes 35.0 seconds.
 Elapsed time:       0 days  0 hours 44 minutes 42.5 seconds.
 File lengths (MBytes):  RWF=    167 Int=      0 D2E=      0 Chk=     21 Scr=      1
 Normal termination of Gaussian 16 at Sun Aug  2 07:47:50 2020.
