 Entering Gaussian System, Link 0=g16
 Initial command:
 /opt/software/gaussian/g16.b01/l1.exe "/localscratch/sarashs.36760144.0/Gau-31018.inp" -scrdir="/localscratch/sarashs.36760144.0/"
 Entering Link 1 = /opt/software/gaussian/g16.b01/l1.exe PID=     31019.
  
 Copyright (c) 1988-2017, Gaussian, Inc.  All Rights Reserved.
  
 This is part of the Gaussian(R) 16 program.  It is based on
 the Gaussian(R) 09 system (copyright 2009, Gaussian, Inc.),
 the Gaussian(R) 03 system (copyright 2003, Gaussian, Inc.),
 the Gaussian(R) 98 system (copyright 1998, Gaussian, Inc.),
 the Gaussian(R) 94 system (copyright 1995, Gaussian, Inc.),
 the Gaussian 92(TM) system (copyright 1992, Gaussian, Inc.),
 the Gaussian 90(TM) system (copyright 1990, Gaussian, Inc.),
 the Gaussian 88(TM) system (copyright 1988, Gaussian, Inc.),
 the Gaussian 86(TM) system (copyright 1986, Carnegie Mellon
 University), and the Gaussian 82(TM) system (copyright 1983,
 Carnegie Mellon University). Gaussian is a federally registered
 trademark of Gaussian, Inc.
  
 This software contains proprietary and confidential information,
 including trade secrets, belonging to Gaussian, Inc.
  
 This software is provided under written license and may be
 used, copied, transmitted, or stored only in accord with that
 written license.
  
 The following legend is applicable only to US Government
 contracts under FAR:
  
                    RESTRICTED RIGHTS LEGEND
  
 Use, reproduction and disclosure by the US Government is
 subject to restrictions as set forth in subparagraphs (a)
 and (c) of the Commercial Computer Software - Restricted
 Rights clause in FAR 52.227-19.
  
 Gaussian, Inc.
 340 Quinnipiac St., Bldg. 40, Wallingford CT 06492
  
  
 ---------------------------------------------------------------
 Warning -- This program may not be used in any manner that
 competes with the business of Gaussian, Inc. or will provide
 assistance to any competitor of Gaussian, Inc.  The licensee
 of this program is prohibited from giving any competitor of
 Gaussian, Inc. access to this program.  By using this program,
 the user acknowledges that Gaussian, Inc. is engaged in the
 business of creating and licensing software in the field of
 computational chemistry and represents and warrants to the
 licensee that it is not a competitor of Gaussian, Inc. and that
 it will not use this program in any manner prohibited above.
 ---------------------------------------------------------------
  

 Cite this work as:
 Gaussian 16, Revision B.01,
 M. J. Frisch, G. W. Trucks, H. B. Schlegel, G. E. Scuseria, 
 M. A. Robb, J. R. Cheeseman, G. Scalmani, V. Barone, 
 G. A. Petersson, H. Nakatsuji, X. Li, M. Caricato, A. V. Marenich, 
 J. Bloino, B. G. Janesko, R. Gomperts, B. Mennucci, H. P. Hratchian, 
 J. V. Ortiz, A. F. Izmaylov, J. L. Sonnenberg, D. Williams-Young, 
 F. Ding, F. Lipparini, F. Egidi, J. Goings, B. Peng, A. Petrone, 
 T. Henderson, D. Ranasinghe, V. G. Zakrzewski, J. Gao, N. Rega, 
 G. Zheng, W. Liang, M. Hada, M. Ehara, K. Toyota, R. Fukuda, 
 J. Hasegawa, M. Ishida, T. Nakajima, Y. Honda, O. Kitao, H. Nakai, 
 T. Vreven, K. Throssell, J. A. Montgomery, Jr., J. E. Peralta, 
 F. Ogliaro, M. J. Bearpark, J. J. Heyd, E. N. Brothers, K. N. Kudin, 
 V. N. Staroverov, T. A. Keith, R. Kobayashi, J. Normand, 
 K. Raghavachari, A. P. Rendell, J. C. Burant, S. S. Iyengar, 
 J. Tomasi, M. Cossi, J. M. Millam, M. Klene, C. Adamo, R. Cammi, 
 J. W. Ochterski, R. L. Martin, K. Morokuma, O. Farkas, 
 J. B. Foresman, and D. J. Fox, Gaussian, Inc., Wallingford CT, 2016.
 
 ******************************************
 Gaussian 16:  ES64L-G16RevB.01 20-Dec-2017
                 2-Aug-2020 
 ******************************************
 %NProcShared=16
 Will use up to   16 processors via shared memory.
 ------------------------------------------------------------------
 #n B3LYP/Gen Pseudo=cards EmpiricalDispersion=GD3 Opt=modredundant
 ------------------------------------------------------------------
 1/18=120,19=15,26=3,38=1/1,3;
 2/9=110,12=2,17=6,18=5,40=1/2;
 3/5=7,11=2,16=1,17=8,25=1,30=1,71=1,74=-5,124=31/1,2,3;
 4//1;
 5/5=2,38=5/2;
 6/7=2,8=2,9=2,10=2,28=1/1;
 7//1,2,3,16;
 1/18=20,19=15,26=3/3(2);
 2/9=110/2;
 99//99;
 2/9=110/2;
 3/5=7,6=1,11=2,16=1,17=8,25=1,30=1,71=1,74=-5,82=7,124=31/1,2,3;
 4/5=5,16=3,69=1/1;
 5/5=2,38=5/2;
 7//1,2,3,16;
 1/18=20,19=15,26=3/3(-5);
 2/9=110/2;
 6/7=2,8=2,9=2,10=2,19=2,28=1/1;
 99/9=1/99;
 -----
 Title
 -----
 Symbolic Z-matrix:
 Charge =  0 Multiplicity = 1
 Zr                    0.64646  -0.19013  -0.1519 
 O                    -0.19212  -0.93131   1.43939 
 O                     0.17263   1.70395  -0.1904 
 O                    -0.37772  -1.01692  -1.62844 
 O                     2.5678   -0.57883  -0.26812 
 Si                   -1.96924  -1.33216  -1.87829 
 Si                   -0.98958   2.85681  -0.11809 
 Si                   -1.67476  -1.05152   2.17706 
 Si                    3.79337   0.32418   0.33237 
 O                     4.42592   1.40333  -0.74407 
 O                     5.06046  -0.64913   0.77271 
 O                     3.11991   1.17211   1.57906 
 O                    -2.33574  -2.51245   1.83004 
 O                    -2.6209    0.20928   1.64149 
 O                    -1.552    -0.82432   3.7965 
 O                    -2.25427  -1.59164  -3.48183 
 O                    -2.88371  -0.13912  -1.19557 
 O                    -2.46027  -2.68598  -1.04579 
 O                    -2.00825   2.45605  -1.3967 
 O                    -0.44623   4.38142  -0.41555 
 O                    -1.75835   2.86715   1.32642 
 H                     3.62356   1.91899   1.92131 
 H                     5.19848   1.10538  -1.23745 
 H                     4.84868  -1.46926   1.23181 
 H                    -2.40738  -2.74575   0.88712 
 H                    -0.93391  -1.38513   4.27638 
 H                    -3.02928   0.04705   0.77024 
 H                    -0.29029   4.93346   0.35924 
 H                    -2.09489   2.00321   1.64266 
 H                    -2.6086    3.15807  -1.6773 
 H                    -2.56602  -3.49143  -1.56436 
 H                    -1.55278  -1.33714  -4.09141 
 H                    -2.64046   0.78995  -1.40829 
 
 The following ModRedundant input section has been read:
 A       1       5       9 F                                                   
 

 GradGradGradGradGradGradGradGradGradGradGradGradGradGradGradGradGradGrad
 Berny optimization.
 Initialization pass.
                           ----------------------------
                           !    Initial Parameters    !
                           ! (Angstroms and Degrees)  !
 --------------------------                            --------------------------
 ! Name  Definition              Value          Derivative Info.                !
 --------------------------------------------------------------------------------
 ! R1    R(1,2)                  1.9454         estimate D2E/DX2                !
 ! R2    R(1,3)                  1.9528         estimate D2E/DX2                !
 ! R3    R(1,4)                  1.9781         estimate D2E/DX2                !
 ! R4    R(1,5)                  1.9637         estimate D2E/DX2                !
 ! R5    R(2,8)                  1.6604         estimate D2E/DX2                !
 ! R6    R(3,7)                  1.6386         estimate D2E/DX2                !
 ! R7    R(4,6)                  1.6416         estimate D2E/DX2                !
 ! R8    R(5,9)                  1.6365         estimate D2E/DX2                !
 ! R9    R(6,16)                 1.6492         estimate D2E/DX2                !
 ! R10   R(6,17)                 1.651          estimate D2E/DX2                !
 ! R11   R(6,18)                 1.6634         estimate D2E/DX2                !
 ! R12   R(7,19)                 1.6832         estimate D2E/DX2                !
 ! R13   R(7,20)                 1.6456         estimate D2E/DX2                !
 ! R14   R(7,21)                 1.6364         estimate D2E/DX2                !
 ! R15   R(8,13)                 1.6406         estimate D2E/DX2                !
 ! R16   R(8,14)                 1.6648         estimate D2E/DX2                !
 ! R17   R(8,15)                 1.6399         estimate D2E/DX2                !
 ! R18   R(9,10)                 1.6503         estimate D2E/DX2                !
 ! R19   R(9,11)                 1.6573         estimate D2E/DX2                !
 ! R20   R(9,12)                 1.6513         estimate D2E/DX2                !
 ! R21   R(10,23)                0.9639         estimate D2E/DX2                !
 ! R22   R(11,24)                0.9635         estimate D2E/DX2                !
 ! R23   R(12,22)                0.9637         estimate D2E/DX2                !
 ! R24   R(13,25)                0.974          estimate D2E/DX2                !
 ! R25   R(14,27)                0.9758         estimate D2E/DX2                !
 ! R26   R(15,26)                0.9627         estimate D2E/DX2                !
 ! R27   R(16,32)                0.9636         estimate D2E/DX2                !
 ! R28   R(17,33)                0.9837         estimate D2E/DX2                !
 ! R29   R(18,31)                0.9638         estimate D2E/DX2                !
 ! R30   R(19,30)                0.9654         estimate D2E/DX2                !
 ! R31   R(20,28)                0.964          estimate D2E/DX2                !
 ! R32   R(21,29)                0.9796         estimate D2E/DX2                !
 ! A1    A(2,1,3)              106.3234         estimate D2E/DX2                !
 ! A2    A(2,1,4)              103.1879         estimate D2E/DX2                !
 ! A3    A(2,1,5)              113.2501         estimate D2E/DX2                !
 ! A4    A(3,1,4)              105.3705         estimate D2E/DX2                !
 ! A5    A(3,1,5)              115.3549         estimate D2E/DX2                !
 ! A6    A(4,1,5)              112.3142         estimate D2E/DX2                !
 ! A7    A(1,2,8)              140.8859         estimate D2E/DX2                !
 ! A8    A(1,3,7)              148.6074         estimate D2E/DX2                !
 ! A9    A(1,4,6)              134.0964         estimate D2E/DX2                !
 ! A10   A(1,5,9)              126.9997         Frozen                          !
 ! A11   A(4,6,16)             110.2282         estimate D2E/DX2                !
 ! A12   A(4,6,17)             109.5909         estimate D2E/DX2                !
 ! A13   A(4,6,18)             111.4884         estimate D2E/DX2                !
 ! A14   A(16,6,17)            114.8371         estimate D2E/DX2                !
 ! A15   A(16,6,18)            107.9112         estimate D2E/DX2                !
 ! A16   A(17,6,18)            102.5719         estimate D2E/DX2                !
 ! A17   A(3,7,19)             103.1918         estimate D2E/DX2                !
 ! A18   A(3,7,20)             114.1832         estimate D2E/DX2                !
 ! A19   A(3,7,21)             112.1241         estimate D2E/DX2                !
 ! A20   A(19,7,20)            106.4451         estimate D2E/DX2                !
 ! A21   A(19,7,21)            112.8144         estimate D2E/DX2                !
 ! A22   A(20,7,21)            107.9884         estimate D2E/DX2                !
 ! A23   A(2,8,13)             109.2843         estimate D2E/DX2                !
 ! A24   A(2,8,14)             108.0427         estimate D2E/DX2                !
 ! A25   A(2,8,15)             111.2146         estimate D2E/DX2                !
 ! A26   A(13,8,14)            112.1704         estimate D2E/DX2                !
 ! A27   A(13,8,15)            111.2482         estimate D2E/DX2                !
 ! A28   A(14,8,15)            104.7916         estimate D2E/DX2                !
 ! A29   A(5,9,10)             114.1134         estimate D2E/DX2                !
 ! A30   A(5,9,11)             110.243          estimate D2E/DX2                !
 ! A31   A(5,9,12)             104.7704         estimate D2E/DX2                !
 ! A32   A(10,9,11)            105.3248         estimate D2E/DX2                !
 ! A33   A(10,9,12)            108.2399         estimate D2E/DX2                !
 ! A34   A(11,9,12)            114.3794         estimate D2E/DX2                !
 ! A35   A(9,10,23)            116.038          estimate D2E/DX2                !
 ! A36   A(9,11,24)            117.2881         estimate D2E/DX2                !
 ! A37   A(9,12,22)            116.9341         estimate D2E/DX2                !
 ! A38   A(8,13,25)            116.5961         estimate D2E/DX2                !
 ! A39   A(8,14,27)            113.5263         estimate D2E/DX2                !
 ! A40   A(8,15,26)            117.3612         estimate D2E/DX2                !
 ! A41   A(6,16,32)            116.5984         estimate D2E/DX2                !
 ! A42   A(6,17,33)            117.1373         estimate D2E/DX2                !
 ! A43   A(6,18,31)            116.3135         estimate D2E/DX2                !
 ! A44   A(7,19,30)            115.0881         estimate D2E/DX2                !
 ! A45   A(7,20,28)            116.018          estimate D2E/DX2                !
 ! A46   A(7,21,29)            116.1544         estimate D2E/DX2                !
 ! D1    D(3,1,2,8)             54.013          estimate D2E/DX2                !
 ! D2    D(4,1,2,8)            -56.615          estimate D2E/DX2                !
 ! D3    D(5,1,2,8)           -178.2908         estimate D2E/DX2                !
 ! D4    D(2,1,3,7)            -51.1331         estimate D2E/DX2                !
 ! D5    D(4,1,3,7)             57.9568         estimate D2E/DX2                !
 ! D6    D(5,1,3,7)           -177.5709         estimate D2E/DX2                !
 ! D7    D(2,1,4,6)             41.2968         estimate D2E/DX2                !
 ! D8    D(3,1,4,6)            -70.0365         estimate D2E/DX2                !
 ! D9    D(5,1,4,6)            163.602          estimate D2E/DX2                !
 ! D10   D(2,1,5,9)            -89.636          estimate D2E/DX2                !
 ! D11   D(3,1,5,9)             33.1906         estimate D2E/DX2                !
 ! D12   D(4,1,5,9)            153.9572         estimate D2E/DX2                !
 ! D13   D(1,2,8,13)            98.0767         estimate D2E/DX2                !
 ! D14   D(1,2,8,14)           -24.2296         estimate D2E/DX2                !
 ! D15   D(1,2,8,15)          -138.7156         estimate D2E/DX2                !
 ! D16   D(1,3,7,19)           -58.6416         estimate D2E/DX2                !
 ! D17   D(1,3,7,20)          -173.7291         estimate D2E/DX2                !
 ! D18   D(1,3,7,21)            63.0404         estimate D2E/DX2                !
 ! D19   D(1,4,6,16)           161.8736         estimate D2E/DX2                !
 ! D20   D(1,4,6,17)            34.551          estimate D2E/DX2                !
 ! D21   D(1,4,6,18)           -78.3045         estimate D2E/DX2                !
 ! D22   D(1,5,9,10)           -93.0141         estimate D2E/DX2                !
 ! D23   D(1,5,9,11)           148.7119         estimate D2E/DX2                !
 ! D24   D(1,5,9,12)            25.1925         estimate D2E/DX2                !
 ! D25   D(4,6,16,32)          -13.7229         estimate D2E/DX2                !
 ! D26   D(17,6,16,32)         110.6319         estimate D2E/DX2                !
 ! D27   D(18,6,16,32)        -135.686          estimate D2E/DX2                !
 ! D28   D(4,6,17,33)           49.7998         estimate D2E/DX2                !
 ! D29   D(16,6,17,33)         -74.8906         estimate D2E/DX2                !
 ! D30   D(18,6,17,33)         168.3378         estimate D2E/DX2                !
 ! D31   D(4,6,18,31)         -102.9126         estimate D2E/DX2                !
 ! D32   D(16,6,18,31)          18.2691         estimate D2E/DX2                !
 ! D33   D(17,6,18,31)         139.8941         estimate D2E/DX2                !
 ! D34   D(3,7,19,30)         -162.9704         estimate D2E/DX2                !
 ! D35   D(20,7,19,30)         -42.4468         estimate D2E/DX2                !
 ! D36   D(21,7,19,30)          75.8144         estimate D2E/DX2                !
 ! D37   D(3,7,20,28)         -100.1112         estimate D2E/DX2                !
 ! D38   D(19,7,20,28)         146.7232         estimate D2E/DX2                !
 ! D39   D(21,7,20,28)          25.3303         estimate D2E/DX2                !
 ! D40   D(3,7,21,29)          -50.5298         estimate D2E/DX2                !
 ! D41   D(19,7,21,29)          65.4642         estimate D2E/DX2                !
 ! D42   D(20,7,21,29)        -177.1813         estimate D2E/DX2                !
 ! D43   D(2,8,13,25)          -54.0971         estimate D2E/DX2                !
 ! D44   D(14,8,13,25)          65.6987         estimate D2E/DX2                !
 ! D45   D(15,8,13,25)        -177.2849         estimate D2E/DX2                !
 ! D46   D(2,8,14,27)           81.1206         estimate D2E/DX2                !
 ! D47   D(13,8,14,27)         -39.3971         estimate D2E/DX2                !
 ! D48   D(15,8,14,27)        -160.2179         estimate D2E/DX2                !
 ! D49   D(2,8,15,26)          -54.9076         estimate D2E/DX2                !
 ! D50   D(13,8,15,26)          67.168          estimate D2E/DX2                !
 ! D51   D(14,8,15,26)        -171.403          estimate D2E/DX2                !
 ! D52   D(5,9,10,23)          -94.3727         estimate D2E/DX2                !
 ! D53   D(11,9,10,23)          26.6726         estimate D2E/DX2                !
 ! D54   D(12,9,10,23)         149.4208         estimate D2E/DX2                !
 ! D55   D(5,9,11,24)          -42.1573         estimate D2E/DX2                !
 ! D56   D(10,9,11,24)        -165.6996         estimate D2E/DX2                !
 ! D57   D(12,9,11,24)          75.5827         estimate D2E/DX2                !
 ! D58   D(5,9,12,22)         -165.3212         estimate D2E/DX2                !
 ! D59   D(10,9,12,22)         -43.1976         estimate D2E/DX2                !
 ! D60   D(11,9,12,22)          73.8587         estimate D2E/DX2                !
 --------------------------------------------------------------------------------
 Trust Radius=3.00D-01 FncErr=1.00D-07 GrdErr=1.00D-06 EigMax=2.50D+02 EigMin=1.00D-04
 Number of steps in this run=    148 maximum allowed number of steps=    198.
 GradGradGradGradGradGradGradGradGradGradGradGradGradGradGradGradGradGrad

                          Input orientation:                          
 ---------------------------------------------------------------------
 Center     Atomic      Atomic             Coordinates (Angstroms)
 Number     Number       Type             X           Y           Z
 ---------------------------------------------------------------------
      1         40           0        0.646460   -0.190130   -0.151900
      2          8           0       -0.192120   -0.931310    1.439390
      3          8           0        0.172630    1.703950   -0.190400
      4          8           0       -0.377720   -1.016920   -1.628440
      5          8           0        2.567800   -0.578830   -0.268120
      6         14           0       -1.969240   -1.332160   -1.878290
      7         14           0       -0.989580    2.856810   -0.118090
      8         14           0       -1.674760   -1.051520    2.177060
      9         14           0        3.793370    0.324180    0.332370
     10          8           0        4.425920    1.403330   -0.744070
     11          8           0        5.060460   -0.649130    0.772710
     12          8           0        3.119910    1.172110    1.579060
     13          8           0       -2.335740   -2.512450    1.830040
     14          8           0       -2.620900    0.209280    1.641490
     15          8           0       -1.552000   -0.824320    3.796500
     16          8           0       -2.254270   -1.591640   -3.481830
     17          8           0       -2.883710   -0.139120   -1.195570
     18          8           0       -2.460270   -2.685980   -1.045790
     19          8           0       -2.008250    2.456050   -1.396700
     20          8           0       -0.446230    4.381420   -0.415550
     21          8           0       -1.758350    2.867150    1.326420
     22          1           0        3.623560    1.918990    1.921310
     23          1           0        5.198480    1.105380   -1.237450
     24          1           0        4.848680   -1.469260    1.231810
     25          1           0       -2.407380   -2.745750    0.887120
     26          1           0       -0.933910   -1.385130    4.276380
     27          1           0       -3.029280    0.047050    0.770240
     28          1           0       -0.290290    4.933460    0.359240
     29          1           0       -2.094890    2.003210    1.642660
     30          1           0       -2.608600    3.158070   -1.677300
     31          1           0       -2.566020   -3.491430   -1.564360
     32          1           0       -1.552780   -1.337140   -4.091410
     33          1           0       -2.640460    0.789950   -1.408290
 ---------------------------------------------------------------------
                    Distance matrix (angstroms):
                    1          2          3          4          5
     1  Zr   0.000000
     2  O    1.945448   0.000000
     3  O    1.952828   3.119912   0.000000
     4  O    1.978054   3.074631   3.126336   0.000000
     5  O    1.963706   3.264505   3.309677   3.273909   0.000000
     6  Si   3.335647   3.784949   4.080998   1.641565   4.872872
     7  Si   3.458557   4.172714   1.638611   4.202537   4.947836
     8  Si   3.399134   1.660370   4.075577   4.020614   4.919518
     9  Si   3.225225   4.322717   3.909835   4.800137   1.636471
    10  O    4.144164   5.616434   4.299698   5.451117   2.758278
    11  O    4.533098   5.302234   5.509578   5.956055   2.702152
    12  O    3.312080   3.925994   3.478549   5.226215   2.604360
    13  O    4.267877   2.692159   5.305858   4.246356   5.673259
    14  O    3.748522   2.690866   3.659736   4.150646   5.584831
    15  O    4.563473   2.723360   5.026119   5.553918   5.792595
    16  O    4.633238   5.376514   5.252073   2.699407   5.882693
    17  O    3.681569   3.849056   3.707895   2.690334   5.547294
    18  O    4.084125   3.794666   5.189927   2.731713   5.506936
    19  O    3.949592   4.776604   2.603277   3.843677   5.605749
    20  O    4.707712   5.632981   2.757268   5.533342   5.806048
    21  O    4.161190   4.110248   2.717068   5.071818   5.756119
    22  H    4.196393   4.787052   4.051479   6.101683   3.485303
    23  H    4.855682   6.353908   5.168536   5.979217   3.270572
    24  H    4.605375   5.073672   5.827297   5.975023   2.871423
    25  H    4.115422   2.916260   5.255219   3.665572   5.548201
    26  H    4.851315   2.967274   5.542470   5.942375   5.793494
    27  H    3.797060   3.074805   3.731002   3.730478   5.726886
    28  H    5.233540   5.964217   3.308494   6.274196   6.240801
    29  H    3.942865   3.503321   2.931094   4.771787   5.662039
    30  H    4.912505   5.681211   3.472834   4.733894   6.537991
    31  H    4.818055   4.605663   6.031579   3.303931   6.043144
    32  H    4.655322   5.710153   5.238621   2.747640   5.672016
    33  H    3.652796   4.131148   3.198770   2.904004   5.504500
                    6          7          8          9         10
     6  Si   0.000000
     7  Si   4.648172   0.000000
     8  Si   4.075701   4.583910   0.000000
     9  Si   6.390474   5.430814   5.932611   0.000000
    10  O    7.047512   5.641994   7.195664   1.650275   0.000000
    11  O    7.543939   7.048980   6.891829   1.657332   2.629801
    12  O    6.642596   4.754623   5.318928   1.651293   2.675081
    13  O    3.908851   5.868246   1.640620   6.917765   8.226750
    14  O    3.897377   3.573058   1.664822   6.547508   7.534874
    15  O    5.712725   5.402874   1.639901   6.472421   7.830372
    16  O    1.649216   5.718645   5.714070   7.402191   7.816016
    17  O    1.650971   3.704631   3.697116   6.865322   7.484230
    18  O    1.663429   5.809137   3.698006   7.075903   8.014556
    19  O    3.818898   1.683194   5.018568   6.418204   6.552304
    20  O    6.091319   1.645645   6.143920   5.915639   5.719685
    21  O    5.286667   1.636375   4.010804   6.186795   6.683928
    22  H    7.502423   5.130275   6.079600   2.257650   2.830890
    23  H    7.597927   6.527830   7.971984   2.246985   0.963871
    24  H    7.495035   7.390696   6.604792   2.266958   3.512065
    25  H    3.136510   5.865943   2.251909   6.941291   8.159022
    26  H    6.241368   6.108070   2.251066   6.389376   7.855457
    27  H    3.168693   3.583889   2.240697   6.842301   7.727395
    28  H    6.861735   2.242616   6.406342   6.158122   5.993475
    29  H    4.851553   2.247350   3.129452   6.261598   6.969742
    30  H    4.539972   2.267845   5.783493   7.283881   7.309891
    31  H    2.262111   6.699031   4.554748   7.654953   8.574309
    32  H    2.251969   5.804626   6.276159   7.135204   7.379683
    33  H    2.274816   2.943116   4.144674   6.681393   7.123984
                   11         12         13         14         15
    11  O    0.000000
    12  O    2.780800   0.000000
    13  O    7.700239   6.588102   0.000000
    14  O    7.777849   5.821326   2.743115   0.000000
    15  O    7.273144   5.543421   2.707581   2.618195   0.000000
    16  O    8.514383   7.882432   5.391706   5.442990   7.352282
    17  O    8.200248   6.742503   3.884235   2.870429   5.211882
    18  O    8.001067   7.274139   2.883751   3.953455   5.266736
    19  O    8.019672   6.066438   5.933388   3.828043   6.159409
    20  O    7.552617   5.195719   7.492554   5.134915   6.787033
    21  O    7.692008   5.170533   5.433885   2.812034   4.446440
    22  H    3.158988   0.963654   7.426927   6.480331   6.150488
    23  H    2.671722   3.501091   8.902958   8.380572   8.639061
    24  H    0.963450   3.175856   7.284368   7.666809   6.925481
    25  H    7.757418   6.810238   0.973991   3.057265   3.589994
    26  H    6.982111   5.499861   3.036537   3.511513   0.962719
    27  H    8.119641   6.303371   2.855734   0.975792   3.478490
    28  H    7.743823   5.221607   7.860578   5.421604   6.823394
    29  H    7.680544   5.280995   4.525959   1.869458   3.595648
    30  H    8.905717   6.882132   6.673131   4.439581   6.851155
    31  H    8.467807   7.997468   3.540252   4.896503   6.072934
    32  H    8.238202   7.764316   6.087524   6.033112   7.904563
    33  H    8.132151   6.500167   4.635243   3.104629   5.557018
                   16         17         18         19         20
    16  O    0.000000
    17  O    2.780826   0.000000
    18  O    2.678490   2.586162   0.000000
    19  O    4.559834   2.746232   5.173774   0.000000
    20  O    6.953311   5.194711   7.375751   2.666385   0.000000
    21  O    6.576170   4.082221   6.079254   2.765291   2.655020
    22  H    8.721659   7.503021   8.186722   6.558575   5.299780
    23  H    8.237393   8.177550   8.547959   7.333937   6.578047
    24  H    8.525566   8.212874   7.751685   8.326741   8.061037
    25  H    4.521409   3.370313   1.934557   5.695073   7.505972
    26  H    7.872472   5.941086   5.687484   6.934891   7.450177
    27  H    4.622342   1.979964   3.330344   3.397265   5.183147
    28  H    7.822274   5.905449   8.046042   3.488878   0.964036
    29  H    6.261689   3.642439   5.417543   3.074131   3.551083
    30  H    5.093292   3.343533   5.879943   0.965396   2.786475
    31  H    2.717183   3.387464   0.963767   5.975930   8.233774
    32  H    0.963559   3.404778   3.452348   4.675169   6.887549
    33  H    3.181302   0.983662   3.499423   1.782053   4.324215
                   21         22         23         24         25
    21  O    0.000000
    22  H    5.497077   0.000000
    23  H    7.620679   3.622168   0.000000
    24  H    7.903559   3.668319   3.584463   0.000000
    25  H    5.667351   7.694257   8.786018   7.375544   0.000000
    26  H    5.240596   6.101975   8.614590   6.535658   3.938208
    27  H    3.142859   7.006383   8.535040   8.035826   2.863591
    28  H    2.712983   5.181246   6.879696   8.256223   7.983169
    29  H    0.979622   5.725854   7.892679   7.774317   4.818829
    30  H    3.135266   7.302406   8.084399   9.245871   6.439863
    31  H    7.031392   8.929358   9.029119   8.178356   2.567286
    32  H    6.860845   8.576111   7.725963   8.326633   5.244071
    33  H    3.545633   7.183238   7.847144   8.255990   4.221896
                   26         27         28         29         30
    26  H    0.000000
    27  H    4.328364   0.000000
    28  H    7.462092   5.616760   0.000000
    29  H    4.445807   2.336828   3.672889   0.000000
    30  H    7.674084   3.980687   3.560065   3.552426   0.000000
    31  H    6.419854   4.264482   8.936328   6.379499   6.650595
    32  H    8.390781   5.266087   7.792470   6.658181   5.210527
    33  H    6.321294   2.334325   5.080958   3.328354   2.383563
                   31         32         33
    31  H    0.000000
    32  H    3.471830   0.000000
    33  H    4.284870   3.592589   0.000000
 Stoichiometry    H12O16Si4Zr
 Framework group  C1[X(H12O16Si4Zr)]
 Deg. of freedom    93
 Full point group                 C1      NOp   1
 Largest Abelian subgroup         C1      NOp   1
 Largest concise Abelian subgroup C1      NOp   1
                         Standard orientation:                         
 ---------------------------------------------------------------------
 Center     Atomic      Atomic             Coordinates (Angstroms)
 Number     Number       Type             X           Y           Z
 ---------------------------------------------------------------------
      1         40           0        0.610516   -0.444556   -0.344197
      2          8           0       -0.215599   -1.178857    1.256772
      3          8           0        0.561694    1.497532   -0.145586
      4          8           0       -0.704957   -0.859848   -1.761857
      5          8           0        2.380181   -1.206920   -0.722654
      6         14           0       -2.343201   -0.806080   -1.851312
      7         14           0       -0.307518    2.849590    0.172936
      8         14           0       -1.611915   -1.075353    2.149195
      9         14           0        3.825007   -0.655571   -0.187370
     10          8           0        4.573820    0.388637   -1.222898
     11          8           0        4.883927   -1.915809    0.005604
     12          8           0        3.474771    0.159774    1.205223
     13          8           0       -2.606705   -2.315659    1.744638
     14          8           0       -2.305187    0.408732    1.851706
     15          8           0       -1.289649   -1.072159    3.757116
     16          8           0       -2.828615   -0.808829   -3.427471
     17          8           0       -2.905255    0.461234   -0.954809
     18          8           0       -3.037847   -2.117453   -1.099804
     19          8           0       -1.505571    2.823380   -1.009063
     20          8           0        0.525993    4.252530   -0.039586
     21          8           0       -0.915088    2.847945    1.692337
     22          1           0        4.159890    0.739933    1.555445
     23          1           0        5.212083   -0.002516   -1.830076
     24          1           0        4.542043   -2.722645    0.406063
     25          1           0       -2.816633   -2.415570    0.798801
     26          1           0       -0.766863   -1.801861    4.105051
     27          1           0       -2.819771    0.439214    1.023187
     28          1           0        0.871703    4.664381    0.760558
     29          1           0       -1.401247    2.041390    1.962113
     30          1           0       -1.961332    3.662898   -1.148635
     31          1           0       -3.366083   -2.816155   -1.676799
     32          1           0       -2.149334   -0.635019   -4.088390
     33          1           0       -2.485624    1.338121   -1.105049
 ---------------------------------------------------------------------
 Rotational constants (GHZ):           0.2196217           0.1438093           0.1347807
 General basis read from cards:  (5D, 7F)
 ======================================================================================================
                                       Pseudopotential Parameters
 ======================================================================================================
  Center     Atomic      Valence      Angular      Power
  Number     Number     Electrons     Momentum     of R      Exponent        Coefficient   SO-Coeffient
 ======================================================================================================
    1         40           12
                                      G and up 
                                                     2        1.0000000        0.00000000    0.00000000
                                      S - G
                                                     2        8.6365280      150.24299400    0.00000000
                                                     2        3.7176390       18.78003600    0.00000000
                                      P - G
                                                     2        7.6267280       33.19279100    0.00000000
                                                     2        7.4532070       66.38903900    0.00000000
                                                     2        3.3583890        4.62072600    0.00000000
                                                     2        3.2297380        9.26027000    0.00000000
                                      D - G
                                                     2        5.9380860       13.99338300    0.00000000
                                                     2        5.8255440       20.99588200    0.00000000
                                                     2        2.2050190        2.28516600    0.00000000
                                                     2        2.2062920        3.44126000    0.00000000
                                      F - G
                                                     2        4.8002150       -5.23932000    0.00000000
                                                     2        4.7989920       -6.98742400    0.00000000
    2          8
                                   No pseudopotential on this center.
    3          8
                                   No pseudopotential on this center.
    4          8
                                   No pseudopotential on this center.
    5          8
                                   No pseudopotential on this center.
    6         14
                                   No pseudopotential on this center.
    7         14
                                   No pseudopotential on this center.
    8         14
                                   No pseudopotential on this center.
    9         14
                                   No pseudopotential on this center.
   10          8
                                   No pseudopotential on this center.
   11          8
                                   No pseudopotential on this center.
   12          8
                                   No pseudopotential on this center.
   13          8
                                   No pseudopotential on this center.
   14          8
                                   No pseudopotential on this center.
   15          8
                                   No pseudopotential on this center.
   16          8
                                   No pseudopotential on this center.
   17          8
                                   No pseudopotential on this center.
   18          8
                                   No pseudopotential on this center.
   19          8
                                   No pseudopotential on this center.
   20          8
                                   No pseudopotential on this center.
   21          8
                                   No pseudopotential on this center.
   22          1
                                   No pseudopotential on this center.
   23          1
                                   No pseudopotential on this center.
   24          1
                                   No pseudopotential on this center.
   25          1
                                   No pseudopotential on this center.
   26          1
                                   No pseudopotential on this center.
   27          1
                                   No pseudopotential on this center.
   28          1
                                   No pseudopotential on this center.
   29          1
                                   No pseudopotential on this center.
   30          1
                                   No pseudopotential on this center.
   31          1
                                   No pseudopotential on this center.
   32          1
                                   No pseudopotential on this center.
   33          1
                                   No pseudopotential on this center.
 ======================================================================================================
 There are   570 symmetry adapted cartesian basis functions of A   symmetry.
 There are   524 symmetry adapted basis functions of A   symmetry.
   524 basis functions,  1074 primitive gaussians,   570 cartesian basis functions
   104 alpha electrons      104 beta electrons
       nuclear repulsion energy      2881.6519436630 Hartrees.
 NAtoms=   33 NActive=   33 NUniq=   33 SFac= 1.00D+00 NAtFMM=   60 NAOKFM=F Big=F
 Integral buffers will be    131072 words long.
 Raffenetti 2 integral format.
 Two-electron integral symmetry is turned on.
 Nuclear repulsion after empirical dispersion term =     2881.6102848015 Hartrees.
 One-electron integrals computed using PRISM.
 PrsmSu:  requested number of processors reduced to:   4 ShMem   1 Linda.
   1 Symmetry operations used in ECPInt.
 ECPInt:  NShTT=   13203 NPrTT=   78401 LenC2=   11639 LenP2D=   45241.
 LDataN:  DoStor=T MaxTD1= 8 Len=  415
 Number of processors reduced to  13 by ecpmxn.
 NBasis=   524 RedAO= T EigKep=  2.50D-05  NBF=   524
 NBsUse=   524 1.00D-06 EigRej= -1.00D+00 NBFU=   524
 Defaulting to unpruned grid for atomic number  40.
 ExpMin= 1.01D-02 ExpMax= 1.61D+04 ExpMxC= 2.43D+03 IAcc=3 IRadAn=         5 AccDes= 0.00D+00
 Harris functional with IExCor=  402 and IRadAn=       5 diagonalized for initial guess.
 HarFok:  IExCor=  402 AccDes= 0.00D+00 IRadAn=         5 IDoV= 1 UseB2=F ITyADJ=14
 ICtDFT=  3500011 ScaDFX=  1.000000  1.000000  1.000000  1.000000
 Defaulting to unpruned grid for atomic number  40.
 FoFCou: FMM=F IPFlag=           0 FMFlag=      100000 FMFlg1=           0
         NFxFlg=           0 DoJE=T BraDBF=F KetDBF=T FulRan=T
         wScrn=  0.000000 ICntrl=       500 IOpCl=  0 I1Cent=   200000004 NGrid=           0
         NMat0=    1 NMatS0=      1 NMatT0=    0 NMatD0=    1 NMtDS0=    0 NMtDT0=    0
 Petite list used in FoFCou.
 Requested convergence on RMS density matrix=1.00D-08 within 128 cycles.
 Requested convergence on MAX density matrix=1.00D-06.
 Requested convergence on             energy=1.00D-06.
 No special actions if energy rises.
 Defaulting to unpruned grid for atomic number  40.
 Defaulting to unpruned grid for atomic number  40.
 Defaulting to unpruned grid for atomic number  40.
 Defaulting to unpruned grid for atomic number  40.
 Defaulting to unpruned grid for atomic number  40.
 Defaulting to unpruned grid for atomic number  40.
 Defaulting to unpruned grid for atomic number  40.
 Defaulting to unpruned grid for atomic number  40.
 Defaulting to unpruned grid for atomic number  40.
 Defaulting to unpruned grid for atomic number  40.
 Defaulting to unpruned grid for atomic number  40.
 Defaulting to unpruned grid for atomic number  40.
 Defaulting to unpruned grid for atomic number  40.
 Defaulting to unpruned grid for atomic number  40.
 Defaulting to unpruned grid for atomic number  40.
 Defaulting to unpruned grid for atomic number  40.
 SCF Done:  E(RB3LYP) =  -2416.94381632     A.U. after   14 cycles
            NFock= 14  Conv=0.37D-08     -V/T= 2.0184

 **********************************************************************

            Population analysis using the SCF Density.

 **********************************************************************

 Orbital symmetries:
       Occupied  (A) (A) (A) (A) (A) (A) (A) (A) (A) (A) (A) (A)
                 (A) (A) (A) (A) (A) (A) (A) (A) (A) (A) (A) (A)
                 (A) (A) (A) (A) (A) (A) (A) (A) (A) (A) (A) (A)
                 (A) (A) (A) (A) (A) (A) (A) (A) (A) (A) (A) (A)
                 (A) (A) (A) (A) (A) (A) (A) (A) (A) (A) (A) (A)
                 (A) (A) (A) (A) (A) (A) (A) (A) (A) (A) (A) (A)
                 (A) (A) (A) (A) (A) (A) (A) (A) (A) (A) (A) (A)
                 (A) (A) (A) (A) (A) (A) (A) (A) (A) (A) (A) (A)
                 (A) (A) (A) (A) (A) (A) (A) (A)
       Virtual   (A) (A) (A) (A) (A) (A) (A) (A) (A) (A) (A) (A)
                 (A) (A) (A) (A) (A) (A) (A) (A) (A) (A) (A) (A)
                 (A) (A) (A) (A) (A) (A) (A) (A) (A) (A) (A) (A)
                 (A) (A) (A) (A) (A) (A) (A) (A) (A) (A) (A) (A)
                 (A) (A) (A) (A) (A) (A) (A) (A) (A) (A) (A) (A)
                 (A) (A) (A) (A) (A) (A) (A) (A) (A) (A) (A) (A)
                 (A) (A) (A) (A) (A) (A) (A) (A) (A) (A) (A) (A)
                 (A) (A) (A) (A) (A) (A) (A) (A) (A) (A) (A) (A)
                 (A) (A) (A) (A) (A) (A) (A) (A) (A) (A) (A) (A)
                 (A) (A) (A) (A) (A) (A) (A) (A) (A) (A) (A) (A)
                 (A) (A) (A) (A) (A) (A) (A) (A) (A) (A) (A) (A)
                 (A) (A) (A) (A) (A) (A) (A) (A) (A) (A) (A) (A)
                 (A) (A) (A) (A) (A) (A) (A) (A) (A) (A) (A) (A)
                 (A) (A) (A) (A) (A) (A) (A) (A) (A) (A) (A) (A)
                 (A) (A) (A) (A) (A) (A) (A) (A) (A) (A) (A) (A)
                 (A) (A) (A) (A) (A) (A) (A) (A) (A) (A) (A) (A)
                 (A) (A) (A) (A) (A) (A) (A) (A) (A) (A) (A) (A)
                 (A) (A) (A) (A) (A) (A) (A) (A) (A) (A) (A) (A)
                 (A) (A) (A) (A) (A) (A) (A) (A) (A) (A) (A) (A)
                 (A) (A) (A) (A) (A) (A) (A) (A) (A) (A) (A) (A)
                 (A) (A) (A) (A) (A) (A) (A) (A) (A) (A) (A) (A)
                 (A) (A) (A) (A) (A) (A) (A) (A) (A) (A) (A) (A)
                 (A) (A) (A) (A) (A) (A) (A) (A) (A) (A) (A) (A)
                 (A) (A) (A) (A) (A) (A) (A) (A) (A) (A) (A) (A)
                 (A) (A) (A) (A) (A) (A) (A) (A) (A) (A) (A) (A)
                 (A) (A) (A) (A) (A) (A) (A) (A) (A) (A) (A) (A)
                 (A) (A) (A) (A) (A) (A) (A) (A) (A) (A) (A) (A)
                 (A) (A) (A) (A) (A) (A) (A) (A) (A) (A) (A) (A)
                 (A) (A) (A) (A) (A) (A) (A) (A) (A) (A) (A) (A)
                 (A) (A) (A) (A) (A) (A) (A) (A) (A) (A) (A) (A)
                 (A) (A) (A) (A) (A) (A) (A) (A) (A) (A) (A) (A)
                 (A) (A) (A) (A) (A) (A) (A) (A) (A) (A) (A) (A)
                 (A) (A) (A) (A) (A) (A) (A) (A) (A) (A) (A) (A)
                 (A) (A) (A) (A) (A) (A) (A) (A) (A) (A) (A) (A)
                 (A) (A) (A) (A) (A) (A) (A) (A) (A) (A) (A) (A)
 The electronic state is 1-A.
 Alpha  occ. eigenvalues --  -66.22576 -66.21887 -66.21515 -66.20767 -19.18325
 Alpha  occ. eigenvalues --  -19.18141 -19.17614 -19.17503 -19.16916 -19.16830
 Alpha  occ. eigenvalues --  -19.16755 -19.16560 -19.15947 -19.15778 -19.15772
 Alpha  occ. eigenvalues --  -19.15701 -19.15170 -19.14928 -19.14658 -19.14390
 Alpha  occ. eigenvalues --   -5.36634  -5.36026  -5.35593  -5.34824  -3.72620
 Alpha  occ. eigenvalues --   -3.72594  -3.72540  -3.71994  -3.71976  -3.71946
 Alpha  occ. eigenvalues --   -3.71585  -3.71537  -3.71504  -3.70804  -3.70786
 Alpha  occ. eigenvalues --   -3.70733  -2.13013  -1.29365  -1.29198  -1.29046
 Alpha  occ. eigenvalues --   -1.05445  -1.04834  -1.04561  -1.03285  -1.02344
 Alpha  occ. eigenvalues --   -1.01961  -1.01835  -1.01253  -1.01168  -1.00483
 Alpha  occ. eigenvalues --   -0.99599  -0.99116  -0.97420  -0.96096  -0.95639
 Alpha  occ. eigenvalues --   -0.95002  -0.60708  -0.59546  -0.58920  -0.58716
 Alpha  occ. eigenvalues --   -0.55370  -0.54681  -0.54319  -0.53643  -0.52894
 Alpha  occ. eigenvalues --   -0.52367  -0.51656  -0.49961  -0.48434  -0.47493
 Alpha  occ. eigenvalues --   -0.47169  -0.46593  -0.43195  -0.42643  -0.41944
 Alpha  occ. eigenvalues --   -0.41602  -0.41294  -0.40283  -0.39771  -0.39664
 Alpha  occ. eigenvalues --   -0.39109  -0.38768  -0.38497  -0.38043  -0.37884
 Alpha  occ. eigenvalues --   -0.37592  -0.37329  -0.36894  -0.36727  -0.36385
 Alpha  occ. eigenvalues --   -0.36194  -0.35914  -0.35327  -0.35273  -0.34796
 Alpha  occ. eigenvalues --   -0.34266  -0.33943  -0.33816  -0.33418  -0.33020
 Alpha  occ. eigenvalues --   -0.32891  -0.32175  -0.31774  -0.31054
 Alpha virt. eigenvalues --   -0.04293  -0.02944  -0.02909  -0.02791  -0.01947
 Alpha virt. eigenvalues --   -0.01187  -0.00294  -0.00273   0.00049   0.00345
 Alpha virt. eigenvalues --    0.00760   0.01126   0.01615   0.02086   0.02309
 Alpha virt. eigenvalues --    0.02703   0.03330   0.03799   0.03955   0.04196
 Alpha virt. eigenvalues --    0.04487   0.05199   0.05814   0.06107   0.06227
 Alpha virt. eigenvalues --    0.06602   0.06859   0.07621   0.07911   0.08372
 Alpha virt. eigenvalues --    0.08702   0.08893   0.09268   0.09518   0.10150
 Alpha virt. eigenvalues --    0.10314   0.10897   0.11091   0.11114   0.11541
 Alpha virt. eigenvalues --    0.12045   0.12330   0.13113   0.13512   0.13795
 Alpha virt. eigenvalues --    0.13923   0.14283   0.14558   0.15153   0.15440
 Alpha virt. eigenvalues --    0.15586   0.15812   0.16484   0.16748   0.16759
 Alpha virt. eigenvalues --    0.17225   0.17319   0.17493   0.17950   0.18413
 Alpha virt. eigenvalues --    0.18601   0.18988   0.19306   0.19469   0.20090
 Alpha virt. eigenvalues --    0.20354   0.20782   0.21388   0.21630   0.21703
 Alpha virt. eigenvalues --    0.21925   0.22257   0.22510   0.22853   0.23338
 Alpha virt. eigenvalues --    0.23698   0.24043   0.24320   0.24509   0.24804
 Alpha virt. eigenvalues --    0.25342   0.25871   0.26037   0.26188   0.26567
 Alpha virt. eigenvalues --    0.26709   0.27239   0.27598   0.27879   0.28024
 Alpha virt. eigenvalues --    0.28144   0.28414   0.28825   0.29000   0.29655
 Alpha virt. eigenvalues --    0.29795   0.30074   0.30367   0.30750   0.31178
 Alpha virt. eigenvalues --    0.31394   0.31586   0.31993   0.32458   0.32566
 Alpha virt. eigenvalues --    0.32929   0.33394   0.33424   0.33893   0.34345
 Alpha virt. eigenvalues --    0.35033   0.35171   0.35663   0.36058   0.36557
 Alpha virt. eigenvalues --    0.37325   0.37797   0.38203   0.38644   0.39743
 Alpha virt. eigenvalues --    0.40231   0.40479   0.40707   0.41404   0.41861
 Alpha virt. eigenvalues --    0.42721   0.43053   0.43826   0.44078   0.45081
 Alpha virt. eigenvalues --    0.45700   0.45984   0.46539   0.46907   0.47104
 Alpha virt. eigenvalues --    0.47588   0.48640   0.49563   0.50146   0.50472
 Alpha virt. eigenvalues --    0.50737   0.51007   0.51775   0.52987   0.53032
 Alpha virt. eigenvalues --    0.54220   0.55051   0.55399   0.56030   0.56894
 Alpha virt. eigenvalues --    0.57886   0.58756   0.59917   0.60224   0.60706
 Alpha virt. eigenvalues --    0.61473   0.62764   0.63289   0.64389   0.65657
 Alpha virt. eigenvalues --    0.66265   0.67373   0.68312   0.68685   0.69303
 Alpha virt. eigenvalues --    0.70388   0.71749   0.71918   0.74030   0.74301
 Alpha virt. eigenvalues --    0.76735   0.77257   0.78472   0.79268   0.79904
 Alpha virt. eigenvalues --    0.82310   0.82497   0.84014   0.84990   0.85723
 Alpha virt. eigenvalues --    0.86604   0.88362   0.89914   0.91487   0.92042
 Alpha virt. eigenvalues --    0.92403   0.95876   0.96548   0.96917   0.97762
 Alpha virt. eigenvalues --    0.97994   0.98668   0.98808   0.99779   1.00360
 Alpha virt. eigenvalues --    1.01380   1.01683   1.02607   1.03521   1.04074
 Alpha virt. eigenvalues --    1.04750   1.04941   1.05326   1.08001   1.09326
 Alpha virt. eigenvalues --    1.09940   1.12455   1.15360   1.16504   1.17264
 Alpha virt. eigenvalues --    1.19121   1.19292   1.20377   1.20853   1.21287
 Alpha virt. eigenvalues --    1.21854   1.22637   1.22867   1.23131   1.23552
 Alpha virt. eigenvalues --    1.24396   1.24589   1.25069   1.25954   1.26156
 Alpha virt. eigenvalues --    1.26921   1.27652   1.28232   1.28513   1.28776
 Alpha virt. eigenvalues --    1.29930   1.30433   1.31012   1.31591   1.32414
 Alpha virt. eigenvalues --    1.32864   1.33379   1.34089   1.34470   1.35550
 Alpha virt. eigenvalues --    1.36728   1.37009   1.37074   1.37862   1.38499
 Alpha virt. eigenvalues --    1.39901   1.40627   1.40735   1.41395   1.41750
 Alpha virt. eigenvalues --    1.42733   1.42985   1.43930   1.45616   1.46474
 Alpha virt. eigenvalues --    1.48375   1.48974   1.50874   1.51682   1.53227
 Alpha virt. eigenvalues --    1.56569   1.57100   1.57937   1.58691   1.59630
 Alpha virt. eigenvalues --    1.60336   1.61254   1.61494   1.61990   1.62724
 Alpha virt. eigenvalues --    1.64151   1.65088   1.65644   1.65885   1.67285
 Alpha virt. eigenvalues --    1.67702   1.67970   1.69761   1.70155   1.71105
 Alpha virt. eigenvalues --    1.71528   1.71675   1.71985   1.73065   1.74037
 Alpha virt. eigenvalues --    1.74833   1.75442   1.75890   1.76791   1.77305
 Alpha virt. eigenvalues --    1.78123   1.78852   1.78947   1.79746   1.80526
 Alpha virt. eigenvalues --    1.80801   1.81369   1.81933   1.82621   1.83277
 Alpha virt. eigenvalues --    1.84025   1.85030   1.86242   1.86639   1.86772
 Alpha virt. eigenvalues --    1.87418   1.88236   1.89580   1.90055   1.91078
 Alpha virt. eigenvalues --    1.91580   1.92522   1.93249   1.94307   1.95100
 Alpha virt. eigenvalues --    1.95611   1.96001   1.96975   1.98101   1.98986
 Alpha virt. eigenvalues --    1.99458   2.00103   2.03363   2.05409   2.06041
 Alpha virt. eigenvalues --    2.07124   2.08182   2.09373   2.10866   2.11202
 Alpha virt. eigenvalues --    2.13024   2.13891   2.14949   2.16291   2.17008
 Alpha virt. eigenvalues --    2.17851   2.19993   2.20684   2.24393   2.31165
 Alpha virt. eigenvalues --    2.32669   2.34978   2.38949   2.39965   2.40485
 Alpha virt. eigenvalues --    2.41456   2.41787   2.43398   2.43954   2.44227
 Alpha virt. eigenvalues --    2.45629   2.45900   2.47365   2.49072   2.49817
 Alpha virt. eigenvalues --    2.50443   2.50763   2.51516   2.53086   2.53954
 Alpha virt. eigenvalues --    2.54872   2.57940   2.60175   2.60283   2.61148
 Alpha virt. eigenvalues --    2.61219   2.61839   2.62125   2.62748   2.63033
 Alpha virt. eigenvalues --    2.63242   2.63717   2.65297   2.65657   2.65990
 Alpha virt. eigenvalues --    2.66753   2.67270   2.67819   2.68124   2.68212
 Alpha virt. eigenvalues --    2.69806   2.71395   2.71665   2.72685   2.73520
 Alpha virt. eigenvalues --    2.74957   2.75992   2.76589   2.78114   2.79079
 Alpha virt. eigenvalues --    2.80226   2.80501   2.82424   2.83485   2.83787
 Alpha virt. eigenvalues --    2.85000   2.85940   2.87796   2.88361   2.89113
 Alpha virt. eigenvalues --    3.15002   3.29902   3.36814   3.39821   3.46155
 Alpha virt. eigenvalues --    3.48034   3.48941   3.49204   3.49459   3.52639
 Alpha virt. eigenvalues --    3.53816   3.54385   3.60165   3.61559   3.62317
 Alpha virt. eigenvalues --    3.66051   4.33358   5.69312   7.54840  31.17640
          Condensed to atoms (all electrons):
               1          2          3          4          5          6
     1  Zr  16.579715  -0.175700   0.009884  -0.265656   0.114149  -0.901119
     2  O   -0.175700   8.843309   0.010926  -0.058545  -0.056582   0.101790
     3  O    0.009884   0.010926   8.860422   0.007403  -0.046472  -0.003023
     4  O   -0.265656  -0.058545   0.007403   8.969841  -0.070566  -0.865154
     5  O    0.114149  -0.056582  -0.046472  -0.070566   9.053004  -0.004484
     6  Si  -0.901119   0.101790  -0.003023  -0.865154  -0.004484  14.424341
     7  Si  -0.676656  -0.008413  -0.926378  -0.015241  -0.025393   0.109177
     8  Si  -0.648105  -0.657158  -0.038736   0.096268  -0.009209  -0.032539
     9  Si  -1.323706   0.029229   0.039803   0.042811  -0.818559   0.115945
    10  O   -0.039479   0.000252   0.002907  -0.000680   0.101848   0.000279
    11  O   -0.191598  -0.000419  -0.000751   0.001269   0.288390   0.000433
    12  O    0.008297   0.003257   0.011883   0.000534   0.105533  -0.002987
    13  O    0.032063   0.271693   0.000820  -0.013459  -0.000104   0.009761
    14  O   -0.098095   0.237757  -0.019935  -0.003703  -0.001060   0.024291
    15  O   -0.068541   0.230521   0.000979   0.002414   0.000387   0.004225
    16  O   -0.092312   0.005350  -0.000405   0.337496   0.001861  -0.450436
    17  O   -0.128966  -0.038932   0.006633   0.221011  -0.001314  -0.432011
    18  O   -0.102452  -0.024864   0.002988   0.261836  -0.000856  -0.505294
    19  O   -0.013918   0.007841   0.279723   0.015632   0.001380   0.008139
    20  O   -0.131116  -0.000911   0.143356  -0.000418   0.000644   0.011167
    21  O    0.057244   0.011286   0.163966   0.004424   0.001549  -0.021853
    22  H   -0.015979   0.000050   0.000477   0.000009   0.001758   0.000286
    23  H   -0.002272  -0.000012   0.000000  -0.000025  -0.022326   0.000066
    24  H   -0.008476   0.000008   0.000046   0.000010  -0.001493   0.000066
    25  H    0.016866  -0.021004  -0.000102  -0.001958  -0.000022   0.002529
    26  H   -0.007968  -0.011932   0.000010  -0.000014  -0.000019  -0.000190
    27  H    0.019180  -0.021479   0.000797  -0.001328   0.000037   0.006446
    28  H    0.003688  -0.000014  -0.017062  -0.000013  -0.000003  -0.000346
    29  H    0.002021  -0.004605  -0.018539  -0.000171  -0.000017   0.000974
    30  H    0.002177  -0.000015   0.000351  -0.000586  -0.000006  -0.003215
    31  H    0.006088   0.000312  -0.000021  -0.019634  -0.000008   0.063419
    32  H    0.003381  -0.000029   0.000038   0.011887   0.000017   0.017498
    33  H   -0.028511   0.001027  -0.011020  -0.008435  -0.000037   0.059962
               7          8          9         10         11         12
     1  Zr  -0.676656  -0.648105  -1.323706  -0.039479  -0.191598   0.008297
     2  O   -0.008413  -0.657158   0.029229   0.000252  -0.000419   0.003257
     3  O   -0.926378  -0.038736   0.039803   0.002907  -0.000751   0.011883
     4  O   -0.015241   0.096268   0.042811  -0.000680   0.001269   0.000534
     5  O   -0.025393  -0.009209  -0.818559   0.101848   0.288390   0.105533
     6  Si   0.109177  -0.032539   0.115945   0.000279   0.000433  -0.002987
     7  Si  13.882849   0.187907   0.048081   0.002244  -0.000347  -0.005671
     8  Si   0.187907  13.614215   0.056794  -0.001211   0.003461  -0.013428
     9  Si   0.048081   0.056794  14.004371  -0.020459  -0.091583  -0.211932
    10  O    0.002244  -0.001211  -0.020459   8.624179  -0.084818   0.078774
    11  O   -0.000347   0.003461  -0.091583  -0.084818   8.666327  -0.070063
    12  O   -0.005671  -0.013428  -0.211932   0.078774  -0.070063   8.744531
    13  O    0.000295  -0.154228  -0.005517  -0.000004   0.000028  -0.000248
    14  O    0.034653  -0.456804   0.003300   0.000011   0.000016   0.000509
    15  O   -0.001536  -0.376392   0.001362   0.000015  -0.000056   0.001205
    16  O    0.004481  -0.011711  -0.002716   0.000007  -0.000005   0.000004
    17  O    0.002740   0.108828   0.006251   0.000017   0.000011  -0.000014
    18  O   -0.002431   0.094367   0.005178   0.000013   0.000003  -0.000007
    19  O   -0.458599  -0.017907   0.003865  -0.000097   0.000011  -0.000139
    20  O   -0.092384   0.008931   0.006831   0.000154   0.000008  -0.000208
    21  O    0.004754  -0.048424  -0.008719  -0.000036   0.000014  -0.001297
    22  H    0.001008   0.000688   0.052444  -0.001785  -0.002624   0.233502
    23  H   -0.000044   0.000046   0.066231   0.232563  -0.004611   0.005008
    24  H    0.000053   0.000237   0.045605   0.008632   0.228091  -0.006549
    25  H   -0.000167   0.055190  -0.000220  -0.000000   0.000000  -0.000000
    26  H    0.000556   0.066277  -0.000967  -0.000000   0.000001  -0.000024
    27  H   -0.001629   0.073512  -0.000272  -0.000000  -0.000000   0.000003
    28  H    0.055947   0.000071  -0.000170   0.000001  -0.000000  -0.000003
    29  H    0.045107   0.020188   0.000196  -0.000000  -0.000000   0.000041
    30  H    0.045632   0.000184  -0.000128   0.000000  -0.000000  -0.000001
    31  H    0.000072  -0.003722  -0.000081  -0.000000  -0.000000   0.000000
    32  H   -0.000628   0.000246  -0.000098  -0.000000   0.000000  -0.000000
    33  H    0.023198   0.001110   0.000453  -0.000000  -0.000000   0.000002
              13         14         15         16         17         18
     1  Zr   0.032063  -0.098095  -0.068541  -0.092312  -0.128966  -0.102452
     2  O    0.271693   0.237757   0.230521   0.005350  -0.038932  -0.024864
     3  O    0.000820  -0.019935   0.000979  -0.000405   0.006633   0.002988
     4  O   -0.013459  -0.003703   0.002414   0.337496   0.221011   0.261836
     5  O   -0.000104  -0.001060   0.000387   0.001861  -0.001314  -0.000856
     6  Si   0.009761   0.024291   0.004225  -0.450436  -0.432011  -0.505294
     7  Si   0.000295   0.034653  -0.001536   0.004481   0.002740  -0.002431
     8  Si  -0.154228  -0.456804  -0.376392  -0.011711   0.108828   0.094367
     9  Si  -0.005517   0.003300   0.001362  -0.002716   0.006251   0.005178
    10  O   -0.000004   0.000011   0.000015   0.000007   0.000017   0.000013
    11  O    0.000028   0.000016  -0.000056  -0.000005   0.000011   0.000003
    12  O   -0.000248   0.000509   0.001205   0.000004  -0.000014  -0.000007
    13  O    8.648404   0.022756  -0.127431   0.004185  -0.029459  -0.043978
    14  O    0.022756   8.818289   0.156904   0.002218  -0.026754  -0.023317
    15  O   -0.127431   0.156904   8.807157  -0.000176   0.003953   0.001541
    16  O    0.004185   0.002218  -0.000176   8.894894  -0.100791  -0.100467
    17  O   -0.029459  -0.026754   0.003953  -0.100791   8.929360   0.234050
    18  O   -0.043978  -0.023317   0.001541  -0.100467   0.234050   9.062244
    19  O    0.000218   0.000439   0.000347  -0.000939  -0.029354  -0.000102
    20  O    0.000004  -0.001441   0.000004   0.000016  -0.000947   0.000023
    21  O   -0.000321   0.024334   0.000925  -0.000139  -0.006379   0.000397
    22  H   -0.000000  -0.000001   0.000003  -0.000000   0.000000   0.000000
    23  H    0.000000  -0.000000   0.000000   0.000000   0.000000  -0.000000
    24  H   -0.000000   0.000000   0.000000   0.000000  -0.000000  -0.000000
    25  H    0.218976  -0.008998   0.007230  -0.000297   0.000590   0.014813
    26  H   -0.006542   0.000986   0.223976   0.000000  -0.000025   0.000003
    27  H   -0.004657   0.205562   0.000235   0.000341   0.016741  -0.000888
    28  H    0.000000  -0.000004  -0.000001   0.000000   0.000003   0.000000
    29  H    0.000760   0.015224  -0.001243  -0.000003  -0.000490  -0.000004
    30  H    0.000001   0.000008   0.000001   0.000130  -0.000787  -0.000011
    31  H    0.002204   0.000081  -0.000017   0.005121  -0.001514   0.213753
    32  H   -0.000007  -0.000007   0.000000   0.236474  -0.003466   0.004024
    33  H    0.000240   0.002444  -0.000054   0.000467   0.232871   0.002249
              19         20         21         22         23         24
     1  Zr  -0.013918  -0.131116   0.057244  -0.015979  -0.002272  -0.008476
     2  O    0.007841  -0.000911   0.011286   0.000050  -0.000012   0.000008
     3  O    0.279723   0.143356   0.163966   0.000477   0.000000   0.000046
     4  O    0.015632  -0.000418   0.004424   0.000009  -0.000025   0.000010
     5  O    0.001380   0.000644   0.001549   0.001758  -0.022326  -0.001493
     6  Si   0.008139   0.011167  -0.021853   0.000286   0.000066   0.000066
     7  Si  -0.458599  -0.092384   0.004754   0.001008  -0.000044   0.000053
     8  Si  -0.017907   0.008931  -0.048424   0.000688   0.000046   0.000237
     9  Si   0.003865   0.006831  -0.008719   0.052444   0.066231   0.045605
    10  O   -0.000097   0.000154  -0.000036  -0.001785   0.232563   0.008632
    11  O    0.000011   0.000008   0.000014  -0.002624  -0.004611   0.228091
    12  O   -0.000139  -0.000208  -0.001297   0.233502   0.005008  -0.006549
    13  O    0.000218   0.000004  -0.000321  -0.000000   0.000000  -0.000000
    14  O    0.000439  -0.001441   0.024334  -0.000001  -0.000000   0.000000
    15  O    0.000347   0.000004   0.000925   0.000003   0.000000   0.000000
    16  O   -0.000939   0.000016  -0.000139  -0.000000   0.000000   0.000000
    17  O   -0.029354  -0.000947  -0.006379   0.000000   0.000000  -0.000000
    18  O   -0.000102   0.000023   0.000397   0.000000  -0.000000  -0.000000
    19  O    8.902799   0.036847   0.022636   0.000000   0.000000  -0.000000
    20  O    0.036847   8.648168  -0.056730   0.000004  -0.000001  -0.000000
    21  O    0.022636  -0.056730   8.492164  -0.000012   0.000000   0.000000
    22  H    0.000000   0.000004  -0.000012   0.330068   0.000025   0.000093
    23  H    0.000000  -0.000001   0.000000   0.000025   0.351724   0.000042
    24  H   -0.000000  -0.000000   0.000000   0.000093   0.000042   0.368929
    25  H   -0.000030   0.000000  -0.000007   0.000000   0.000000   0.000000
    26  H    0.000000  -0.000000   0.000054   0.000000  -0.000000  -0.000000
    27  H   -0.000319   0.000226  -0.004764  -0.000000   0.000000   0.000000
    28  H    0.004144   0.228602  -0.001190  -0.000000   0.000000  -0.000000
    29  H   -0.007819   0.008228   0.209610   0.000000   0.000000  -0.000000
    30  H    0.220939  -0.002099  -0.007316   0.000000  -0.000000  -0.000000
    31  H    0.000002  -0.000000  -0.000000  -0.000000   0.000000   0.000000
    32  H    0.000080   0.000000   0.000001   0.000000  -0.000000  -0.000000
    33  H    0.013162   0.000022   0.001192  -0.000000  -0.000000   0.000000
              25         26         27         28         29         30
     1  Zr   0.016866  -0.007968   0.019180   0.003688   0.002021   0.002177
     2  O   -0.021004  -0.011932  -0.021479  -0.000014  -0.004605  -0.000015
     3  O   -0.000102   0.000010   0.000797  -0.017062  -0.018539   0.000351
     4  O   -0.001958  -0.000014  -0.001328  -0.000013  -0.000171  -0.000586
     5  O   -0.000022  -0.000019   0.000037  -0.000003  -0.000017  -0.000006
     6  Si   0.002529  -0.000190   0.006446  -0.000346   0.000974  -0.003215
     7  Si  -0.000167   0.000556  -0.001629   0.055947   0.045107   0.045632
     8  Si   0.055190   0.066277   0.073512   0.000071   0.020188   0.000184
     9  Si  -0.000220  -0.000967  -0.000272  -0.000170   0.000196  -0.000128
    10  O   -0.000000  -0.000000  -0.000000   0.000001  -0.000000   0.000000
    11  O    0.000000   0.000001  -0.000000  -0.000000  -0.000000  -0.000000
    12  O   -0.000000  -0.000024   0.000003  -0.000003   0.000041  -0.000001
    13  O    0.218976  -0.006542  -0.004657   0.000000   0.000760   0.000001
    14  O   -0.008998   0.000986   0.205562  -0.000004   0.015224   0.000008
    15  O    0.007230   0.223976   0.000235  -0.000001  -0.001243   0.000001
    16  O   -0.000297   0.000000   0.000341   0.000000  -0.000003   0.000130
    17  O    0.000590  -0.000025   0.016741   0.000003  -0.000490  -0.000787
    18  O    0.014813   0.000003  -0.000888   0.000000  -0.000004  -0.000011
    19  O   -0.000030   0.000000  -0.000319   0.004144  -0.007819   0.220939
    20  O    0.000000  -0.000000   0.000226   0.228602   0.008228  -0.002099
    21  O   -0.000007   0.000054  -0.004764  -0.001190   0.209610  -0.007316
    22  H    0.000000   0.000000  -0.000000  -0.000000   0.000000   0.000000
    23  H    0.000000  -0.000000   0.000000   0.000000   0.000000  -0.000000
    24  H    0.000000  -0.000000   0.000000  -0.000000  -0.000000  -0.000000
    25  H    0.301419  -0.000027   0.000013  -0.000000   0.000001   0.000000
    26  H   -0.000027   0.369836  -0.000036   0.000000   0.000017  -0.000000
    27  H    0.000013  -0.000036   0.284979  -0.000000  -0.001039   0.000006
    28  H   -0.000000   0.000000  -0.000000   0.350890  -0.000025   0.000000
    29  H    0.000001   0.000017  -0.001039  -0.000025   0.285060   0.000163
    30  H    0.000000  -0.000000   0.000006   0.000000   0.000163   0.335717
    31  H   -0.000130   0.000000   0.000015   0.000000   0.000000  -0.000000
    32  H   -0.000001  -0.000000  -0.000000  -0.000000  -0.000000  -0.000000
    33  H    0.000004   0.000000  -0.002422  -0.000002   0.000116  -0.000925
              31         32         33
     1  Zr   0.006088   0.003381  -0.028511
     2  O    0.000312  -0.000029   0.001027
     3  O   -0.000021   0.000038  -0.011020
     4  O   -0.019634   0.011887  -0.008435
     5  O   -0.000008   0.000017  -0.000037
     6  Si   0.063419   0.017498   0.059962
     7  Si   0.000072  -0.000628   0.023198
     8  Si  -0.003722   0.000246   0.001110
     9  Si  -0.000081  -0.000098   0.000453
    10  O   -0.000000  -0.000000  -0.000000
    11  O   -0.000000   0.000000  -0.000000
    12  O    0.000000  -0.000000   0.000002
    13  O    0.002204  -0.000007   0.000240
    14  O    0.000081  -0.000007   0.002444
    15  O   -0.000017   0.000000  -0.000054
    16  O    0.005121   0.236474   0.000467
    17  O   -0.001514  -0.003466   0.232871
    18  O    0.213753   0.004024   0.002249
    19  O    0.000002   0.000080   0.013162
    20  O   -0.000000   0.000000   0.000022
    21  O   -0.000000   0.000001   0.001192
    22  H   -0.000000   0.000000  -0.000000
    23  H    0.000000  -0.000000  -0.000000
    24  H    0.000000  -0.000000   0.000000
    25  H   -0.000130  -0.000001   0.000004
    26  H    0.000000  -0.000000   0.000000
    27  H    0.000015  -0.000000  -0.002422
    28  H    0.000000  -0.000000  -0.000002
    29  H    0.000000  -0.000000   0.000116
    30  H   -0.000000  -0.000000  -0.000925
    31  H    0.328227  -0.000016  -0.000037
    32  H   -0.000016   0.349095   0.000150
    33  H   -0.000037   0.000150   0.269866
 Mulliken charges:
               1
     1  Zr   0.065869
     2  O   -0.673996
     3  O   -0.460968
     4  O   -0.647260
     5  O   -0.612028
     6  Si   2.261857
     7  Si   1.766765
     8  Si   2.081054
     9  Si   1.956376
    10  O   -0.903326
    11  O   -0.741187
    12  O   -0.880511
    13  O   -0.826452
    14  O   -0.909663
    15  O   -0.867938
    16  O   -0.732649
    17  O   -0.961856
    18  O   -1.092813
    19  O   -0.988981
    20  O   -0.806980
    21  O   -0.837364
    22  H    0.399988
    23  H    0.373585
    24  H    0.364706
    25  H    0.415331
    26  H    0.366029
    27  H    0.430742
    28  H    0.375488
    29  H    0.446248
    30  H    0.409778
    31  H    0.405884
    32  H    0.381362
    33  H    0.442909
 Sum of Mulliken charges =  -0.00000
 Mulliken charges with hydrogens summed into heavy atoms:
               1
     1  Zr   0.065869
     2  O   -0.673996
     3  O   -0.460968
     4  O   -0.647260
     5  O   -0.612028
     6  Si   2.261857
     7  Si   1.766765
     8  Si   2.081054
     9  Si   1.956376
    10  O   -0.529741
    11  O   -0.376481
    12  O   -0.480523
    13  O   -0.411120
    14  O   -0.478922
    15  O   -0.501909
    16  O   -0.351287
    17  O   -0.518947
    18  O   -0.686929
    19  O   -0.579203
    20  O   -0.431492
    21  O   -0.391116
 Electronic spatial extent (au):  <R**2>=           9219.0667
 Charge=             -0.0000 electrons
 Dipole moment (field-independent basis, Debye):
    X=              3.0847    Y=             -1.2453    Z=             -3.0547  Tot=              4.5164
 Quadrupole moment (field-independent basis, Debye-Ang):
   XX=           -163.9347   YY=           -150.1680   ZZ=           -160.5017
   XY=             -3.3701   XZ=             14.3856   YZ=              1.8708
 Traceless Quadrupole moment (field-independent basis, Debye-Ang):
   XX=             -5.7333   YY=              8.0335   ZZ=             -2.3002
   XY=             -3.3701   XZ=             14.3856   YZ=              1.8708
 Octapole moment (field-independent basis, Debye-Ang**2):
  XXX=             82.9777  YYY=             -7.0429  ZZZ=            -60.1871  XYY=             -4.8360
  XXY=              9.6119  XXZ=            -19.3909  XZZ=             57.4969  YZZ=            -28.1328
  YYZ=              3.5206  XYZ=              0.4466
 Hexadecapole moment (field-independent basis, Debye-Ang**3):
 XXXX=          -5709.6405 YYYY=          -2681.0454 ZZZZ=          -2304.9866 XXXY=             67.8264
 XXXZ=            -28.8811 YYYX=            -67.4199 YYYZ=             87.4187 ZZZX=             74.5959
 ZZZY=            -91.0915 XXYY=          -1309.8236 XXZZ=          -1370.9727 YYZZ=           -858.9163
 XXYZ=             86.8409 YYXZ=            213.5338 ZZXY=             -5.1003
 N-N= 2.881610284802D+03 E-N=-1.147597747597D+04  KE= 2.373194244773D+03
 PrsmSu:  requested number of processors reduced to:   2 ShMem   1 Linda.
 PrsmSu:  requested number of processors reduced to:  10 ShMem   1 Linda.
   1 Symmetry operations used in ECPInt.
 ECPInt:  NShTT=   13203 NPrTT=   78401 LenC2=   11639 LenP2D=   45241.
 LDataN:  DoStor=T MaxTD1= 9 Len=  602
 Number of processors reduced to  14 by ecpmxn.
 Calling FoFJK, ICntrl=      2127 FMM=F ISym2X=0 I1Cent= 0 IOpClX= 0 NMat=1 NMatS=1 NMatT=0.
 CoulSu:  requested number of processors reduced to:  10 ShMem   1 Linda.
 Defaulting to unpruned grid for atomic number  40.
 Defaulting to unpruned grid for atomic number  40.
 Defaulting to unpruned grid for atomic number  40.
 Defaulting to unpruned grid for atomic number  40.
 Defaulting to unpruned grid for atomic number  40.
 Defaulting to unpruned grid for atomic number  40.
 Defaulting to unpruned grid for atomic number  40.
 Defaulting to unpruned grid for atomic number  40.
 Defaulting to unpruned grid for atomic number  40.
 Defaulting to unpruned grid for atomic number  40.
 Defaulting to unpruned grid for atomic number  40.
 Defaulting to unpruned grid for atomic number  40.
 Defaulting to unpruned grid for atomic number  40.
 Defaulting to unpruned grid for atomic number  40.
 Defaulting to unpruned grid for atomic number  40.
 Defaulting to unpruned grid for atomic number  40.
 ***** Axes restored to original set *****
 -------------------------------------------------------------------
 Center     Atomic                   Forces (Hartrees/Bohr)
 Number     Number              X              Y              Z
 -------------------------------------------------------------------
      1       40          -0.011611121    0.001656815    0.001528120
      2        8          -0.000476500   -0.000733980    0.000256658
      3        8          -0.000915045    0.000148824   -0.001117676
      4        8           0.000087066   -0.000197785   -0.000087659
      5        8           0.003819205    0.002875032    0.001375824
      6       14           0.000418828    0.000055020    0.000327819
      7       14           0.000917523   -0.001466211    0.000053792
      8       14           0.001067911    0.000205316   -0.000712570
      9       14           0.012450567   -0.004658772   -0.003782745
     10        8          -0.000676912    0.000489044    0.001214170
     11        8          -0.000662212    0.001124057    0.000704261
     12        8          -0.001979460   -0.000747706    0.000108652
     13        8          -0.000277875   -0.000141093    0.000111938
     14        8          -0.000267480    0.000079092    0.000093821
     15        8          -0.000153874   -0.000026978    0.000339424
     16        8          -0.000103170   -0.000017536   -0.000146514
     17        8          -0.000146660    0.000010328   -0.000092384
     18        8          -0.000108809   -0.000031045   -0.000050208
     19        8          -0.000240304    0.000228837   -0.000142072
     20        8           0.000088945    0.000466136    0.000028442
     21        8          -0.000164157    0.000298364    0.000068075
     22        1          -0.001242972    0.000901616    0.000300228
     23        1          -0.000045390   -0.000027918   -0.000057235
     24        1          -0.000057657   -0.000289814   -0.000233612
     25        1           0.000060964    0.000022116    0.000028396
     26        1          -0.000002910    0.000041540   -0.000134422
     27        1           0.000060595    0.000006436    0.000022103
     28        1          -0.000112315   -0.000118869   -0.000071554
     29        1           0.000095631   -0.000095596   -0.000063087
     30        1          -0.000034430   -0.000035591    0.000000419
     31        1           0.000044616    0.000022982    0.000014360
     32        1           0.000030916   -0.000007035    0.000040632
     33        1           0.000136488   -0.000035623    0.000074604
 -------------------------------------------------------------------
 Cartesian Forces:  Max     0.012450567 RMS     0.001949101

 GradGradGradGradGradGradGradGradGradGradGradGradGradGradGradGradGradGrad
 Berny optimization.
 FormGI is forming the generalized inverse of G from B-inverse, IUseBI=4.
 Internal  Forces:  Max     0.011444614 RMS     0.001611391
 Search for a local minimum.
 Step number   1 out of a maximum of  148
 All quantities printed in internal units (Hartrees-Bohrs-Radians)
 Mixed Optimization -- RFO/linear search
 Second derivative matrix not updated -- first step.
 ITU=  0
     Eigenvalues ---    0.00230   0.00230   0.00230   0.00230   0.03239
     Eigenvalues ---    0.03482   0.03500   0.03541   0.03581   0.03661
     Eigenvalues ---    0.03665   0.03674   0.03688   0.03735   0.03789
     Eigenvalues ---    0.03802   0.03811   0.03828   0.03857   0.03858
     Eigenvalues ---    0.08414   0.09469   0.11097   0.11247   0.11629
     Eigenvalues ---    0.11809   0.11979   0.12096   0.12205   0.12217
     Eigenvalues ---    0.12600   0.12707   0.12970   0.13105   0.13263
     Eigenvalues ---    0.16000   0.16000   0.16000   0.16000   0.16000
     Eigenvalues ---    0.16000   0.16000   0.16000   0.16000   0.16000
     Eigenvalues ---    0.16000   0.16000   0.19184   0.19894   0.19953
     Eigenvalues ---    0.20035   0.20159   0.20200   0.20253   0.20422
     Eigenvalues ---    0.20563   0.20992   0.21009   0.21136   0.21189
     Eigenvalues ---    0.21280   0.25000   0.25000   0.25000   0.37992
     Eigenvalues ---    0.40480   0.40678   0.41116   0.41558   0.42454
     Eigenvalues ---    0.42502   0.42608   0.42768   0.43316   0.43953
     Eigenvalues ---    0.44102   0.44216   0.44422   0.44766   0.44782
     Eigenvalues ---    0.50680   0.51458   0.52211   0.52570   0.54329
     Eigenvalues ---    0.54614   0.54649   0.54671   0.54695   0.54715
     Eigenvalues ---    0.54738   0.548931000.000001000.000001000.00000
     Eigenvalues --- 1000.000001000.000001000.000001000.000001000.00000
     Eigenvalues --- 1000.000001000.000001000.000001000.000001000.00000
     Eigenvalues --- 1000.000001000.000001000.000001000.000001000.00000
     Eigenvalues --- 1000.000001000.000001000.000001000.000001000.00000
     Eigenvalues --- 1000.000001000.000001000.000001000.000001000.00000
     Eigenvalues --- 1000.000001000.000001000.000001000.000001000.00000
     Eigenvalues --- 1000.000001000.000001000.000001000.000001000.00000
     Eigenvalues --- 1000.000001000.000001000.000001000.000001000.00000
     Eigenvalues --- 1000.000001000.000001000.00000
 RFO step:  Lambda=-2.10119510D-03 EMin= 2.30000000D-03
 Linear search not attempted -- first point.
 Iteration  1 RMS(Cart)=  0.15024845 RMS(Int)=  0.01082440
 Iteration  2 RMS(Cart)=  0.04319740 RMS(Int)=  0.00054903
 Iteration  3 RMS(Cart)=  0.00111906 RMS(Int)=  0.00003749
 Iteration  4 RMS(Cart)=  0.00000071 RMS(Int)=  0.00003748
 Iteration  1 RMS(Cart)=  0.00000000 RMS(Int)=  0.00000000
 Variable       Old X    -DE/DX   Delta X   Delta X   Delta X     New X
                                 (Linear)    (Quad)   (Total)
    R1        3.67636   0.00021   0.00000   0.00098   0.00098   3.67734
    R2        3.69031  -0.00044   0.00000  -0.00213  -0.00213   3.68818
    R3        3.73798  -0.00016   0.00000  -0.00083  -0.00083   3.73715
    R4        3.71087   0.01144   0.00000   0.05676   0.05676   3.76763
    R5        3.13764  -0.00055   0.00000  -0.00134  -0.00134   3.13630
    R6        3.09653  -0.00091   0.00000  -0.00204  -0.00204   3.09449
    R7        3.10211  -0.00029   0.00000  -0.00066  -0.00066   3.10145
    R8        3.09248   0.00342   0.00000   0.00760   0.00760   3.10008
    R9        3.11657   0.00012   0.00000   0.00028   0.00028   3.11685
   R10        3.11988  -0.00002   0.00000  -0.00005  -0.00005   3.11984
   R11        3.14342   0.00001   0.00000   0.00001   0.00001   3.14344
   R12        3.18077   0.00023   0.00000   0.00059   0.00059   3.18137
   R13        3.10982   0.00032   0.00000   0.00074   0.00074   3.11056
   R14        3.09230   0.00004   0.00000   0.00008   0.00008   3.09238
   R15        3.10032   0.00016   0.00000   0.00037   0.00037   3.10069
   R16        3.14606   0.00015   0.00000   0.00036   0.00036   3.14642
   R17        3.09896   0.00019   0.00000   0.00043   0.00043   3.09940
   R18        3.11857  -0.00073   0.00000  -0.00171  -0.00171   3.11685
   R19        3.13190  -0.00091   0.00000  -0.00219  -0.00219   3.12972
   R20        3.12049   0.00170   0.00000   0.00399   0.00399   3.12448
   R21        1.82145   0.00000   0.00000   0.00000   0.00000   1.82146
   R22        1.82066   0.00015   0.00000   0.00027   0.00027   1.82093
   R23        1.82104   0.00016   0.00000   0.00028   0.00028   1.82132
   R24        1.84058  -0.00004   0.00000  -0.00007  -0.00007   1.84051
   R25        1.84398  -0.00005   0.00000  -0.00009  -0.00009   1.84389
   R26        1.81928  -0.00009   0.00000  -0.00017  -0.00017   1.81910
   R27        1.82086  -0.00000   0.00000  -0.00001  -0.00001   1.82086
   R28        1.85885  -0.00001   0.00000  -0.00003  -0.00003   1.85882
   R29        1.82126  -0.00003   0.00000  -0.00006  -0.00006   1.82120
   R30        1.82433  -0.00000   0.00000  -0.00001  -0.00001   1.82432
   R31        1.82176  -0.00014   0.00000  -0.00026  -0.00026   1.82150
   R32        1.85122   0.00003   0.00000   0.00006   0.00006   1.85128
    A1        1.85569   0.00078   0.00000   0.00920   0.00915   1.86484
    A2        1.80097   0.00002   0.00000  -0.00304  -0.00303   1.79794
    A3        1.97659  -0.00020   0.00000   0.00161   0.00152   1.97811
    A4        1.83906  -0.00082   0.00000  -0.00691  -0.00689   1.83218
    A5        2.01332   0.00105   0.00000   0.00789   0.00782   2.02114
    A6        1.96025  -0.00092   0.00000  -0.00971  -0.00970   1.95055
    A7        2.45892  -0.00012   0.00000  -0.00048  -0.00048   2.45844
    A8        2.59369  -0.00029   0.00000  -0.00115  -0.00115   2.59253
    A9        2.34042  -0.00017   0.00000  -0.00069  -0.00069   2.33974
   A10        2.21656   0.01076   0.00000   0.00000   0.00000   2.21656
   A11        1.92384  -0.00003   0.00000  -0.00025  -0.00025   1.92360
   A12        1.91272  -0.00007   0.00000  -0.00042  -0.00042   1.91230
   A13        1.94584   0.00015   0.00000   0.00098   0.00098   1.94682
   A14        2.00429   0.00002   0.00000  -0.00014  -0.00014   2.00415
   A15        1.88341  -0.00006   0.00000  -0.00021  -0.00021   1.88320
   A16        1.79022   0.00001   0.00000   0.00013   0.00013   1.79034
   A17        1.80104   0.00024   0.00000   0.00176   0.00176   1.80280
[...]
 Alpha virt. eigenvalues --    3.15742   3.31714   3.35746   3.40056   3.46306
 Alpha virt. eigenvalues --    3.48423   3.48932   3.49326   3.49591   3.52456
 Alpha virt. eigenvalues --    3.54261   3.54905   3.60110   3.61669   3.62276
 Alpha virt. eigenvalues --    3.65989   4.33993   5.89711   7.44889  31.14704
          Condensed to atoms (all electrons):
               1          2          3          4          5          6
     1  Zr  16.250465  -0.167423  -0.020567  -0.135927   0.257972  -1.035093
     2  O   -0.167423   8.881219   0.013071  -0.072009  -0.058435   0.082926
     3  O   -0.020567   0.013071   8.880846   0.005925  -0.044217   0.007268
     4  O   -0.135927  -0.072009   0.005925   8.886297  -0.065010  -0.808184
     5  O    0.257972  -0.058435  -0.044217  -0.065010   8.951047  -0.004026
     6  Si  -1.035093   0.082926   0.007268  -0.808184  -0.004026  14.456600
     7  Si  -0.710897   0.001613  -0.884152  -0.038322  -0.029862   0.147372
     8  Si  -0.497416  -0.717494  -0.028223   0.073705  -0.010110  -0.000130
     9  Si  -1.312529   0.028451   0.021169   0.038414  -0.723498   0.103741
    10  O   -0.087537   0.000805  -0.002945  -0.000473   0.098601   0.001701
    11  O   -0.118929  -0.003196   0.002065   0.001298   0.240012  -0.001038
    12  O   -0.137978   0.012816  -0.000048   0.004473   0.077503   0.000206
    13  O    0.055752   0.276501   0.000562  -0.017708   0.000535   0.010771
    14  O   -0.146537   0.253701  -0.022081  -0.007513  -0.001350   0.035651
    15  O   -0.100540   0.255599   0.001085   0.003004  -0.000224   0.007262
    16  O   -0.103658   0.006011  -0.000427   0.333197   0.002024  -0.427910
    17  O   -0.055398  -0.038762   0.008161   0.201862  -0.000552  -0.457676
    18  O   -0.070563  -0.023427   0.003073   0.239394  -0.000272  -0.493058
    19  O    0.021948   0.007549   0.285421   0.015650   0.002160  -0.005906
    20  O   -0.140103  -0.000918   0.141914  -0.000318   0.000773   0.012944
    21  O    0.069776   0.009808   0.144977   0.004207   0.000970  -0.022242
    22  H   -0.001072  -0.000022   0.000808  -0.000004  -0.001920   0.000203
    23  H    0.005853  -0.000010   0.000032  -0.000013  -0.019364   0.000029
    24  H    0.002714  -0.000228   0.000017  -0.000011   0.000556   0.000055
    25  H    0.016325  -0.022325  -0.000094  -0.001252  -0.000027   0.000196
    26  H   -0.008490  -0.009259   0.000013  -0.000019   0.000003  -0.000127
    27  H    0.010063  -0.021628   0.000956  -0.001022   0.000028   0.011732
    28  H    0.004533  -0.000014  -0.016876  -0.000014  -0.000005  -0.000380
    29  H    0.003959  -0.004521  -0.018485  -0.000122  -0.000006   0.000868
    30  H   -0.001759  -0.000005   0.000365  -0.000633  -0.000007  -0.001245
    31  H    0.001002   0.000242  -0.000023  -0.019048  -0.000020   0.066766
    32  H    0.004732  -0.000030   0.000039   0.012916   0.000011   0.014174
    33  H   -0.031291   0.000898  -0.010774  -0.007315  -0.000055   0.061262
               7          8          9         10         11         12
     1  Zr  -0.710897  -0.497416  -1.312529  -0.087537  -0.118929  -0.137978
     2  O    0.001613  -0.717494   0.028451   0.000805  -0.003196   0.012816
     3  O   -0.884152  -0.028223   0.021169  -0.002945   0.002065  -0.000048
     4  O   -0.038322   0.073705   0.038414  -0.000473   0.001298   0.004473
     5  O   -0.029862  -0.010110  -0.723498   0.098601   0.240012   0.077503
     6  Si   0.147372  -0.000130   0.103741   0.001701  -0.001038   0.000206
     7  Si  13.862438   0.152259   0.054726   0.002550  -0.002154   0.001494
     8  Si   0.152259  13.631423   0.047313  -0.001527   0.004293  -0.018645
     9  Si   0.054726   0.047313  13.873760   0.041764  -0.051363  -0.249288
    10  O    0.002550  -0.001527   0.041764   8.637042  -0.132592   0.084748
    11  O   -0.002154   0.004293  -0.051363  -0.132592   8.631138  -0.020165
    12  O    0.001494  -0.018645  -0.249288   0.084748  -0.020165   8.938926
    13  O   -0.002408  -0.178824  -0.006645  -0.000006   0.000052  -0.000465
    14  O    0.048582  -0.446352   0.005484   0.000007   0.000004   0.001136
    15  O    0.003016  -0.402699   0.003045   0.000020  -0.000117   0.002783
    16  O    0.005329  -0.012686  -0.002362   0.000006  -0.000008  -0.000003
    17  O   -0.008240   0.097056   0.004274   0.000003   0.000009  -0.000077
    18  O   -0.004673   0.085885   0.006093   0.000008  -0.000005   0.000050
    19  O   -0.482477  -0.016688   0.000564  -0.000025   0.000005  -0.000417
    20  O   -0.086067   0.008551   0.007639   0.000140  -0.000002   0.000035
    21  O    0.016328  -0.045043  -0.005699  -0.000026   0.000008  -0.001105
    22  H    0.001103   0.001037   0.040311  -0.001170  -0.001232   0.230561
    23  H   -0.000036   0.000036   0.050077   0.232148  -0.000714   0.004961
    24  H    0.000034   0.000010   0.031084   0.009543   0.226573  -0.005924
    25  H   -0.000250   0.059074  -0.000301  -0.000000   0.000000  -0.000003
    26  H    0.000522   0.062619  -0.001234  -0.000000   0.000003  -0.000079
    27  H   -0.000917   0.073380  -0.000052   0.000000  -0.000000   0.000007
    28  H    0.055553   0.000080  -0.000283  -0.000001  -0.000000  -0.000017
    29  H    0.043061   0.019949  -0.000019  -0.000000   0.000000   0.000025
    30  H    0.047470   0.000198  -0.000046  -0.000000   0.000000  -0.000000
    31  H    0.000101  -0.002782  -0.000120   0.000000  -0.000000   0.000000
    32  H   -0.000693   0.000287  -0.000042  -0.000000   0.000000  -0.000000
    33  H    0.024010   0.000645   0.000531  -0.000000  -0.000000   0.000005
              13         14         15         16         17         18
     1  Zr   0.055752  -0.146537  -0.100540  -0.103658  -0.055398  -0.070563
     2  O    0.276501   0.253701   0.255599   0.006011  -0.038762  -0.023427
     3  O    0.000562  -0.022081   0.001085  -0.000427   0.008161   0.003073
     4  O   -0.017708  -0.007513   0.003004   0.333197   0.201862   0.239394
     5  O    0.000535  -0.001350  -0.000224   0.002024  -0.000552  -0.000272
     6  Si   0.010771   0.035651   0.007262  -0.427910  -0.457676  -0.493058
     7  Si  -0.002408   0.048582   0.003016   0.005329  -0.008240  -0.004673
     8  Si  -0.178824  -0.446352  -0.402699  -0.012686   0.097056   0.085885
     9  Si  -0.006645   0.005484   0.003045  -0.002362   0.004274   0.006093
    10  O   -0.000006   0.000007   0.000020   0.000006   0.000003   0.000008
    11  O    0.000052   0.000004  -0.000117  -0.000008   0.000009  -0.000005
    12  O   -0.000465   0.001136   0.002783  -0.000003  -0.000077   0.000050
    13  O    8.649131   0.022393  -0.125993   0.004183  -0.030093  -0.046285
    14  O    0.022393   8.821820   0.160368   0.002423  -0.031496  -0.023636
    15  O   -0.125993   0.160368   8.831159  -0.000180   0.004057   0.001670
    16  O    0.004183   0.002423  -0.000180   8.887640  -0.106827  -0.095233
    17  O   -0.030093  -0.031496   0.004057  -0.106827   8.926216   0.233424
    18  O   -0.046285  -0.023636   0.001670  -0.095233   0.233424   9.038841
    19  O    0.000194  -0.002327   0.000337  -0.000537  -0.029693  -0.000184
    20  O   -0.000000  -0.001141   0.000015   0.000033  -0.001074   0.000023
    21  O   -0.000443   0.023181   0.000300  -0.000148  -0.006216   0.000377
    22  H   -0.000001   0.000006   0.000001   0.000000   0.000000  -0.000000
    23  H    0.000000  -0.000000  -0.000000  -0.000000   0.000000  -0.000000
    24  H   -0.000001   0.000000   0.000001   0.000000  -0.000000  -0.000000
    25  H    0.218537  -0.009523   0.007057  -0.000259   0.000656   0.015384
    26  H   -0.006123   0.000323   0.224966   0.000000  -0.000024   0.000005
    27  H   -0.004342   0.208070   0.000383   0.000352   0.017689  -0.000825
    28  H    0.000000  -0.000006  -0.000001  -0.000000   0.000003   0.000000
    29  H    0.000803   0.014420  -0.001229  -0.000005  -0.000503  -0.000002
    30  H    0.000001   0.000058   0.000001   0.000091  -0.000676  -0.000010
    31  H    0.002373   0.000088  -0.000021   0.004490  -0.001357   0.214625
    32  H   -0.000007  -0.000006   0.000000   0.237210  -0.003161   0.004032
    33  H    0.000226   0.002607  -0.000050   0.000748   0.232651   0.002242
              19         20         21         22         23         24
     1  Zr   0.021948  -0.140103   0.069776  -0.001072   0.005853   0.002714
     2  O    0.007549  -0.000918   0.009808  -0.000022  -0.000010  -0.000228
     3  O    0.285421   0.141914   0.144977   0.000808   0.000032   0.000017
     4  O    0.015650  -0.000318   0.004207  -0.000004  -0.000013  -0.000011
     5  O    0.002160   0.000773   0.000970  -0.001920  -0.019364   0.000556
     6  Si  -0.005906   0.012944  -0.022242   0.000203   0.000029   0.000055
     7  Si  -0.482477  -0.086067   0.016328   0.001103  -0.000036   0.000034
     8  Si  -0.016688   0.008551  -0.045043   0.001037   0.000036   0.000010
     9  Si   0.000564   0.007639  -0.005699   0.040311   0.050077   0.031084
    10  O   -0.000025   0.000140  -0.000026  -0.001170   0.232148   0.009543
    11  O    0.000005  -0.000002   0.000008  -0.001232  -0.000714   0.226573
    12  O   -0.000417   0.000035  -0.001105   0.230561   0.004961  -0.005924
    13  O    0.000194  -0.000000  -0.000443  -0.000001   0.000000  -0.000001
    14  O   -0.002327  -0.001141   0.023181   0.000006  -0.000000   0.000000
    15  O    0.000337   0.000015   0.000300   0.000001  -0.000000   0.000001
    16  O   -0.000537   0.000033  -0.000148   0.000000  -0.000000   0.000000
    17  O   -0.029693  -0.001074  -0.006216   0.000000   0.000000  -0.000000
    18  O   -0.000184   0.000023   0.000377  -0.000000  -0.000000  -0.000000
    19  O    8.916672   0.025720   0.023860  -0.000000   0.000000  -0.000000
    20  O    0.025720   8.655296  -0.053987   0.000004  -0.000000  -0.000000
    21  O    0.023860  -0.053987   8.484249  -0.000024  -0.000000   0.000000
    22  H   -0.000000   0.000004  -0.000024   0.325411  -0.000039   0.000021
    23  H    0.000000  -0.000000  -0.000000  -0.000039   0.350856   0.000022
    24  H   -0.000000  -0.000000   0.000000   0.000021   0.000022   0.366134
    25  H   -0.000028   0.000000  -0.000006   0.000000   0.000000  -0.000000
    26  H    0.000000  -0.000000   0.000059  -0.000000   0.000000  -0.000000
    27  H   -0.000276   0.000238  -0.004655  -0.000000   0.000000   0.000000
    28  H    0.003864   0.227188  -0.000873   0.000000   0.000000  -0.000000
    29  H   -0.007858   0.008204   0.209720  -0.000000   0.000000  -0.000000
    30  H    0.219626  -0.001337  -0.007724   0.000000  -0.000000  -0.000000
    31  H    0.000003  -0.000000  -0.000000  -0.000000   0.000000   0.000000
    32  H    0.000079   0.000000   0.000001   0.000000  -0.000000  -0.000000
    33  H    0.013116   0.000092   0.001298  -0.000000  -0.000000   0.000000
              25         26         27         28         29         30
     1  Zr   0.016325  -0.008490   0.010063   0.004533   0.003959  -0.001759
     2  O   -0.022325  -0.009259  -0.021628  -0.000014  -0.004521  -0.000005
     3  O   -0.000094   0.000013   0.000956  -0.016876  -0.018485   0.000365
     4  O   -0.001252  -0.000019  -0.001022  -0.000014  -0.000122  -0.000633
     5  O   -0.000027   0.000003   0.000028  -0.000005  -0.000006  -0.000007
     6  Si   0.000196  -0.000127   0.011732  -0.000380   0.000868  -0.001245
     7  Si  -0.000250   0.000522  -0.000917   0.055553   0.043061   0.047470
     8  Si   0.059074   0.062619   0.073380   0.000080   0.019949   0.000198
     9  Si  -0.000301  -0.001234  -0.000052  -0.000283  -0.000019  -0.000046
    10  O   -0.000000  -0.000000   0.000000  -0.000001  -0.000000  -0.000000
    11  O    0.000000   0.000003  -0.000000  -0.000000   0.000000   0.000000
    12  O   -0.000003  -0.000079   0.000007  -0.000017   0.000025  -0.000000
    13  O    0.218537  -0.006123  -0.004342   0.000000   0.000803   0.000001
    14  O   -0.009523   0.000323   0.208070  -0.000006   0.014420   0.000058
    15  O    0.007057   0.224966   0.000383  -0.000001  -0.001229   0.000001
    16  O   -0.000259   0.000000   0.000352  -0.000000  -0.000005   0.000091
    17  O    0.000656  -0.000024   0.017689   0.000003  -0.000503  -0.000676
    18  O    0.015384   0.000005  -0.000825   0.000000  -0.000002  -0.000010
    19  O   -0.000028   0.000000  -0.000276   0.003864  -0.007858   0.219626
    20  O    0.000000  -0.000000   0.000238   0.227188   0.008204  -0.001337
    21  O   -0.000006   0.000059  -0.004655  -0.000873   0.209720  -0.007724
    22  H    0.000000  -0.000000  -0.000000   0.000000  -0.000000   0.000000
    23  H    0.000000   0.000000   0.000000   0.000000   0.000000  -0.000000
    24  H   -0.000000  -0.000000   0.000000  -0.000000  -0.000000  -0.000000
    25  H    0.302273  -0.000026   0.000023   0.000000   0.000000   0.000000
    26  H   -0.000026   0.370928  -0.000032   0.000000   0.000020  -0.000000
    27  H    0.000023  -0.000032   0.283871  -0.000000  -0.001033  -0.000000
    28  H    0.000000   0.000000  -0.000000   0.351229  -0.000018   0.000000
    29  H    0.000000   0.000020  -0.001033  -0.000018   0.285355   0.000174
    30  H    0.000000  -0.000000  -0.000000   0.000000   0.000174   0.336442
    31  H   -0.000248   0.000000   0.000015   0.000000   0.000000  -0.000000
    32  H   -0.000001  -0.000000  -0.000000  -0.000000  -0.000000  -0.000000
    33  H    0.000006   0.000000  -0.002509  -0.000002   0.000113  -0.000948
              31         32         33
     1  Zr   0.001002   0.004732  -0.031291
     2  O    0.000242  -0.000030   0.000898
     3  O   -0.000023   0.000039  -0.010774
     4  O   -0.019048   0.012916  -0.007315
     5  O   -0.000020   0.000011  -0.000055
     6  Si   0.066766   0.014174   0.061262
     7  Si   0.000101  -0.000693   0.024010
     8  Si  -0.002782   0.000287   0.000645
     9  Si  -0.000120  -0.000042   0.000531
    10  O    0.000000  -0.000000  -0.000000
    11  O   -0.000000   0.000000  -0.000000
    12  O    0.000000  -0.000000   0.000005
    13  O    0.002373  -0.000007   0.000226
    14  O    0.000088  -0.000006   0.002607
    15  O   -0.000021   0.000000  -0.000050
    16  O    0.004490   0.237210   0.000748
    17  O   -0.001357  -0.003161   0.232651
    18  O    0.214625   0.004032   0.002242
    19  O    0.000003   0.000079   0.013116
    20  O   -0.000000   0.000000   0.000092
    21  O   -0.000000   0.000001   0.001298
    22  H   -0.000000   0.000000  -0.000000
    23  H    0.000000  -0.000000  -0.000000
    24  H    0.000000  -0.000000   0.000000
    25  H   -0.000248  -0.000001   0.000006
    26  H    0.000000  -0.000000   0.000000
    27  H    0.000015  -0.000000  -0.002509
    28  H    0.000000  -0.000000  -0.000002
    29  H    0.000000  -0.000000   0.000113
    30  H   -0.000000  -0.000000  -0.000948
    31  H    0.329572  -0.000013  -0.000036
    32  H   -0.000013   0.348863   0.000144
    33  H   -0.000036   0.000144   0.270375
 Mulliken charges:
               1
     1  Zr   0.178614
     2  O   -0.691504
     3  O   -0.468855
     4  O   -0.645424
     5  O   -0.673235
     6  Si   2.235289
     7  Si   1.783590
     8  Si   2.060821
     9  Si   1.995041
    10  O   -0.882784
    11  O   -0.773945
    12  O   -0.925514
    13  O   -0.822672
    14  O   -0.908353
    15  O   -0.875075
    16  O   -0.733497
    17  O   -0.954236
    18  O   -1.086954
    19  O   -0.990351
    20  O   -0.803862
    21  O   -0.840928
    22  H    0.406019
    23  H    0.376162
    24  H    0.369399
    25  H    0.414812
    26  H    0.365953
    27  H    0.430486
    28  H    0.376039
    29  H    0.447133
    30  H    0.409964
    31  H    0.404391
    32  H    0.381465
    33  H    0.442010
 Sum of Mulliken charges =  -0.00000
 Mulliken charges with hydrogens summed into heavy atoms:
               1
     1  Zr   0.178614
     2  O   -0.691504
     3  O   -0.468855
     4  O   -0.645424
     5  O   -0.673235
     6  Si   2.235289
     7  Si   1.783590
     8  Si   2.060821
     9  Si   1.995041
    10  O   -0.506622
    11  O   -0.404547
    12  O   -0.519495
    13  O   -0.407860
    14  O   -0.477867
    15  O   -0.509122
    16  O   -0.352032
    17  O   -0.512226
    18  O   -0.682563
    19  O   -0.580386
    20  O   -0.427823
    21  O   -0.393795
 Electronic spatial extent (au):  <R**2>=           9250.3428
 Charge=             -0.0000 electrons
 Dipole moment (field-independent basis, Debye):
    X=              3.1585    Y=             -0.8671    Z=             -3.1211  Tot=              4.5243
 Quadrupole moment (field-independent basis, Debye-Ang):
   XX=           -161.6762   YY=           -151.4384   ZZ=           -162.4429
   XY=             -6.0524   XZ=             13.3091   YZ=              5.2767
 Traceless Quadrupole moment (field-independent basis, Debye-Ang):
   XX=             -3.1571   YY=              7.0808   ZZ=             -3.9237
   XY=             -6.0524   XZ=             13.3091   YZ=              5.2767
 Octapole moment (field-independent basis, Debye-Ang**2):
  XXX=             85.4381  YYY=            -10.1741  ZZZ=            -63.1552  XYY=             -6.4976
  XXY=             21.8797  XXZ=            -25.6630  XZZ=             58.3327  YZZ=            -14.7073
  YYZ=             -1.1383  XYZ=              0.1776
 Hexadecapole moment (field-independent basis, Debye-Ang**3):
 XXXX=          -5557.4935 YYYY=          -2790.4450 ZZZZ=          -2305.5439 XXXY=             13.0879
 XXXZ=           -140.6317 YYYX=            -75.4261 YYYZ=            179.2373 ZZZX=            132.0377
 ZZZY=            -64.6582 XXYY=          -1342.5528 XXZZ=          -1354.0284 YYZZ=           -896.9786
 XXYZ=             55.9629 YYXZ=            184.5025 ZZXY=            -17.9619
 N-N= 2.879666494845D+03 E-N=-1.147201141245D+04  KE= 2.373154628981D+03
 1\1\GINC-GRA815\FOpt\RB3LYP\Gen\H12O16Si4Zr1\SARASHS\02-Aug-2020\0\\#n
  B3LYP/Gen Pseudo=cards EmpiricalDispersion=GD3 Opt=modredundant\\Titl
 e\\0,1\Zr,0.6643575207,-0.0327588145,-0.2404332435\O,-0.0831417824,-0.
 8299874921,1.3698057618\O,0.0800807061,1.8320938455,-0.3033666385\O,-0
 .3900505509,-0.9087401508,-1.6599561628\O,2.5985016913,-0.385128821,-0
 .5254134387\Si,-1.9672891775,-1.3146012874,-1.861958804\Si,-1.13633818
 64,2.9203497143,-0.1852237758\Si,-1.5284687398,-1.0026849317,2.1652112
 214\Si,3.8482131277,0.2302111594,0.3324643907\O,4.7596283968,1.3723445
 457,-0.4256189715\O,4.8982396874,-0.9524311043,0.8115844991\O,3.015846
 5577,0.9770818404,1.5639670857\O,-2.1422637927,-2.4939960168,1.8621718
 081\O,-2.5517036336,0.2077459109,1.6545143588\O,-1.3505097765,-0.74815
 01087,3.7762073263\O,-2.2784326342,-1.6033251158,-3.4560306599\O,-2.92
 9401177,-0.1697865117,-1.1634117002\O,-2.3604782399,-2.6876183317,-1.0
 090489515\O,-2.1886563572,2.4614218356,-1.4162915816\O,-0.6864263361,4
 .4714701749,-0.5073792941\O,-1.8434739471,2.9030954083,1.2912723915\H,
 3.4319200266,1.6924688955,2.0567721001\H,5.5837069407,1.0709699225,-0.
 8243693066\H,4.5234341121,-1.8167195581,1.0146019819\H,-2.2398395605,-
 2.7385192547,0.9245080976\H,-0.6399572781,-1.2230596554,4.219358449\H,
 -2.9877780519,0.0174206318,0.8024015157\H,-0.5646270061,5.0406525411,0
 .2610281727\H,-2.1222512542,2.0250684696,1.6249649416\H,-2.8364995852,
 3.1301847983,-1.6711889014\H,-2.4199279377,-3.502910178,-1.5195822788\
 H,-1.6078348236,-1.3128661889,-4.0840987849\H,-2.7380589387,0.76887382
 8,-1.3872216084\\Version=ES64L-G16RevB.01\State=1-A\HF=-2416.9457893\R
 MSD=2.654e-09\RMSF=2.669e-04\Dipole=1.4322113,-0.2932181,-1.0154601\Qu
 adrupole=-3.6871924,4.9032728,-1.2160804,-4.9399295,9.8033891,3.787955
 8\PG=C01 [X(H12O16Si4Zr1)]\\@


 A FOOL CAN ASK MORE QUESTIONS THAN
 A WISE MAN CAN ANSWER.
 Job cpu time:       1 days 12 hours 49 minutes  2.5 seconds.
 Elapsed time:       0 days  2 hours 46 minutes 14.1 seconds.
 File lengths (MBytes):  RWF=    167 Int=      0 D2E=      0 Chk=     21 Scr=      1
 Normal termination of Gaussian 16 at Sun Aug  2 09:49:21 2020.
