 Entering Gaussian System, Link 0=g16
 Initial command:
 /opt/software/gaussian/g16.b01/l1.exe "/localscratch/sarashs.36760134.0/Gau-19603.inp" -scrdir="/localscratch/sarashs.36760134.0/"
 Entering Link 1 = /opt/software/gaussian/g16.b01/l1.exe PID=     19604.
  
 Copyright (c) 1988-2017, Gaussian, Inc.  All Rights Reserved.
  
 This is part of the Gaussian(R) 16 program.  It is based on
 the Gaussian(R) 09 system (copyright 2009, Gaussian, Inc.),
 the Gaussian(R) 03 system (copyright 2003, Gaussian, Inc.),
 the Gaussian(R) 98 system (copyright 1998, Gaussian, Inc.),
 the Gaussian(R) 94 system (copyright 1995, Gaussian, Inc.),
 the Gaussian 92(TM) system (copyright 1992, Gaussian, Inc.),
 the Gaussian 90(TM) system (copyright 1990, Gaussian, Inc.),
 the Gaussian 88(TM) system (copyright 1988, Gaussian, Inc.),
 the Gaussian 86(TM) system (copyright 1986, Carnegie Mellon
 University), and the Gaussian 82(TM) system (copyright 1983,
 Carnegie Mellon University). Gaussian is a federally registered
 trademark of Gaussian, Inc.
  
 This software contains proprietary and confidential information,
 including trade secrets, belonging to Gaussian, Inc.
  
 This software is provided under written license and may be
 used, copied, transmitted, or stored only in accord with that
 written license.
  
 The following legend is applicable only to US Government
 contracts under FAR:
  
                    RESTRICTED RIGHTS LEGEND
  
 Use, reproduction and disclosure by the US Government is
 subject to restrictions as set forth in subparagraphs (a)
 and (c) of the Commercial Computer Software - Restricted
 Rights clause in FAR 52.227-19.
  
 Gaussian, Inc.
 340 Quinnipiac St., Bldg. 40, Wallingford CT 06492
  
  
 ---------------------------------------------------------------
 Warning -- This program may not be used in any manner that
 competes with the business of Gaussian, Inc. or will provide
 assistance to any competitor of Gaussian, Inc.  The licensee
 of this program is prohibited from giving any competitor of
 Gaussian, Inc. access to this program.  By using this program,
 the user acknowledges that Gaussian, Inc. is engaged in the
 business of creating and licensing software in the field of
 computational chemistry and represents and warrants to the
 licensee that it is not a competitor of Gaussian, Inc. and that
 it will not use this program in any manner prohibited above.
 ---------------------------------------------------------------
  

 Cite this work as:
 Gaussian 16, Revision B.01,
 M. J. Frisch, G. W. Trucks, H. B. Schlegel, G. E. Scuseria, 
 M. A. Robb, J. R. Cheeseman, G. Scalmani, V. Barone, 
 G. A. Petersson, H. Nakatsuji, X. Li, M. Caricato, A. V. Marenich, 
 J. Bloino, B. G. Janesko, R. Gomperts, B. Mennucci, H. P. Hratchian, 
 J. V. Ortiz, A. F. Izmaylov, J. L. Sonnenberg, D. Williams-Young, 
 F. Ding, F. Lipparini, F. Egidi, J. Goings, B. Peng, A. Petrone, 
 T. Henderson, D. Ranasinghe, V. G. Zakrzewski, J. Gao, N. Rega, 
 G. Zheng, W. Liang, M. Hada, M. Ehara, K. Toyota, R. Fukuda, 
 J. Hasegawa, M. Ishida, T. Nakajima, Y. Honda, O. Kitao, H. Nakai, 
 T. Vreven, K. Throssell, J. A. Montgomery, Jr., J. E. Peralta, 
 F. Ogliaro, M. J. Bearpark, J. J. Heyd, E. N. Brothers, K. N. Kudin, 
 V. N. Staroverov, T. A. Keith, R. Kobayashi, J. Normand, 
 K. Raghavachari, A. P. Rendell, J. C. Burant, S. S. Iyengar, 
 J. Tomasi, M. Cossi, J. M. Millam, M. Klene, C. Adamo, R. Cammi, 
 J. W. Ochterski, R. L. Martin, K. Morokuma, O. Farkas, 
 J. B. Foresman, and D. J. Fox, Gaussian, Inc., Wallingford CT, 2016.
 
 ******************************************
 Gaussian 16:  ES64L-G16RevB.01 20-Dec-2017
                 2-Aug-2020 
 ******************************************
 %NProcShared=16
 Will use up to   16 processors via shared memory.
 ------------------------------------------------------------------
 #n B3LYP/Gen Pseudo=cards EmpiricalDispersion=GD3 Opt=modredundant
 ------------------------------------------------------------------
 1/18=120,19=15,26=3,38=1/1,3;
 2/9=110,12=2,17=6,18=5,40=1/2;
 3/5=7,11=2,16=1,17=8,25=1,30=1,71=1,74=-5,124=31/1,2,3;
 4//1;
 5/5=2,38=5/2;
 6/7=2,8=2,9=2,10=2,28=1/1;
 7//1,2,3,16;
 1/18=20,19=15,26=3/3(2);
 2/9=110/2;
 99//99;
 2/9=110/2;
 3/5=7,6=1,11=2,16=1,17=8,25=1,30=1,71=1,74=-5,82=7,124=31/1,2,3;
 4/5=5,16=3,69=1/1;
 5/5=2,38=5/2;
 7//1,2,3,16;
 1/18=20,19=15,26=3/3(-5);
 2/9=110/2;
 6/7=2,8=2,9=2,10=2,19=2,28=1/1;
 99/9=1/99;
 -----
 Title
 -----
 Symbolic Z-matrix:
 Charge =  0 Multiplicity = 1
 Zr                    0.64646  -0.19013  -0.1519 
 O                    -0.19212  -0.93131   1.43939 
 O                     0.17263   1.70395  -0.1904 
 O                    -0.37772  -1.01692  -1.62844 
 O                     2.5678   -0.57883  -0.26812 
 Si                   -1.96924  -1.33216  -1.87829 
 Si                   -0.98958   2.85681  -0.11809 
 Si                   -1.67476  -1.05152   2.17706 
 Si                    4.07865  -0.07861   0.11285 
 O                     4.80657   0.82324  -1.06198 
 O                     5.07387  -1.38373   0.3429 
 O                     3.88288   0.87303   1.44808 
 O                    -2.33574  -2.51245   1.83004 
 O                    -2.6209    0.20928   1.64149 
 O                    -1.552    -0.82432   3.7965 
 O                    -2.25427  -1.59164  -3.48183 
 O                    -2.88371  -0.13912  -1.19557 
 O                    -2.46027  -2.68598  -1.04579 
 O                    -2.00825   2.45605  -1.3967 
 O                    -0.44623   4.38142  -0.41555 
 O                    -1.75835   2.86715   1.32642 
 H                     4.62517   1.43532   1.69599 
 H                     5.37319   0.34147  -1.67508 
 H                     4.71682  -2.12982   0.83696 
 H                    -2.40738  -2.74575   0.88712 
 H                    -0.93391  -1.38513   4.27638 
 H                    -3.02928   0.04705   0.77024 
 H                    -0.29029   4.93346   0.35924 
 H                    -2.09489   2.00321   1.64266 
 H                    -2.6086    3.15807  -1.6773 
 H                    -2.56602  -3.49143  -1.56436 
 H                    -1.55278  -1.33714  -4.09141 
 H                    -2.64046   0.78995  -1.40829 
 
 The following ModRedundant input section has been read:
 A       1       5       9 F                                                   
 

 GradGradGradGradGradGradGradGradGradGradGradGradGradGradGradGradGradGrad
 Berny optimization.
 Initialization pass.
                           ----------------------------
                           !    Initial Parameters    !
                           ! (Angstroms and Degrees)  !
 --------------------------                            --------------------------
 ! Name  Definition              Value          Derivative Info.                !
 --------------------------------------------------------------------------------
 ! R1    R(1,2)                  1.9454         estimate D2E/DX2                !
 ! R2    R(1,3)                  1.9528         estimate D2E/DX2                !
 ! R3    R(1,4)                  1.9781         estimate D2E/DX2                !
 ! R4    R(1,5)                  1.9637         estimate D2E/DX2                !
 ! R5    R(2,8)                  1.6604         estimate D2E/DX2                !
 ! R6    R(3,7)                  1.6386         estimate D2E/DX2                !
 ! R7    R(4,6)                  1.6416         estimate D2E/DX2                !
 ! R8    R(5,9)                  1.6365         estimate D2E/DX2                !
 ! R9    R(6,16)                 1.6492         estimate D2E/DX2                !
 ! R10   R(6,17)                 1.651          estimate D2E/DX2                !
 ! R11   R(6,18)                 1.6634         estimate D2E/DX2                !
 ! R12   R(7,19)                 1.6832         estimate D2E/DX2                !
 ! R13   R(7,20)                 1.6456         estimate D2E/DX2                !
 ! R14   R(7,21)                 1.6364         estimate D2E/DX2                !
 ! R15   R(8,13)                 1.6406         estimate D2E/DX2                !
 ! R16   R(8,14)                 1.6648         estimate D2E/DX2                !
 ! R17   R(8,15)                 1.6399         estimate D2E/DX2                !
 ! R18   R(9,10)                 1.6503         estimate D2E/DX2                !
 ! R19   R(9,11)                 1.6573         estimate D2E/DX2                !
 ! R20   R(9,12)                 1.6513         estimate D2E/DX2                !
 ! R21   R(10,23)                0.9639         estimate D2E/DX2                !
 ! R22   R(11,24)                0.9634         estimate D2E/DX2                !
 ! R23   R(12,22)                0.9637         estimate D2E/DX2                !
 ! R24   R(13,25)                0.974          estimate D2E/DX2                !
 ! R25   R(14,27)                0.9758         estimate D2E/DX2                !
 ! R26   R(15,26)                0.9627         estimate D2E/DX2                !
 ! R27   R(16,32)                0.9636         estimate D2E/DX2                !
 ! R28   R(17,33)                0.9837         estimate D2E/DX2                !
 ! R29   R(18,31)                0.9638         estimate D2E/DX2                !
 ! R30   R(19,30)                0.9654         estimate D2E/DX2                !
 ! R31   R(20,28)                0.964          estimate D2E/DX2                !
 ! R32   R(21,29)                0.9796         estimate D2E/DX2                !
 ! A1    A(2,1,3)              106.3234         estimate D2E/DX2                !
 ! A2    A(2,1,4)              103.1879         estimate D2E/DX2                !
 ! A3    A(2,1,5)              113.2501         estimate D2E/DX2                !
 ! A4    A(3,1,4)              105.3705         estimate D2E/DX2                !
 ! A5    A(3,1,5)              115.3549         estimate D2E/DX2                !
 ! A6    A(4,1,5)              112.3142         estimate D2E/DX2                !
 ! A7    A(1,2,8)              140.8859         estimate D2E/DX2                !
 ! A8    A(1,3,7)              148.6074         estimate D2E/DX2                !
 ! A9    A(1,4,6)              134.0964         estimate D2E/DX2                !
 ! A10   A(1,5,9)              145.9999         Frozen                          !
 ! A11   A(4,6,16)             110.2282         estimate D2E/DX2                !
 ! A12   A(4,6,17)             109.5909         estimate D2E/DX2                !
 ! A13   A(4,6,18)             111.4884         estimate D2E/DX2                !
 ! A14   A(16,6,17)            114.8371         estimate D2E/DX2                !
 ! A15   A(16,6,18)            107.9112         estimate D2E/DX2                !
 ! A16   A(17,6,18)            102.5719         estimate D2E/DX2                !
 ! A17   A(3,7,19)             103.1918         estimate D2E/DX2                !
 ! A18   A(3,7,20)             114.1832         estimate D2E/DX2                !
 ! A19   A(3,7,21)             112.1241         estimate D2E/DX2                !
 ! A20   A(19,7,20)            106.4451         estimate D2E/DX2                !
 ! A21   A(19,7,21)            112.8144         estimate D2E/DX2                !
 ! A22   A(20,7,21)            107.9884         estimate D2E/DX2                !
 ! A23   A(2,8,13)             109.2843         estimate D2E/DX2                !
 ! A24   A(2,8,14)             108.0427         estimate D2E/DX2                !
 ! A25   A(2,8,15)             111.2146         estimate D2E/DX2                !
 ! A26   A(13,8,14)            112.1704         estimate D2E/DX2                !
 ! A27   A(13,8,15)            111.2482         estimate D2E/DX2                !
 ! A28   A(14,8,15)            104.7916         estimate D2E/DX2                !
 ! A29   A(5,9,10)             114.1134         estimate D2E/DX2                !
 ! A30   A(5,9,11)             110.2432         estimate D2E/DX2                !
 ! A31   A(5,9,12)             104.7702         estimate D2E/DX2                !
 ! A32   A(10,9,11)            105.3249         estimate D2E/DX2                !
 ! A33   A(10,9,12)            108.2397         estimate D2E/DX2                !
 ! A34   A(11,9,12)            114.3796         estimate D2E/DX2                !
 ! A35   A(9,10,23)            116.0384         estimate D2E/DX2                !
 ! A36   A(9,11,24)            117.2881         estimate D2E/DX2                !
 ! A37   A(9,12,22)            116.9343         estimate D2E/DX2                !
 ! A38   A(8,13,25)            116.5961         estimate D2E/DX2                !
 ! A39   A(8,14,27)            113.5263         estimate D2E/DX2                !
 ! A40   A(8,15,26)            117.3612         estimate D2E/DX2                !
 ! A41   A(6,16,32)            116.5984         estimate D2E/DX2                !
 ! A42   A(6,17,33)            117.1373         estimate D2E/DX2                !
 ! A43   A(6,18,31)            116.3135         estimate D2E/DX2                !
 ! A44   A(7,19,30)            115.0881         estimate D2E/DX2                !
 ! A45   A(7,20,28)            116.018          estimate D2E/DX2                !
 ! A46   A(7,21,29)            116.1544         estimate D2E/DX2                !
 ! D1    D(3,1,2,8)             54.013          estimate D2E/DX2                !
 ! D2    D(4,1,2,8)            -56.615          estimate D2E/DX2                !
 ! D3    D(5,1,2,8)           -178.2908         estimate D2E/DX2                !
 ! D4    D(2,1,3,7)            -51.1331         estimate D2E/DX2                !
 ! D5    D(4,1,3,7)             57.9568         estimate D2E/DX2                !
 ! D6    D(5,1,3,7)           -177.5709         estimate D2E/DX2                !
 ! D7    D(2,1,4,6)             41.2968         estimate D2E/DX2                !
 ! D8    D(3,1,4,6)            -70.0365         estimate D2E/DX2                !
 ! D9    D(5,1,4,6)            163.602          estimate D2E/DX2                !
 ! D10   D(2,1,5,9)            -89.636          estimate D2E/DX2                !
 ! D11   D(3,1,5,9)             33.1907         estimate D2E/DX2                !
 ! D12   D(4,1,5,9)            153.9573         estimate D2E/DX2                !
 ! D13   D(1,2,8,13)            98.0767         estimate D2E/DX2                !
 ! D14   D(1,2,8,14)           -24.2296         estimate D2E/DX2                !
 ! D15   D(1,2,8,15)          -138.7156         estimate D2E/DX2                !
 ! D16   D(1,3,7,19)           -58.6416         estimate D2E/DX2                !
 ! D17   D(1,3,7,20)          -173.7291         estimate D2E/DX2                !
 ! D18   D(1,3,7,21)            63.0404         estimate D2E/DX2                !
 ! D19   D(1,4,6,16)           161.8736         estimate D2E/DX2                !
 ! D20   D(1,4,6,17)            34.551          estimate D2E/DX2                !
 ! D21   D(1,4,6,18)           -78.3045         estimate D2E/DX2                !
 ! D22   D(1,5,9,10)           -93.0138         estimate D2E/DX2                !
 ! D23   D(1,5,9,11)           148.712          estimate D2E/DX2                !
 ! D24   D(1,5,9,12)            25.1924         estimate D2E/DX2                !
 ! D25   D(4,6,16,32)          -13.7229         estimate D2E/DX2                !
 ! D26   D(17,6,16,32)         110.6319         estimate D2E/DX2                !
 ! D27   D(18,6,16,32)        -135.686          estimate D2E/DX2                !
 ! D28   D(4,6,17,33)           49.7998         estimate D2E/DX2                !
 ! D29   D(16,6,17,33)         -74.8906         estimate D2E/DX2                !
 ! D30   D(18,6,17,33)         168.3378         estimate D2E/DX2                !
 ! D31   D(4,6,18,31)         -102.9126         estimate D2E/DX2                !
 ! D32   D(16,6,18,31)          18.2691         estimate D2E/DX2                !
 ! D33   D(17,6,18,31)         139.8941         estimate D2E/DX2                !
 ! D34   D(3,7,19,30)         -162.9704         estimate D2E/DX2                !
 ! D35   D(20,7,19,30)         -42.4468         estimate D2E/DX2                !
 ! D36   D(21,7,19,30)          75.8144         estimate D2E/DX2                !
 ! D37   D(3,7,20,28)         -100.1112         estimate D2E/DX2                !
 ! D38   D(19,7,20,28)         146.7232         estimate D2E/DX2                !
 ! D39   D(21,7,20,28)          25.3303         estimate D2E/DX2                !
 ! D40   D(3,7,21,29)          -50.5298         estimate D2E/DX2                !
 ! D41   D(19,7,21,29)          65.4642         estimate D2E/DX2                !
 ! D42   D(20,7,21,29)        -177.1813         estimate D2E/DX2                !
 ! D43   D(2,8,13,25)          -54.0971         estimate D2E/DX2                !
 ! D44   D(14,8,13,25)          65.6987         estimate D2E/DX2                !
 ! D45   D(15,8,13,25)        -177.2849         estimate D2E/DX2                !
 ! D46   D(2,8,14,27)           81.1206         estimate D2E/DX2                !
 ! D47   D(13,8,14,27)         -39.3971         estimate D2E/DX2                !
 ! D48   D(15,8,14,27)        -160.2179         estimate D2E/DX2                !
 ! D49   D(2,8,15,26)          -54.9076         estimate D2E/DX2                !
 ! D50   D(13,8,15,26)          67.168          estimate D2E/DX2                !
 ! D51   D(14,8,15,26)        -171.403          estimate D2E/DX2                !
 ! D52   D(5,9,10,23)          -94.3729         estimate D2E/DX2                !
 ! D53   D(11,9,10,23)          26.6727         estimate D2E/DX2                !
 ! D54   D(12,9,10,23)         149.421          estimate D2E/DX2                !
 ! D55   D(5,9,11,24)          -42.1577         estimate D2E/DX2                !
 ! D56   D(10,9,11,24)        -165.7001         estimate D2E/DX2                !
 ! D57   D(12,9,11,24)          75.5823         estimate D2E/DX2                !
 ! D58   D(5,9,12,22)         -165.3206         estimate D2E/DX2                !
 ! D59   D(10,9,12,22)         -43.1972         estimate D2E/DX2                !
 ! D60   D(11,9,12,22)          73.8591         estimate D2E/DX2                !
 --------------------------------------------------------------------------------
 Trust Radius=3.00D-01 FncErr=1.00D-07 GrdErr=1.00D-06 EigMax=2.50D+02 EigMin=1.00D-04
 Number of steps in this run=    148 maximum allowed number of steps=    198.
 GradGradGradGradGradGradGradGradGradGradGradGradGradGradGradGradGradGrad

                          Input orientation:                          
 ---------------------------------------------------------------------
 Center     Atomic      Atomic             Coordinates (Angstroms)
 Number     Number       Type             X           Y           Z
 ---------------------------------------------------------------------
      1         40           0        0.646460   -0.190130   -0.151900
      2          8           0       -0.192120   -0.931310    1.439390
      3          8           0        0.172630    1.703950   -0.190400
      4          8           0       -0.377720   -1.016920   -1.628440
      5          8           0        2.567800   -0.578830   -0.268120
      6         14           0       -1.969240   -1.332160   -1.878290
      7         14           0       -0.989580    2.856810   -0.118090
      8         14           0       -1.674760   -1.051520    2.177060
      9         14           0        4.078650   -0.078610    0.112850
     10          8           0        4.806570    0.823240   -1.061980
     11          8           0        5.073870   -1.383730    0.342900
     12          8           0        3.882880    0.873030    1.448080
     13          8           0       -2.335740   -2.512450    1.830040
     14          8           0       -2.620900    0.209280    1.641490
     15          8           0       -1.552000   -0.824320    3.796500
     16          8           0       -2.254270   -1.591640   -3.481830
     17          8           0       -2.883710   -0.139120   -1.195570
     18          8           0       -2.460270   -2.685980   -1.045790
     19          8           0       -2.008250    2.456050   -1.396700
     20          8           0       -0.446230    4.381420   -0.415550
     21          8           0       -1.758350    2.867150    1.326420
     22          1           0        4.625170    1.435320    1.695990
     23          1           0        5.373190    0.341470   -1.675080
     24          1           0        4.716820   -2.129820    0.836960
     25          1           0       -2.407380   -2.745750    0.887120
     26          1           0       -0.933910   -1.385130    4.276380
     27          1           0       -3.029280    0.047050    0.770240
     28          1           0       -0.290290    4.933460    0.359240
     29          1           0       -2.094890    2.003210    1.642660
     30          1           0       -2.608600    3.158070   -1.677300
     31          1           0       -2.566020   -3.491430   -1.564360
     32          1           0       -1.552780   -1.337140   -4.091410
     33          1           0       -2.640460    0.789950   -1.408290
 ---------------------------------------------------------------------
                    Distance matrix (angstroms):
                    1          2          3          4          5
     1  Zr   0.000000
     2  O    1.945448   0.000000
     3  O    1.952828   3.119912   0.000000
     4  O    1.978054   3.074631   3.126336   0.000000
     5  O    1.963706   3.264505   3.309677   3.273909   0.000000
     6  Si   3.335647   3.784949   4.080998   1.641565   4.872872
     7  Si   3.458557   4.172714   1.638611   4.202537   4.947836
     8  Si   3.399134   1.660370   4.075577   4.020614   4.919518
     9  Si   3.444192   4.552613   4.304239   4.875628   1.636468
    10  O    4.377406   5.858515   4.796739   5.530274   2.758279
    11  O    4.612100   5.397928   5.817244   5.808663   2.702147
    12  O    3.763597   4.456607   4.140169   5.584765   2.604357
    13  O    4.267877   2.692159   5.305858   4.246356   5.673259
    14  O    3.748522   2.690866   3.659736   4.150646   5.584831
    15  O    4.563473   2.723360   5.026119   5.553918   5.792595
    16  O    4.633238   5.376514   5.252073   2.699407   5.882693
    17  O    3.681569   3.849056   3.707895   2.690334   5.547294
    18  O    4.084125   3.794666   5.189927   2.731713   5.506936
    19  O    3.949592   4.776604   2.603277   3.843677   5.605749
    20  O    4.707712   5.632981   2.757268   5.533342   5.806048
    21  O    4.161190   4.110248   2.717068   5.071818   5.756119
    22  H    4.678346   5.373366   4.843113   6.488006   3.485298
    23  H    4.994462   6.503274   5.577316   5.909346   3.270581
    24  H    4.616067   5.088913   6.033484   5.768109   2.871421
    25  H    4.115422   2.916260   5.255219   3.665572   5.548201
    26  H    4.851315   2.967274   5.542470   5.942375   5.793494
    27  H    3.797060   3.074805   3.731002   3.730478   5.726886
    28  H    5.233540   5.964217   3.308494   6.274196   6.240801
    29  H    3.942865   3.503321   2.931094   4.771787   5.662039
    30  H    4.912505   5.681211   3.472834   4.733894   6.537991
    31  H    4.818055   4.605663   6.031579   3.303931   6.043144
    32  H    4.655322   5.710153   5.238621   2.747640   5.672016
    33  H    3.652796   4.131148   3.198770   2.904004   5.504500
                    6          7          8          9         10
     6  Si   0.000000
     7  Si   4.648172   0.000000
     8  Si   4.075701   4.583910   0.000000
     9  Si   6.489453   5.861483   6.189446   0.000000
    10  O    7.157074   6.214635   7.484233   1.650281   0.000000
    11  O    7.385238   7.413509   7.001322   1.657324   2.629801
    12  O    7.083425   5.489002   5.926438   1.651298   2.675086
    13  O    3.908851   5.868246   1.640620   7.072250   8.396618
    14  O    3.897377   3.573058   1.664822   6.877761   7.927989
    15  O    5.712725   5.402874   1.639901   6.769755   8.170110
    16  O    1.649216   5.718645   5.714070   7.437530   7.844921
    17  O    1.650971   3.704631   3.697116   7.084496   7.751412
    18  O    1.663429   5.809137   3.698006   7.134304   8.069811
    19  O    3.818898   1.683194   5.018568   6.764140   7.015688
    20  O    6.091319   1.645645   6.143920   6.375391   6.377337
    21  O    5.286667   1.636375   4.010804   6.649874   7.278750
    22  H    7.995040   6.069344   6.790060   2.257654   2.830891
    23  H    7.533499   7.016837   8.151871   2.246997   0.963874
    24  H    7.260320   7.638167   6.618980   2.266949   3.512064
    25  H    3.136510   5.865943   2.251909   7.055616   8.281169
    26  H    6.241368   6.108070   2.251066   6.645881   8.144206
    27  H    3.168693   3.583889   2.240697   7.139371   8.084556
    28  H    6.861735   2.242616   6.406342   6.653510   6.700131
    29  H    4.851553   2.247350   3.129452   6.692301   7.505835
    30  H    4.539972   2.267845   5.783493   7.641992   7.798384
    31  H    2.262111   6.699031   4.554748   7.655848   8.557093
    32  H    2.251969   5.804626   6.276159   7.139517   7.367905
    33  H    2.274816   2.943116   4.144674   6.943681   7.455152
                   11         12         13         14         15
    11  O    0.000000
    12  O    2.780799   0.000000
    13  O    7.641199   7.090741   0.000000
    14  O    7.964515   6.540422   2.743115   0.000000
    15  O    7.492826   6.159058   2.707581   2.618195   0.000000
    16  O    8.268822   8.248831   5.391706   5.442990   7.352282
    17  O    8.199940   7.334853   3.884235   2.870429   5.211882
    18  O    7.770945   7.689050   2.883751   3.953455   5.266736
    19  O    8.241756   6.730835   5.933388   3.828043   6.159409
    20  O    8.017712   5.875637   7.492554   5.134915   6.787033
    21  O    8.106573   5.984546   5.433885   2.812034   4.446440
    22  H    3.158991   0.963651   8.003570   7.349264   6.904748
    23  H    2.671732   3.501101   8.936349   8.655783   8.902556
    24  H    0.963447   3.175851   7.132406   7.743435   7.054170
    25  H    7.623672   7.278572   0.973991   3.057265   3.589994
    26  H    7.180925   6.024951   3.036537   3.511513   0.962719
    27  H    8.239587   6.994259   2.855734   0.975792   3.478490
    28  H    8.287422   5.923513   7.860578   5.421604   6.823394
    29  H    8.034417   6.086781   4.525959   1.869458   3.595648
    30  H    9.150383   7.558354   6.673131   4.439581   6.851155
    31  H    8.151562   8.349348   3.540252   4.896503   6.072934
    32  H    7.973567   8.069523   6.087524   6.033112   7.904563
    33  H    8.203806   7.121778   4.635243   3.104629   5.557018
                   16         17         18         19         20
    16  O    0.000000
    17  O    2.780826   0.000000
    18  O    2.678490   2.586162   0.000000
    19  O    4.559834   2.746232   5.173774   0.000000
    20  O    6.953311   5.194711   7.375751   2.666385   0.000000
    21  O    6.576170   4.082221   6.079254   2.765291   2.655020
    22  H    9.126829   8.198979   8.643259   7.389782   6.233555
    23  H    8.073376   8.284763   8.421672   7.683398   7.195364
    24  H    8.218131   8.115548   7.440745   8.440735   8.403696
    25  H    4.521409   3.370313   1.934557   5.695073   7.505972
    26  H    7.872472   5.941086   5.687484   6.934891   7.450177
    27  H    4.622342   1.979964   3.330344   3.397265   5.183147
    28  H    7.822274   5.905449   8.046042   3.488878   0.964036
    29  H    6.261689   3.642439   5.417543   3.074131   3.551083
    30  H    5.093292   3.343533   5.879943   0.965396   2.786475
    31  H    2.717183   3.387464   0.963767   5.975930   8.233774
    32  H    0.963559   3.404778   3.452348   4.675169   6.887549
    33  H    3.181302   0.983662   3.499423   1.782053   4.324215
                   21         22         23         24         25
    21  O    0.000000
    22  H    6.552560   0.000000
    23  H    8.139221   3.622175   0.000000
    24  H    8.193724   3.668318   3.584472   0.000000
    25  H    5.667351   8.221458   8.754031   7.150952   0.000000
    26  H    5.240596   6.746608   8.841976   6.656945   3.938208
    27  H    3.142859   7.834214   8.756014   8.046445   2.863591
    28  H    2.712983   6.179452   7.569665   8.671176   7.983169
    29  H    0.979622   6.744223   8.339124   8.008151   4.818829
    30  H    3.135266   8.165438   8.464172   9.377903   6.439863
    31  H    7.031392   9.306770   8.816713   7.788458   2.567286
    32  H    6.860845   8.907727   7.524988   8.014054   5.244071
    33  H    3.545633   7.927322   8.030622   8.227744   4.221896
                   26         27         28         29         30
    26  H    0.000000
    27  H    4.328364   0.000000
    28  H    7.462092   5.616760   0.000000
    29  H    4.445807   2.336828   3.672889   0.000000
    30  H    7.674084   3.980687   3.560065   3.552426   0.000000
    31  H    6.419854   4.264482   8.936328   6.379499   6.650595
    32  H    8.390781   5.266087   7.792470   6.658181   5.210527
    33  H    6.321294   2.334325   5.080958   3.328354   2.383563
                   31         32         33
    31  H    0.000000
    32  H    3.471830   0.000000
    33  H    4.284870   3.592589   0.000000
 Stoichiometry    H12O16Si4Zr
 Framework group  C1[X(H12O16Si4Zr)]
 Deg. of freedom    93
 Full point group                 C1      NOp   1
 Largest Abelian subgroup         C1      NOp   1
 Largest concise Abelian subgroup C1      NOp   1
                         Standard orientation:                         
 ---------------------------------------------------------------------
 Center     Atomic      Atomic             Coordinates (Angstroms)
 Number     Number       Type             X           Y           Z
 ---------------------------------------------------------------------
      1         40           0        0.637041   -0.289534   -0.213571
      2          8           0       -0.199861   -1.008544    1.388736
      3          8           0        0.312001    1.635852   -0.185755
      4          8           0       -0.500674   -0.992319   -1.671102
      5          8           0        2.516662   -0.822243   -0.412038
      6         14           0       -2.119882   -1.176267   -1.868752
      7         14           0       -0.752996    2.872643   -0.040239
      8         14           0       -1.660163   -1.034613    2.178461
      9         14           0        4.074660   -0.451430   -0.075635
     10          8           0        4.828724    0.424428   -1.253636
     11          8           0        4.972119   -1.835638    0.083299
     12          8           0        4.001703    0.474171    1.289914
     13          8           0       -2.445508   -2.429577    1.819378
     14          8           0       -2.523071    0.310312    1.711342
     15          8           0       -1.462416   -0.863705    3.797400
     16          8           0       -2.481260   -1.367243   -3.466515
     17          8           0       -2.913184    0.064055   -1.121771
     18          8           0       -2.685532   -2.511155   -1.053209
     19          8           0       -1.844797    2.588387   -1.289363
     20          8           0       -0.102795    4.358487   -0.318904
     21          8           0       -1.466690    2.901368    1.432018
     22          1           0        4.794119    0.970079    1.523956
     23          1           0        5.333673   -0.082113   -1.899774
     24          1           0        4.575522   -2.565610    0.571236
     25          1           0       -2.568722   -2.629745    0.874174
     26          1           0       -0.873479   -1.484060    4.239146
     27          1           0       -2.973658    0.204986    0.852245
     28          1           0        0.123396    4.874566    0.463313
     29          1           0       -1.858416    2.057414    1.738534
     30          1           0       -2.397904    3.342436   -1.529096
     31          1           0       -2.872454   -3.290947   -1.587841
     32          1           0       -1.784129   -1.150552   -4.095402
     33          1           0       -2.605614    0.977192   -1.319694
 ---------------------------------------------------------------------
 Rotational constants (GHZ):           0.2148490           0.1373913           0.1279001
 General basis read from cards:  (5D, 7F)
 ======================================================================================================
                                       Pseudopotential Parameters
 ======================================================================================================
  Center     Atomic      Valence      Angular      Power
  Number     Number     Electrons     Momentum     of R      Exponent        Coefficient   SO-Coeffient
 ======================================================================================================
    1         40           12
                                      G and up 
                                                     2        1.0000000        0.00000000    0.00000000
                                      S - G
                                                     2        8.6365280      150.24299400    0.00000000
                                                     2        3.7176390       18.78003600    0.00000000
                                      P - G
                                                     2        7.6267280       33.19279100    0.00000000
                                                     2        7.4532070       66.38903900    0.00000000
                                                     2        3.3583890        4.62072600    0.00000000
                                                     2        3.2297380        9.26027000    0.00000000
                                      D - G
                                                     2        5.9380860       13.99338300    0.00000000
                                                     2        5.8255440       20.99588200    0.00000000
                                                     2        2.2050190        2.28516600    0.00000000
                                                     2        2.2062920        3.44126000    0.00000000
                                      F - G
                                                     2        4.8002150       -5.23932000    0.00000000
                                                     2        4.7989920       -6.98742400    0.00000000
    2          8
                                   No pseudopotential on this center.
    3          8
                                   No pseudopotential on this center.
    4          8
                                   No pseudopotential on this center.
    5          8
                                   No pseudopotential on this center.
    6         14
                                   No pseudopotential on this center.
    7         14
                                   No pseudopotential on this center.
    8         14
                                   No pseudopotential on this center.
    9         14
                                   No pseudopotential on this center.
   10          8
                                   No pseudopotential on this center.
   11          8
                                   No pseudopotential on this center.
   12          8
                                   No pseudopotential on this center.
   13          8
                                   No pseudopotential on this center.
   14          8
                                   No pseudopotential on this center.
   15          8
                                   No pseudopotential on this center.
   16          8
                                   No pseudopotential on this center.
   17          8
                                   No pseudopotential on this center.
   18          8
                                   No pseudopotential on this center.
   19          8
                                   No pseudopotential on this center.
   20          8
                                   No pseudopotential on this center.
   21          8
                                   No pseudopotential on this center.
   22          1
                                   No pseudopotential on this center.
   23          1
                                   No pseudopotential on this center.
   24          1
                                   No pseudopotential on this center.
   25          1
                                   No pseudopotential on this center.
   26          1
                                   No pseudopotential on this center.
   27          1
                                   No pseudopotential on this center.
   28          1
                                   No pseudopotential on this center.
   29          1
                                   No pseudopotential on this center.
   30          1
                                   No pseudopotential on this center.
   31          1
                                   No pseudopotential on this center.
   32          1
                                   No pseudopotential on this center.
   33          1
                                   No pseudopotential on this center.
 ======================================================================================================
 There are   570 symmetry adapted cartesian basis functions of A   symmetry.
 There are   524 symmetry adapted basis functions of A   symmetry.
   524 basis functions,  1074 primitive gaussians,   570 cartesian basis functions
   104 alpha electrons      104 beta electrons
       nuclear repulsion energy      2849.3376157445 Hartrees.
 NAtoms=   33 NActive=   33 NUniq=   33 SFac= 1.00D+00 NAtFMM=   60 NAOKFM=F Big=F
 Integral buffers will be    131072 words long.
 Raffenetti 2 integral format.
 Two-electron integral symmetry is turned on.
 Nuclear repulsion after empirical dispersion term =     2849.2965339802 Hartrees.
 One-electron integrals computed using PRISM.
 PrsmSu:  requested number of processors reduced to:   4 ShMem   1 Linda.
   1 Symmetry operations used in ECPInt.
 ECPInt:  NShTT=   13203 NPrTT=   78401 LenC2=   11568 LenP2D=   44884.
 LDataN:  DoStor=T MaxTD1= 8 Len=  415
 Number of processors reduced to  13 by ecpmxn.
 NBasis=   524 RedAO= T EigKep=  3.01D-05  NBF=   524
 NBsUse=   524 1.00D-06 EigRej= -1.00D+00 NBFU=   524
 Defaulting to unpruned grid for atomic number  40.
 ExpMin= 1.01D-02 ExpMax= 1.61D+04 ExpMxC= 2.43D+03 IAcc=3 IRadAn=         5 AccDes= 0.00D+00
 Harris functional with IExCor=  402 and IRadAn=       5 diagonalized for initial guess.
 HarFok:  IExCor=  402 AccDes= 0.00D+00 IRadAn=         5 IDoV= 1 UseB2=F ITyADJ=14
 ICtDFT=  3500011 ScaDFX=  1.000000  1.000000  1.000000  1.000000
 Defaulting to unpruned grid for atomic number  40.
 FoFCou: FMM=F IPFlag=           0 FMFlag=      100000 FMFlg1=           0
         NFxFlg=           0 DoJE=T BraDBF=F KetDBF=T FulRan=T
         wScrn=  0.000000 ICntrl=       500 IOpCl=  0 I1Cent=   200000004 NGrid=           0
         NMat0=    1 NMatS0=      1 NMatT0=    0 NMatD0=    1 NMtDS0=    0 NMtDT0=    0
 Petite list used in FoFCou.
 Requested convergence on RMS density matrix=1.00D-08 within 128 cycles.
 Requested convergence on MAX density matrix=1.00D-06.
 Requested convergence on             energy=1.00D-06.
 No special actions if energy rises.
 Defaulting to unpruned grid for atomic number  40.
 Defaulting to unpruned grid for atomic number  40.
 Defaulting to unpruned grid for atomic number  40.
 Defaulting to unpruned grid for atomic number  40.
 Defaulting to unpruned grid for atomic number  40.
 Defaulting to unpruned grid for atomic number  40.
 Defaulting to unpruned grid for atomic number  40.
 Defaulting to unpruned grid for atomic number  40.
 Defaulting to unpruned grid for atomic number  40.
 Defaulting to unpruned grid for atomic number  40.
 Defaulting to unpruned grid for atomic number  40.
 Defaulting to unpruned grid for atomic number  40.
 Defaulting to unpruned grid for atomic number  40.
 Defaulting to unpruned grid for atomic number  40.
 Defaulting to unpruned grid for atomic number  40.
 Defaulting to unpruned grid for atomic number  40.
 SCF Done:  E(RB3LYP) =  -2416.94567435     A.U. after   14 cycles
            NFock= 14  Conv=0.35D-08     -V/T= 2.0184

 **********************************************************************

            Population analysis using the SCF Density.

 **********************************************************************

 Orbital symmetries:
       Occupied  (A) (A) (A) (A) (A) (A) (A) (A) (A) (A) (A) (A)
                 (A) (A) (A) (A) (A) (A) (A) (A) (A) (A) (A) (A)
                 (A) (A) (A) (A) (A) (A) (A) (A) (A) (A) (A) (A)
                 (A) (A) (A) (A) (A) (A) (A) (A) (A) (A) (A) (A)
                 (A) (A) (A) (A) (A) (A) (A) (A) (A) (A) (A) (A)
                 (A) (A) (A) (A) (A) (A) (A) (A) (A) (A) (A) (A)
                 (A) (A) (A) (A) (A) (A) (A) (A) (A) (A) (A) (A)
                 (A) (A) (A) (A) (A) (A) (A) (A) (A) (A) (A) (A)
                 (A) (A) (A) (A) (A) (A) (A) (A)
       Virtual   (A) (A) (A) (A) (A) (A) (A) (A) (A) (A) (A) (A)
                 (A) (A) (A) (A) (A) (A) (A) (A) (A) (A) (A) (A)
                 (A) (A) (A) (A) (A) (A) (A) (A) (A) (A) (A) (A)
                 (A) (A) (A) (A) (A) (A) (A) (A) (A) (A) (A) (A)
                 (A) (A) (A) (A) (A) (A) (A) (A) (A) (A) (A) (A)
                 (A) (A) (A) (A) (A) (A) (A) (A) (A) (A) (A) (A)
                 (A) (A) (A) (A) (A) (A) (A) (A) (A) (A) (A) (A)
                 (A) (A) (A) (A) (A) (A) (A) (A) (A) (A) (A) (A)
                 (A) (A) (A) (A) (A) (A) (A) (A) (A) (A) (A) (A)
                 (A) (A) (A) (A) (A) (A) (A) (A) (A) (A) (A) (A)
                 (A) (A) (A) (A) (A) (A) (A) (A) (A) (A) (A) (A)
                 (A) (A) (A) (A) (A) (A) (A) (A) (A) (A) (A) (A)
                 (A) (A) (A) (A) (A) (A) (A) (A) (A) (A) (A) (A)
                 (A) (A) (A) (A) (A) (A) (A) (A) (A) (A) (A) (A)
                 (A) (A) (A) (A) (A) (A) (A) (A) (A) (A) (A) (A)
                 (A) (A) (A) (A) (A) (A) (A) (A) (A) (A) (A) (A)
                 (A) (A) (A) (A) (A) (A) (A) (A) (A) (A) (A) (A)
                 (A) (A) (A) (A) (A) (A) (A) (A) (A) (A) (A) (A)
                 (A) (A) (A) (A) (A) (A) (A) (A) (A) (A) (A) (A)
                 (A) (A) (A) (A) (A) (A) (A) (A) (A) (A) (A) (A)
                 (A) (A) (A) (A) (A) (A) (A) (A) (A) (A) (A) (A)
                 (A) (A) (A) (A) (A) (A) (A) (A) (A) (A) (A) (A)
                 (A) (A) (A) (A) (A) (A) (A) (A) (A) (A) (A) (A)
                 (A) (A) (A) (A) (A) (A) (A) (A) (A) (A) (A) (A)
                 (A) (A) (A) (A) (A) (A) (A) (A) (A) (A) (A) (A)
                 (A) (A) (A) (A) (A) (A) (A) (A) (A) (A) (A) (A)
                 (A) (A) (A) (A) (A) (A) (A) (A) (A) (A) (A) (A)
                 (A) (A) (A) (A) (A) (A) (A) (A) (A) (A) (A) (A)
                 (A) (A) (A) (A) (A) (A) (A) (A) (A) (A) (A) (A)
                 (A) (A) (A) (A) (A) (A) (A) (A) (A) (A) (A) (A)
                 (A) (A) (A) (A) (A) (A) (A) (A) (A) (A) (A) (A)
                 (A) (A) (A) (A) (A) (A) (A) (A) (A) (A) (A) (A)
                 (A) (A) (A) (A) (A) (A) (A) (A) (A) (A) (A) (A)
                 (A) (A) (A) (A) (A) (A) (A) (A) (A) (A) (A) (A)
                 (A) (A) (A) (A) (A) (A) (A) (A) (A) (A) (A) (A)
 The electronic state is 1-A.
 Alpha  occ. eigenvalues --  -66.22709 -66.21692 -66.21663 -66.20929 -19.18450
 Alpha  occ. eigenvalues --  -19.18268 -19.17730 -19.16884 -19.16786 -19.16709
 Alpha  occ. eigenvalues --  -19.16651 -19.16640 -19.16092 -19.15920 -19.15904
 Alpha  occ. eigenvalues --  -19.15501 -19.15441 -19.15170 -19.14783 -19.14531
 Alpha  occ. eigenvalues --   -5.36768  -5.35789  -5.35743  -5.34986  -3.72754
 Alpha  occ. eigenvalues --   -3.72728  -3.72674  -3.71754  -3.71747  -3.71734
 Alpha  occ. eigenvalues --   -3.71713  -3.71688  -3.71653  -3.70967  -3.70948
 Alpha  occ. eigenvalues --   -3.70895  -2.13241  -1.29504  -1.29419  -1.29257
 Alpha  occ. eigenvalues --   -1.05568  -1.04685  -1.04448  -1.03426  -1.02463
 Alpha  occ. eigenvalues --   -1.02069  -1.01372  -1.01305  -1.01003  -1.00612
 Alpha  occ. eigenvalues --   -0.99727  -0.99253  -0.97372  -0.96209  -0.95740
 Alpha  occ. eigenvalues --   -0.95206  -0.60834  -0.59242  -0.59040  -0.58855
 Alpha  occ. eigenvalues --   -0.55489  -0.54442  -0.54178  -0.53322  -0.53013
 Alpha  occ. eigenvalues --   -0.52499  -0.51780  -0.50096  -0.48577  -0.47735
 Alpha  occ. eigenvalues --   -0.47402  -0.46938  -0.43322  -0.42772  -0.41757
 Alpha  occ. eigenvalues --   -0.41508  -0.41275  -0.40464  -0.39778  -0.39431
 Alpha  occ. eigenvalues --   -0.39004  -0.38814  -0.38606  -0.38136  -0.37973
 Alpha  occ. eigenvalues --   -0.37583  -0.37386  -0.37011  -0.36532  -0.36387
 Alpha  occ. eigenvalues --   -0.36164  -0.35864  -0.35388  -0.35304  -0.34894
 Alpha  occ. eigenvalues --   -0.34397  -0.34009  -0.33758  -0.33551  -0.33030
 Alpha  occ. eigenvalues --   -0.32722  -0.32247  -0.31923  -0.31216
 Alpha virt. eigenvalues --   -0.04350  -0.03063  -0.02975  -0.02914  -0.02016
 Alpha virt. eigenvalues --   -0.01286  -0.00461  -0.00152  -0.00052   0.00244
 Alpha virt. eigenvalues --    0.00726   0.00952   0.01080   0.01955   0.02218
 Alpha virt. eigenvalues --    0.02830   0.03313   0.03850   0.03900   0.04155
 Alpha virt. eigenvalues --    0.04464   0.04842   0.05847   0.06043   0.06142
 Alpha virt. eigenvalues --    0.06483   0.06863   0.07574   0.07704   0.08341
 Alpha virt. eigenvalues --    0.08644   0.08822   0.09187   0.09515   0.09952
 Alpha virt. eigenvalues --    0.10372   0.10712   0.10977   0.11114   0.11572
 Alpha virt. eigenvalues --    0.11908   0.12556   0.13067   0.13554   0.13674
 Alpha virt. eigenvalues --    0.14059   0.14183   0.14746   0.14967   0.15312
 Alpha virt. eigenvalues --    0.15599   0.15630   0.16268   0.16598   0.16912
 Alpha virt. eigenvalues --    0.17135   0.17420   0.17552   0.17742   0.18483
 Alpha virt. eigenvalues --    0.18657   0.18857   0.19155   0.19460   0.19694
 Alpha virt. eigenvalues --    0.20235   0.20388   0.20977   0.21282   0.21432
 Alpha virt. eigenvalues --    0.21672   0.21931   0.22373   0.22436   0.23270
 Alpha virt. eigenvalues --    0.23594   0.23950   0.24180   0.24544   0.24681
 Alpha virt. eigenvalues --    0.24966   0.25741   0.25913   0.26119   0.26158
 Alpha virt. eigenvalues --    0.26700   0.26817   0.26924   0.27284   0.27665
 Alpha virt. eigenvalues --    0.27941   0.28342   0.28618   0.28772   0.28945
 Alpha virt. eigenvalues --    0.29629   0.29985   0.30233   0.30580   0.30836
 Alpha virt. eigenvalues --    0.30937   0.31131   0.31761   0.32003   0.32474
 Alpha virt. eigenvalues --    0.32529   0.32949   0.33266   0.33723   0.34073
 Alpha virt. eigenvalues --    0.34428   0.35095   0.35324   0.36007   0.36596
 Alpha virt. eigenvalues --    0.37032   0.37680   0.38583   0.38887   0.39499
 Alpha virt. eigenvalues --    0.39829   0.40122   0.40317   0.41055   0.41255
 Alpha virt. eigenvalues --    0.41814   0.42340   0.43123   0.43891   0.44175
 Alpha virt. eigenvalues --    0.45112   0.46054   0.46181   0.46556   0.47022
 Alpha virt. eigenvalues --    0.47422   0.48542   0.48760   0.49389   0.49985
 Alpha virt. eigenvalues --    0.50175   0.50969   0.51676   0.52464   0.53656
 Alpha virt. eigenvalues --    0.53851   0.54543   0.55618   0.56349   0.57055
 Alpha virt. eigenvalues --    0.57361   0.58595   0.59137   0.60278   0.60440
 Alpha virt. eigenvalues --    0.60997   0.61671   0.62065   0.65384   0.66081
 Alpha virt. eigenvalues --    0.66550   0.66972   0.68155   0.68680   0.69307
 Alpha virt. eigenvalues --    0.70515   0.71657   0.72997   0.73326   0.74639
 Alpha virt. eigenvalues --    0.75622   0.77074   0.78162   0.78783   0.80027
 Alpha virt. eigenvalues --    0.80761   0.82089   0.83586   0.83787   0.85730
 Alpha virt. eigenvalues --    0.86487   0.87872   0.89907   0.90939   0.91198
 Alpha virt. eigenvalues --    0.93179   0.96026   0.96121   0.96883   0.97500
 Alpha virt. eigenvalues --    0.97799   0.98215   0.98905   0.99450   1.00146
 Alpha virt. eigenvalues --    1.00963   1.01129   1.01892   1.03493   1.03606
 Alpha virt. eigenvalues --    1.04489   1.04822   1.05537   1.07523   1.08047
 Alpha virt. eigenvalues --    1.09684   1.11892   1.15265   1.16300   1.16862
 Alpha virt. eigenvalues --    1.18829   1.19387   1.20168   1.20349   1.20866
 Alpha virt. eigenvalues --    1.21899   1.22172   1.22461   1.22676   1.23659
 Alpha virt. eigenvalues --    1.24222   1.24318   1.24414   1.25205   1.25546
 Alpha virt. eigenvalues --    1.26434   1.26654   1.27917   1.28009   1.28638
 Alpha virt. eigenvalues --    1.29532   1.29701   1.30474   1.31167   1.31735
 Alpha virt. eigenvalues --    1.31995   1.32631   1.33663   1.34353   1.35089
 Alpha virt. eigenvalues --    1.36003   1.36464   1.36803   1.37359   1.38296
 Alpha virt. eigenvalues --    1.39473   1.39804   1.40360   1.40899   1.41398
 Alpha virt. eigenvalues --    1.42087   1.42675   1.43818   1.44903   1.45644
 Alpha virt. eigenvalues --    1.47318   1.49300   1.50752   1.51760   1.52994
 Alpha virt. eigenvalues --    1.56449   1.56977   1.58548   1.59276   1.59368
 Alpha virt. eigenvalues --    1.60539   1.60901   1.61048   1.61983   1.63020
 Alpha virt. eigenvalues --    1.63560   1.64641   1.64866   1.66076   1.66332
 Alpha virt. eigenvalues --    1.67418   1.68221   1.68378   1.69801   1.70487
 Alpha virt. eigenvalues --    1.70893   1.71385   1.71528   1.72646   1.73334
 Alpha virt. eigenvalues --    1.74171   1.75152   1.75652   1.76454   1.76786
 Alpha virt. eigenvalues --    1.76875   1.77847   1.79217   1.79536   1.79868
 Alpha virt. eigenvalues --    1.80417   1.81065   1.82237   1.82530   1.83201
 Alpha virt. eigenvalues --    1.83734   1.84273   1.84855   1.86030   1.86584
 Alpha virt. eigenvalues --    1.87280   1.88054   1.89088   1.89845   1.90488
 Alpha virt. eigenvalues --    1.90946   1.92057   1.92873   1.93200   1.93620
 Alpha virt. eigenvalues --    1.94222   1.95075   1.96142   1.97360   1.97870
 Alpha virt. eigenvalues --    1.98670   2.00102   2.01049   2.03673   2.05373
 Alpha virt. eigenvalues --    2.06589   2.07871   2.09001   2.10399   2.10971
 Alpha virt. eigenvalues --    2.12044   2.13525   2.13901   2.15762   2.16061
 Alpha virt. eigenvalues --    2.16509   2.19905   2.20050   2.21999   2.27068
 Alpha virt. eigenvalues --    2.32064   2.33567   2.36525   2.39564   2.40153
 Alpha virt. eigenvalues --    2.40901   2.41472   2.42542   2.43131   2.43540
 Alpha virt. eigenvalues --    2.44196   2.45428   2.45979   2.48034   2.49200
 Alpha virt. eigenvalues --    2.49385   2.50439   2.50908   2.53050   2.53560
 Alpha virt. eigenvalues --    2.54692   2.57869   2.60060   2.60315   2.60869
 Alpha virt. eigenvalues --    2.61184   2.61540   2.61826   2.62283   2.62932
 Alpha virt. eigenvalues --    2.63379   2.63617   2.65062   2.65423   2.65701
 Alpha virt. eigenvalues --    2.66610   2.66708   2.67447   2.67874   2.68071
 Alpha virt. eigenvalues --    2.69539   2.71144   2.71315   2.72123   2.73421
 Alpha virt. eigenvalues --    2.74522   2.75647   2.76478   2.77730   2.78248
 Alpha virt. eigenvalues --    2.79656   2.80370   2.81634   2.83198   2.83623
 Alpha virt. eigenvalues --    2.83853   2.85337   2.86920   2.87877   2.88234
 Alpha virt. eigenvalues --    3.15815   3.24240   3.37204   3.39955   3.46354
 Alpha virt. eigenvalues --    3.47773   3.48813   3.49003   3.49137   3.51879
 Alpha virt. eigenvalues --    3.52795   3.54230   3.60043   3.61292   3.62198
 Alpha virt. eigenvalues --    3.65929   4.38020   4.92106   7.58571  31.19452
          Condensed to atoms (all electrons):
               1          2          3          4          5          6
     1  Zr  15.617855  -0.089850   0.003479  -0.177259  -0.099879  -0.792458
     2  O   -0.089850   8.844212   0.012301  -0.047343  -0.050699   0.073320
     3  O    0.003479   0.012301   8.847900   0.013014  -0.054535  -0.005736
     4  O   -0.177259  -0.047343   0.013014   8.861480  -0.067051  -0.769632
     5  O   -0.099879  -0.050699  -0.054535  -0.067051   9.230062  -0.002711
     6  Si  -0.792458   0.073320  -0.005736  -0.769632  -0.002711  14.275398
     7  Si  -0.632608  -0.015343  -0.912420  -0.013681  -0.030601   0.115215
     8  Si  -0.686261  -0.717478  -0.031857   0.077913  -0.009862   0.019785
     9  Si  -0.536731  -0.011672   0.022886   0.002215  -1.026548   0.064725
    10  O   -0.038948   0.000376  -0.002418  -0.000714   0.113751  -0.001171
    11  O   -0.137910   0.001465   0.002902   0.001892   0.324546   0.000168
    12  O    0.060301   0.001383   0.009002   0.001278   0.121579  -0.003493
    13  O    0.015659   0.265654   0.001226  -0.014143  -0.000560   0.018078
    14  O   -0.073084   0.243427  -0.018930  -0.003602  -0.000252   0.017914
    15  O   -0.065065   0.246873   0.000488   0.002505   0.000719  -0.001908
    16  O   -0.114842   0.005418  -0.000322   0.347569   0.002845  -0.454106
    17  O   -0.126877  -0.038308   0.008606   0.214882  -0.000359  -0.428803
    18  O   -0.053749  -0.020484   0.003357   0.227034  -0.001211  -0.489141
    19  O    0.000258   0.007864   0.283920   0.015123   0.002272  -0.008530
    20  O   -0.135643  -0.000821   0.147009  -0.000462   0.000935   0.010543
    21  O    0.045526   0.011046   0.164148   0.004320   0.000879  -0.018660
    22  H   -0.016366   0.000018   0.000163  -0.000000   0.004641   0.000180
    23  H   -0.006100  -0.000009   0.000002  -0.000029  -0.023960   0.000122
    24  H   -0.007654  -0.000030   0.000012   0.000012  -0.001931   0.000112
    25  H    0.019243  -0.021610  -0.000118  -0.001396  -0.000014   0.001840
    26  H   -0.007951  -0.012286   0.000012  -0.000013  -0.000020   0.000093
    27  H    0.013753  -0.020992   0.000766  -0.001527   0.000041   0.008420
    28  H    0.004184  -0.000012  -0.017371  -0.000014  -0.000007  -0.000315
    29  H   -0.000573  -0.005001  -0.019594  -0.000197  -0.000050   0.000635
    30  H   -0.000159  -0.000009  -0.000193  -0.000527  -0.000007  -0.000768
    31  H    0.004234   0.000288  -0.000022  -0.018625  -0.000017   0.062025
    32  H    0.003012  -0.000031   0.000036   0.011589   0.000014   0.018225
    33  H   -0.017727   0.000950  -0.010677  -0.009616  -0.000061   0.054738
               7          8          9         10         11         12
     1  Zr  -0.632608  -0.686261  -0.536731  -0.038948  -0.137910   0.060301
     2  O   -0.015343  -0.717478  -0.011672   0.000376   0.001465   0.001383
     3  O   -0.912420  -0.031857   0.022886  -0.002418   0.002902   0.009002
     4  O   -0.013681   0.077913   0.002215  -0.000714   0.001892   0.001278
     5  O   -0.030601  -0.009862  -1.026548   0.113751   0.324546   0.121579
     6  Si   0.115215   0.019785   0.064725  -0.001171   0.000168  -0.003493
     7  Si  13.823026   0.179457   0.035172   0.001885  -0.000571   0.002098
     8  Si   0.179457  13.693158   0.049094  -0.001619   0.002634  -0.004122
     9  Si   0.035172   0.049094  13.907665  -0.003431  -0.176222  -0.224605
    10  O    0.001885  -0.001619  -0.003431   8.532475  -0.021477   0.053961
    11  O   -0.000571   0.002634  -0.176222  -0.021477   8.602120  -0.054296
    12  O    0.002098  -0.004122  -0.224605   0.053961  -0.054296   8.631487
    13  O    0.001640  -0.155792  -0.001884  -0.000002   0.000020  -0.000053
    14  O    0.026018  -0.470371   0.000312  -0.000001   0.000009   0.000069
    15  O   -0.001892  -0.374075  -0.000290   0.000002  -0.000025   0.000137
    16  O    0.003751  -0.011150  -0.001782   0.000007  -0.000007  -0.000000
    17  O    0.004444   0.107160   0.004334   0.000009   0.000006  -0.000014
    18  O   -0.002477   0.085619   0.003930   0.000007   0.000004   0.000004
    19  O   -0.448260  -0.018791   0.000964   0.000002   0.000002  -0.000133
    20  O   -0.090139   0.009249   0.004073   0.000077  -0.000001  -0.000102
    21  O    0.003525  -0.050086  -0.003127  -0.000007   0.000006  -0.000074
    22  H    0.000111   0.000262   0.054061  -0.004451  -0.004749   0.222630
    23  H   -0.000037   0.000053   0.073819   0.232582  -0.004927   0.005278
    24  H    0.000050   0.000185   0.040426   0.007737   0.235130  -0.006703
    25  H   -0.000253   0.054698  -0.000191   0.000000   0.000000   0.000000
    26  H    0.000547   0.064292  -0.000459   0.000000   0.000000  -0.000007
    27  H   -0.000540   0.073758  -0.000053   0.000000  -0.000000   0.000001
    28  H    0.055751   0.000086  -0.000170  -0.000000  -0.000000  -0.000008
    29  H    0.048536   0.023233  -0.000064   0.000000  -0.000000   0.000000
    30  H    0.043776   0.000204  -0.000005  -0.000000  -0.000000   0.000000
    31  H    0.000097  -0.003181  -0.000061  -0.000000  -0.000000   0.000000
    32  H   -0.000644   0.000176  -0.000041  -0.000000   0.000000  -0.000000
    33  H    0.021866   0.000211   0.000122  -0.000000  -0.000000   0.000000
              13         14         15         16         17         18
     1  Zr   0.015659  -0.073084  -0.065065  -0.114842  -0.126877  -0.053749
     2  O    0.265654   0.243427   0.246873   0.005418  -0.038308  -0.020484
     3  O    0.001226  -0.018930   0.000488  -0.000322   0.008606   0.003357
     4  O   -0.014143  -0.003602   0.002505   0.347569   0.214882   0.227034
     5  O   -0.000560  -0.000252   0.000719   0.002845  -0.000359  -0.001211
     6  Si   0.018078   0.017914  -0.001908  -0.454106  -0.428803  -0.489141
     7  Si   0.001640   0.026018  -0.001892   0.003751   0.004444  -0.002477
     8  Si  -0.155792  -0.470371  -0.374075  -0.011150   0.107160   0.085619
     9  Si  -0.001884   0.000312  -0.000290  -0.001782   0.004334   0.003930
    10  O   -0.000002  -0.000001   0.000002   0.000007   0.000009   0.000007
    11  O    0.000020   0.000009  -0.000025  -0.000007   0.000006   0.000004
    12  O   -0.000053   0.000069   0.000137  -0.000000  -0.000014   0.000004
    13  O    8.643486   0.023540  -0.118894   0.003999  -0.028705  -0.042648
    14  O    0.023540   8.812221   0.155560   0.002365  -0.027410  -0.022927
    15  O   -0.118894   0.155560   8.786107  -0.000166   0.003918   0.001232
    16  O    0.003999   0.002365  -0.000166   8.907342  -0.097241  -0.100510
    17  O   -0.028705  -0.027410   0.003918  -0.097241   8.942654   0.226629
    18  O   -0.042648  -0.022927   0.001232  -0.100510   0.226629   9.041424
    19  O    0.000236   0.001151   0.000337  -0.000847  -0.030289   0.000150
    20  O    0.000008  -0.001229   0.000001   0.000035  -0.000920   0.000021
    21  O   -0.000391   0.025489   0.000757  -0.000154  -0.006073   0.000397
    22  H   -0.000000   0.000000   0.000001  -0.000000   0.000000  -0.000000
    23  H    0.000000  -0.000000   0.000000  -0.000000   0.000000   0.000000
    24  H   -0.000000   0.000000   0.000001   0.000000  -0.000000  -0.000000
    25  H    0.217412  -0.009169   0.007448  -0.000273   0.000556   0.015109
    26  H   -0.006671   0.001061   0.225439   0.000000  -0.000023   0.000007
    27  H   -0.004555   0.206213   0.000074   0.000327   0.017466  -0.000878
    28  H    0.000000  -0.000003  -0.000001   0.000000   0.000003   0.000000
    29  H    0.000776   0.014468  -0.001348  -0.000004  -0.000672  -0.000002
    30  H    0.000001   0.000012   0.000001   0.000106  -0.000433  -0.000010
    31  H    0.002284   0.000081  -0.000019   0.005057  -0.001273   0.215235
    32  H   -0.000007  -0.000007   0.000000   0.236526  -0.003431   0.003914
    33  H    0.000254   0.002102  -0.000057   0.000253   0.230153   0.002195
              19         20         21         22         23         24
     1  Zr   0.000258  -0.135643   0.045526  -0.016366  -0.006100  -0.007654
     2  O    0.007864  -0.000821   0.011046   0.000018  -0.000009  -0.000030
     3  O    0.283920   0.147009   0.164148   0.000163   0.000002   0.000012
     4  O    0.015123  -0.000462   0.004320  -0.000000  -0.000029   0.000012
     5  O    0.002272   0.000935   0.000879   0.004641  -0.023960  -0.001931
     6  Si  -0.008530   0.010543  -0.018660   0.000180   0.000122   0.000112
     7  Si  -0.448260  -0.090139   0.003525   0.000111  -0.000037   0.000050
     8  Si  -0.018791   0.009249  -0.050086   0.000262   0.000053   0.000185
     9  Si   0.000964   0.004073  -0.003127   0.054061   0.073819   0.040426
    10  O    0.000002   0.000077  -0.000007  -0.004451   0.232582   0.007737
    11  O    0.000002  -0.000001   0.000006  -0.004749  -0.004927   0.235130
    12  O   -0.000133  -0.000102  -0.000074   0.222630   0.005278  -0.006703
    13  O    0.000236   0.000008  -0.000391  -0.000000   0.000000  -0.000000
    14  O    0.001151  -0.001229   0.025489   0.000000  -0.000000   0.000000
    15  O    0.000337   0.000001   0.000757   0.000001   0.000000   0.000001
    16  O   -0.000847   0.000035  -0.000154  -0.000000  -0.000000   0.000000
    17  O   -0.030289  -0.000920  -0.006073   0.000000   0.000000  -0.000000
    18  O    0.000150   0.000021   0.000397  -0.000000   0.000000  -0.000000
    19  O    8.892111   0.033511   0.027270  -0.000000   0.000000  -0.000000
    20  O    0.033511   8.651188  -0.056120   0.000000   0.000000  -0.000000
    21  O    0.027270  -0.056120   8.490065  -0.000003   0.000000   0.000000
    22  H   -0.000000   0.000000  -0.000003   0.350937   0.000049   0.000109
    23  H    0.000000   0.000000   0.000000   0.000049   0.350555   0.000028
    24  H   -0.000000  -0.000000   0.000000   0.000109   0.000028   0.368615
    25  H   -0.000033   0.000000  -0.000010   0.000000   0.000000   0.000000
    26  H    0.000000  -0.000000   0.000047  -0.000000  -0.000000  -0.000000
    27  H   -0.000222   0.000226  -0.004744  -0.000000  -0.000000   0.000000
    28  H    0.004349   0.228850  -0.001428  -0.000000   0.000000  -0.000000
    29  H   -0.008538   0.008130   0.208587   0.000000  -0.000000  -0.000000
    30  H    0.222373  -0.001630  -0.007449   0.000000  -0.000000  -0.000000
    31  H    0.000002  -0.000000  -0.000000  -0.000000   0.000000   0.000000
    32  H    0.000086   0.000000   0.000001   0.000000  -0.000000  -0.000000
    33  H    0.013128  -0.000023   0.001332  -0.000000  -0.000000   0.000000
              25         26         27         28         29         30
     1  Zr   0.019243  -0.007951   0.013753   0.004184  -0.000573  -0.000159
     2  O   -0.021610  -0.012286  -0.020992  -0.000012  -0.005001  -0.000009
     3  O   -0.000118   0.000012   0.000766  -0.017371  -0.019594  -0.000193
     4  O   -0.001396  -0.000013  -0.001527  -0.000014  -0.000197  -0.000527
     5  O   -0.000014  -0.000020   0.000041  -0.000007  -0.000050  -0.000007
     6  Si   0.001840   0.000093   0.008420  -0.000315   0.000635  -0.000768
     7  Si  -0.000253   0.000547  -0.000540   0.055751   0.048536   0.043776
     8  Si   0.054698   0.064292   0.073758   0.000086   0.023233   0.000204
     9  Si  -0.000191  -0.000459  -0.000053  -0.000170  -0.000064  -0.000005
    10  O    0.000000   0.000000   0.000000  -0.000000   0.000000  -0.000000
    11  O    0.000000   0.000000  -0.000000  -0.000000  -0.000000  -0.000000
    12  O    0.000000  -0.000007   0.000001  -0.000008   0.000000   0.000000
    13  O    0.217412  -0.006671  -0.004555   0.000000   0.000776   0.000001
    14  O   -0.009169   0.001061   0.206213  -0.000003   0.014468   0.000012
    15  O    0.007448   0.225439   0.000074  -0.000001  -0.001348   0.000001
    16  O   -0.000273   0.000000   0.000327   0.000000  -0.000004   0.000106
    17  O    0.000556  -0.000023   0.017466   0.000003  -0.000672  -0.000433
    18  O    0.015109   0.000007  -0.000878   0.000000  -0.000002  -0.000010
    19  O   -0.000033   0.000000  -0.000222   0.004349  -0.008538   0.222373
    20  O    0.000000  -0.000000   0.000226   0.228850   0.008130  -0.001630
    21  O   -0.000010   0.000047  -0.004744  -0.001428   0.208587  -0.007449
    22  H    0.000000  -0.000000  -0.000000  -0.000000   0.000000   0.000000
    23  H    0.000000  -0.000000  -0.000000   0.000000  -0.000000  -0.000000
    24  H    0.000000  -0.000000   0.000000  -0.000000  -0.000000  -0.000000
    25  H    0.301498  -0.000030   0.000019   0.000000   0.000001   0.000000
    26  H   -0.000030   0.369434  -0.000036   0.000000   0.000017  -0.000000
    27  H    0.000019  -0.000036   0.284957  -0.000000  -0.001014   0.000005
    28  H    0.000000   0.000000  -0.000000   0.349701  -0.000019  -0.000010
    29  H    0.000001   0.000017  -0.001014  -0.000019   0.285902   0.000167
    30  H    0.000000  -0.000000   0.000005  -0.000010   0.000167   0.334962
    31  H   -0.000161   0.000000   0.000014   0.000000   0.000000  -0.000000
    32  H   -0.000001  -0.000000  -0.000000   0.000000  -0.000000  -0.000000
    33  H    0.000005   0.000000  -0.002442  -0.000002   0.000131  -0.001037
              31         32         33
     1  Zr   0.004234   0.003012  -0.017727
     2  O    0.000288  -0.000031   0.000950
     3  O   -0.000022   0.000036  -0.010677
     4  O   -0.018625   0.011589  -0.009616
     5  O   -0.000017   0.000014  -0.000061
     6  Si   0.062025   0.018225   0.054738
     7  Si   0.000097  -0.000644   0.021866
     8  Si  -0.003181   0.000176   0.000211
     9  Si  -0.000061  -0.000041   0.000122
    10  O   -0.000000  -0.000000  -0.000000
    11  O   -0.000000   0.000000  -0.000000
    12  O    0.000000  -0.000000   0.000000
    13  O    0.002284  -0.000007   0.000254
    14  O    0.000081  -0.000007   0.002102
    15  O   -0.000019   0.000000  -0.000057
    16  O    0.005057   0.236526   0.000253
    17  O   -0.001273  -0.003431   0.230153
    18  O    0.215235   0.003914   0.002195
    19  O    0.000002   0.000086   0.013128
    20  O   -0.000000   0.000000  -0.000023
    21  O   -0.000000   0.000001   0.001332
    22  H   -0.000000   0.000000  -0.000000
    23  H    0.000000  -0.000000  -0.000000
    24  H    0.000000  -0.000000   0.000000
    25  H   -0.000161  -0.000001   0.000005
    26  H    0.000000  -0.000000   0.000000
    27  H    0.000014  -0.000000  -0.002442
    28  H    0.000000   0.000000  -0.000002
    29  H    0.000000  -0.000000   0.000131
    30  H   -0.000000  -0.000000  -0.001037
    31  H    0.327614  -0.000011  -0.000037
    32  H   -0.000011   0.348973   0.000148
    33  H   -0.000037   0.000148   0.270846
 Mulliken charges:
               1
     1  Zr   0.030190
     2  O   -0.662616
     3  O   -0.447036
     4  O   -0.654999
     5  O   -0.431944
     6  Si   2.235895
     7  Si   1.782499
     8  Si   2.093418
     9  Si   1.723538
    10  O   -0.868634
    11  O   -0.770721
    12  O   -0.815598
    13  O   -0.819967
    14  O   -0.905028
    15  O   -0.867860
    16  O   -0.734198
    17  O   -0.969988
    18  O   -1.092228
    19  O   -0.989467
    20  O   -0.806766
    21  O   -0.835069
    22  H    0.392406
    23  H    0.372572
    24  H    0.363903
    25  H    0.415429
    26  H    0.366544
    27  H    0.430965
    28  H    0.376438
    29  H    0.446495
    30  H    0.410632
    31  H    0.406479
    32  H    0.381473
    33  H    0.443244
 Sum of Mulliken charges =  -0.00000
 Mulliken charges with hydrogens summed into heavy atoms:
               1
     1  Zr   0.030190
     2  O   -0.662616
     3  O   -0.447036
     4  O   -0.654999
     5  O   -0.431944
     6  Si   2.235895
     7  Si   1.782499
     8  Si   2.093418
     9  Si   1.723538
    10  O   -0.496062
    11  O   -0.406818
    12  O   -0.423192
    13  O   -0.404538
    14  O   -0.474062
    15  O   -0.501316
    16  O   -0.352725
    17  O   -0.526744
    18  O   -0.685749
    19  O   -0.578835
    20  O   -0.430329
    21  O   -0.388574
 Electronic spatial extent (au):  <R**2>=           9627.2626
 Charge=             -0.0000 electrons
 Dipole moment (field-independent basis, Debye):
    X=              3.0145    Y=             -1.4460    Z=             -3.0571  Tot=              4.5303
 Quadrupole moment (field-independent basis, Debye-Ang):
   XX=           -166.0206   YY=           -150.9189   ZZ=           -159.2866
   XY=             -5.0986   XZ=             13.6846   YZ=              2.3670
 Traceless Quadrupole moment (field-independent basis, Debye-Ang):
   XX=             -7.2786   YY=              7.8232   ZZ=             -0.5446
   XY=             -5.0986   XZ=             13.6846   YZ=              2.3670
 Octapole moment (field-independent basis, Debye-Ang**2):
  XXX=             85.2004  YYY=             -7.2084  ZZZ=            -46.6680  XYY=             -6.0588
  XXY=             21.1405  XXZ=            -19.8222  XZZ=             62.1630  YZZ=            -27.3953
  YYZ=             -1.3203  XYZ=              8.9747
 Hexadecapole moment (field-independent basis, Debye-Ang**3):
 XXXX=          -5996.1766 YYYY=          -2737.7749 ZZZZ=          -2274.1109 XXXY=             32.4105
 XXXZ=             34.6070 YYYX=            -18.9128 YYYZ=            142.3761 ZZZX=             48.0246
 ZZZY=            -87.2305 XXYY=          -1426.7162 XXZZ=          -1442.0311 YYZZ=           -902.2775
 XXYZ=             43.9757 YYXZ=            206.5233 ZZXY=            -45.4654
 N-N= 2.849296533980D+03 E-N=-1.141123828679D+04  KE= 2.373164674145D+03
 PrsmSu:  requested number of processors reduced to:   2 ShMem   1 Linda.
 PrsmSu:  requested number of processors reduced to:  10 ShMem   1 Linda.
   1 Symmetry operations used in ECPInt.
 ECPInt:  NShTT=   13203 NPrTT=   78401 LenC2=   11568 LenP2D=   44884.
 LDataN:  DoStor=T MaxTD1= 9 Len=  602
 Number of processors reduced to  14 by ecpmxn.
 Calling FoFJK, ICntrl=      2127 FMM=F ISym2X=0 I1Cent= 0 IOpClX= 0 NMat=1 NMatS=1 NMatT=0.
 CoulSu:  requested number of processors reduced to:  10 ShMem   1 Linda.
 Defaulting to unpruned grid for atomic number  40.
 Defaulting to unpruned grid for atomic number  40.
 Defaulting to unpruned grid for atomic number  40.
 Defaulting to unpruned grid for atomic number  40.
 Defaulting to unpruned grid for atomic number  40.
 Defaulting to unpruned grid for atomic number  40.
 Defaulting to unpruned grid for atomic number  40.
 Defaulting to unpruned grid for atomic number  40.
 Defaulting to unpruned grid for atomic number  40.
 Defaulting to unpruned grid for atomic number  40.
 Defaulting to unpruned grid for atomic number  40.
 Defaulting to unpruned grid for atomic number  40.
 Defaulting to unpruned grid for atomic number  40.
 Defaulting to unpruned grid for atomic number  40.
 Defaulting to unpruned grid for atomic number  40.
 Defaulting to unpruned grid for atomic number  40.
 ***** Axes restored to original set *****
 -------------------------------------------------------------------
 Center     Atomic                   Forces (Hartrees/Bohr)
 Number     Number              X              Y              Z
 -------------------------------------------------------------------
      1       40          -0.003021386    0.000441683    0.000198023
      2        8          -0.000057272   -0.000144925    0.000114979
      3        8          -0.000137306   -0.000079416   -0.000127314
      4        8           0.000040481   -0.000103046   -0.000068286
      5        8           0.001409626    0.000822636    0.000446670
      6       14           0.000137467   -0.000007491    0.000099843
      7       14           0.000152626   -0.000224007    0.000055707
      8       14           0.000270025    0.000031550   -0.000161154
      9       14           0.002293850   -0.001964016   -0.001451487
     10        8          -0.000079317    0.000205772    0.000315878
     11        8          -0.000118529    0.000391374    0.000227607
     12        8          -0.000450659    0.000333856    0.000323685
     13        8          -0.000082753   -0.000021964    0.000032247
     14        8          -0.000053453    0.000020963    0.000003898
     15        8          -0.000047917   -0.000012959    0.000082137
     16        8          -0.000042780   -0.000003186   -0.000040935
     17        8          -0.000017109    0.000026256   -0.000023070
     18        8          -0.000044989   -0.000004475   -0.000020578
     19        8          -0.000013768    0.000054855   -0.000012041
     20        8           0.000007866    0.000098119   -0.000013761
     21        8          -0.000037690    0.000056560   -0.000018903
     22        1          -0.000126524    0.000229299    0.000158845
     23        1          -0.000031393   -0.000011587   -0.000021692
     24        1          -0.000066264   -0.000090851   -0.000097688
     25        1           0.000020160    0.000000712    0.000001078
     26        1           0.000002195    0.000018114   -0.000037348
     27        1           0.000034860    0.000013988    0.000005093
     28        1          -0.000010938   -0.000042347   -0.000009261
     29        1          -0.000008243   -0.000016786    0.000025056
     30        1          -0.000003425   -0.000005139   -0.000004446
     31        1           0.000022156    0.000008273    0.000004738
     32        1           0.000018946   -0.000005488    0.000008083
     33        1           0.000041458   -0.000016327    0.000004397
 -------------------------------------------------------------------
 Cartesian Forces:  Max     0.003021386 RMS     0.000499637

 GradGradGradGradGradGradGradGradGradGradGradGradGradGradGradGradGradGrad
 Berny optimization.
 FormGI is forming the generalized inverse of G from B-inverse, IUseBI=4.
 Internal  Forces:  Max     0.002794643 RMS     0.000356747
 Search for a local minimum.
 Step number   1 out of a maximum of  148
 All quantities printed in internal units (Hartrees-Bohrs-Radians)
 Mixed Optimization -- En-DIIS/RFO-DIIS
 Second derivative matrix not updated -- first step.
 ITU=  0
     Eigenvalues ---    0.00230   0.00230   0.00230   0.00230   0.03239
     Eigenvalues ---    0.03482   0.03500   0.03541   0.03581   0.03661
     Eigenvalues ---    0.03665   0.03674   0.03688   0.03735   0.03789
     Eigenvalues ---    0.03802   0.03811   0.03828   0.03857   0.03858
     Eigenvalues ---    0.08414   0.09469   0.11097   0.11247   0.11629
     Eigenvalues ---    0.11809   0.11979   0.12096   0.12205   0.12217
     Eigenvalues ---    0.12600   0.12707   0.12970   0.13105   0.13263
     Eigenvalues ---    0.16000   0.16000   0.16000   0.16000   0.16000
     Eigenvalues ---    0.16000   0.16000   0.16000   0.16000   0.16000
     Eigenvalues ---    0.16000   0.16000   0.19184   0.19894   0.19953
     Eigenvalues ---    0.20035   0.20159   0.20200   0.20253   0.20422
     Eigenvalues ---    0.20563   0.20992   0.21009   0.21136   0.21189
     Eigenvalues ---    0.21280   0.25000   0.25000   0.25000   0.37992
     Eigenvalues ---    0.40480   0.40678   0.41116   0.41559   0.42453
     Eigenvalues ---    0.42502   0.42607   0.42768   0.43316   0.43953
     Eigenvalues ---    0.44102   0.44216   0.44422   0.44767   0.44782
     Eigenvalues ---    0.50680   0.51458   0.52211   0.52570   0.54329
     Eigenvalues ---    0.54614   0.54649   0.54671   0.54695   0.54715
     Eigenvalues ---    0.54739   0.548931000.000001000.000001000.00000
     Eigenvalues --- 1000.000001000.000001000.000001000.000001000.00000
     Eigenvalues --- 1000.000001000.000001000.000001000.000001000.00000
     Eigenvalues --- 1000.000001000.000001000.000001000.000001000.00000
     Eigenvalues --- 1000.000001000.000001000.000001000.000001000.00000
     Eigenvalues --- 1000.000001000.000001000.000001000.000001000.00000
     Eigenvalues --- 1000.000001000.000001000.000001000.000001000.00000
     Eigenvalues --- 1000.000001000.000001000.000001000.000001000.00000
     Eigenvalues --- 1000.000001000.000001000.000001000.000001000.00000
     Eigenvalues --- 1000.000001000.000001000.00000
 RFO step:  Lambda=-9.31187576D-05 EMin= 2.30000000D-03
 Linear search not attempted -- first point.
 Iteration  1 RMS(Cart)=  0.04417173 RMS(Int)=  0.00058122
 Iteration  2 RMS(Cart)=  0.00096889 RMS(Int)=  0.00000165
 Iteration  3 RMS(Cart)=  0.00000040 RMS(Int)=  0.00000164
 Iteration  1 RMS(Cart)=  0.00000000 RMS(Int)=  0.00000000
 Variable       Old X    -DE/DX   Delta X   Delta X   Delta X     New X
                                 (Linear)    (Quad)   (Total)
    R1        3.67636   0.00003   0.00000   0.00016   0.00016   3.67652
    R2        3.69031  -0.00014   0.00000  -0.00067  -0.00067   3.68964
    R3        3.73798  -0.00001   0.00000  -0.00006  -0.00006   3.73792
    R4        3.71087   0.00279   0.00000   0.01400   0.01400   3.72487
    R5        3.13764  -0.00016   0.00000  -0.00040  -0.00040   3.13724
    R6        3.09653  -0.00012   0.00000  -0.00027  -0.00027   3.09626
    R7        3.10211  -0.00011   0.00000  -0.00025  -0.00025   3.10186
    R8        3.09248   0.00090   0.00000   0.00202   0.00202   3.09449
    R9        3.11657   0.00004   0.00000   0.00009   0.00009   3.11665
   R10        3.11988  -0.00001   0.00000  -0.00003  -0.00003   3.11986
   R11        3.14342  -0.00000   0.00000  -0.00001  -0.00001   3.14341
   R12        3.18077   0.00001   0.00000   0.00002   0.00002   3.18080
   R13        3.10982   0.00006   0.00000   0.00013   0.00013   3.10995
   R14        3.09230   0.00003   0.00000   0.00006   0.00006   3.09236
   R15        3.10032   0.00004   0.00000   0.00008   0.00008   3.10040
   R16        3.14606   0.00003   0.00000   0.00008   0.00008   3.14614
   R17        3.09896   0.00004   0.00000   0.00010   0.00010   3.09906
   R18        3.11858  -0.00015   0.00000  -0.00036  -0.00036   3.11822
   R19        3.13189  -0.00033   0.00000  -0.00079  -0.00079   3.13110
   R20        3.12050   0.00078   0.00000   0.00184   0.00184   3.12234
   R21        1.82146   0.00000   0.00000   0.00000   0.00000   1.82146
   R22        1.82065   0.00005   0.00000   0.00008   0.00008   1.82073
   R23        1.82104   0.00008   0.00000   0.00014   0.00014   1.82118
   R24        1.84058  -0.00000   0.00000  -0.00001  -0.00001   1.84057
   R25        1.84398  -0.00002   0.00000  -0.00004  -0.00004   1.84394
   R26        1.81928  -0.00003   0.00000  -0.00005  -0.00005   1.81923
   R27        1.82086   0.00001   0.00000   0.00001   0.00001   1.82087
   R28        1.85885  -0.00001   0.00000  -0.00001  -0.00001   1.85884
   R29        1.82126  -0.00001   0.00000  -0.00002  -0.00002   1.82123
   R30        1.82433  -0.00000   0.00000  -0.00000  -0.00000   1.82433
   R31        1.82176  -0.00003   0.00000  -0.00006  -0.00006   1.82170
   R32        1.85122   0.00003   0.00000   0.00005   0.00005   1.85127
    A1        1.85569   0.00006   0.00000   0.00101   0.00101   1.85671
    A2        1.80097   0.00009   0.00000   0.00018   0.00018   1.80115
    A3        1.97659  -0.00005   0.00000  -0.00022  -0.00022   1.97637
    A4        1.83906   0.00003   0.00000   0.00013   0.00013   1.83919
    A5        2.01332   0.00013   0.00000   0.00089   0.00089   2.01422
    A6        1.96025  -0.00025   0.00000  -0.00195  -0.00195   1.95831
    A7        2.45892  -0.00018   0.00000  -0.00071  -0.00071   2.45822
    A8        2.59369   0.00013   0.00000   0.00052   0.00052   2.59421
    A9        2.34042  -0.00007   0.00000  -0.00030  -0.00030   2.34012
   A10        2.54818   0.00217   0.00000   0.00000   0.00000   2.54818
   A11        1.92384   0.00001   0.00000  -0.00001  -0.00001   1.92383
   A12        1.91272  -0.00007   0.00000  -0.00040  -0.00040   1.91232
   A13        1.94584   0.00006   0.00000   0.00043   0.00043   1.94626
   A14        2.00429   0.00000   0.00000  -0.00010  -0.00010   2.00418
   A15        1.88341  -0.00003   0.00000  -0.00005  -0.00005   1.88336
   A16        1.79022   0.00003   0.00000   0.00019   0.00019   1.79040
   A17        1.80104   0.00003   0.00000   0.00026   0.00026   1.80130
   A18        1.99287  -0.00001   0.00000  -0.00007  -0.00007   1.99280
[...]
 Alpha virt. eigenvalues --    3.16215   3.24630   3.37435   3.39525   3.46567
 Alpha virt. eigenvalues --    3.47790   3.48808   3.49036   3.49197   3.52536
 Alpha virt. eigenvalues --    3.52675   3.54243   3.59934   3.61294   3.62184
 Alpha virt. eigenvalues --    3.65848   4.38710   4.96584   7.52861  31.19032
          Condensed to atoms (all electrons):
               1          2          3          4          5          6
     1  Zr  15.374618  -0.071992   0.003191  -0.128756  -0.079583  -0.812887
     2  O   -0.071992   8.851887   0.011968  -0.053525  -0.051022   0.064064
     3  O    0.003191   0.011968   8.847127   0.012104  -0.052432  -0.001712
     4  O   -0.128756  -0.053525   0.012104   8.853007  -0.064544  -0.781966
     5  O   -0.079583  -0.051022  -0.052432  -0.064544   9.186850  -0.001233
     6  Si  -0.812887   0.064064  -0.001712  -0.781966  -0.001233  14.313108
     7  Si  -0.599969  -0.016027  -0.893469  -0.022371  -0.030782   0.115873
     8  Si  -0.617367  -0.739189  -0.030121   0.070607  -0.010339   0.027956
     9  Si  -0.495110  -0.009276   0.011732   0.002129  -0.969969   0.061228
    10  O   -0.056208   0.000460  -0.002768  -0.000655   0.114116  -0.000285
    11  O   -0.125333   0.000585   0.003128   0.002025   0.310799  -0.000288
    12  O    0.037799   0.003305   0.007074   0.001423   0.121791  -0.002778
    13  O    0.025242   0.271674   0.001066  -0.015019  -0.000192   0.015515
    14  O   -0.080578   0.243967  -0.019441  -0.003863  -0.000219   0.019627
    15  O   -0.074910   0.255947   0.000566   0.002561   0.000631   0.000374
    16  O   -0.117371   0.005589  -0.000551   0.346570   0.002778  -0.443902
    17  O   -0.108023  -0.037647   0.010053   0.212594  -0.000220  -0.439446
    18  O   -0.041699  -0.021030   0.003338   0.223645  -0.000943  -0.493084
    19  O    0.007570   0.007654   0.284706   0.015761   0.002535  -0.010104
    20  O   -0.138524  -0.000800   0.147290  -0.000445   0.001070   0.011526
    21  O    0.049751   0.010438   0.158045   0.004549   0.000777  -0.018785
    22  H   -0.012442  -0.000017   0.000122  -0.000001   0.003887   0.000165
    23  H   -0.004268  -0.000010  -0.000002  -0.000020  -0.023701   0.000099
    24  H   -0.004965  -0.000076   0.000004   0.000007  -0.000416   0.000109
    25  H    0.018412  -0.022262  -0.000112  -0.001171  -0.000022   0.001355
    26  H   -0.008237  -0.010480   0.000015  -0.000014  -0.000015   0.000068
    27  H    0.009091  -0.020730   0.000770  -0.001497   0.000035   0.010499
    28  H    0.004290  -0.000012  -0.017534  -0.000013  -0.000008  -0.000303
    29  H   -0.000733  -0.004707  -0.019328  -0.000197  -0.000047   0.000661
    30  H   -0.000680  -0.000006  -0.000182  -0.000550  -0.000007  -0.000511
    31  H    0.003048   0.000239  -0.000022  -0.018584  -0.000021   0.063129
    32  H    0.003419  -0.000029   0.000036   0.011976   0.000017   0.016904
    33  H   -0.017647   0.000871  -0.010672  -0.009425  -0.000067   0.054707
               7          8          9         10         11         12
     1  Zr  -0.599969  -0.617367  -0.495110  -0.056208  -0.125333   0.037799
     2  O   -0.016027  -0.739189  -0.009276   0.000460   0.000585   0.003305
     3  O   -0.893469  -0.030121   0.011732  -0.002768   0.003128   0.007074
     4  O   -0.022371   0.070607   0.002129  -0.000655   0.002025   0.001423
     5  O   -0.030782  -0.010339  -0.969969   0.114116   0.310799   0.121791
     6  Si   0.115873   0.027956   0.061228  -0.000285  -0.000288  -0.002778
     7  Si  13.792673   0.164458   0.034694   0.002020  -0.001027   0.001579
     8  Si   0.164458  13.687844   0.045476  -0.001523   0.002709  -0.003542
     9  Si   0.034694   0.045476  13.779525   0.015273  -0.150915  -0.229562
    10  O    0.002020  -0.001523   0.015273   8.537256  -0.033257   0.053878
    11  O   -0.001027   0.002709  -0.150915  -0.033257   8.588107  -0.042963
    12  O    0.001579  -0.003542  -0.229562   0.053878  -0.042963   8.645020
    13  O    0.000615  -0.170255  -0.002565  -0.000002   0.000026  -0.000103
    14  O    0.028255  -0.459601   0.000996  -0.000001   0.000008   0.000097
    15  O   -0.001166  -0.383217   0.000199   0.000002  -0.000029   0.000290
    16  O    0.004155  -0.011594  -0.001814   0.000006  -0.000008  -0.000001
    17  O    0.001302   0.101703   0.004008   0.000008   0.000006  -0.000020
    18  O   -0.003176   0.083444   0.003772   0.000005   0.000004   0.000009
    19  O   -0.456247  -0.017788   0.000511   0.000001   0.000001  -0.000150
    20  O   -0.088266   0.008705   0.004217   0.000076  -0.000003  -0.000034
    21  O    0.005429  -0.046738  -0.002837  -0.000002   0.000005  -0.000079
    22  H    0.000154   0.000260   0.048754  -0.003639  -0.004219   0.223618
    23  H   -0.000050   0.000049   0.070932   0.232272  -0.004620   0.005715
    24  H    0.000045   0.000203   0.035050   0.007931   0.234876  -0.006338
    25  H   -0.000238   0.056515  -0.000198  -0.000000   0.000000  -0.000000
    26  H    0.000547   0.061665  -0.000566   0.000000   0.000000  -0.000014
    27  H   -0.000063   0.073774  -0.000009   0.000000  -0.000000   0.000001
    28  H    0.055922   0.000098  -0.000179  -0.000000  -0.000000  -0.000005
    29  H    0.047964   0.022510  -0.000062   0.000000  -0.000000   0.000001
    30  H    0.044165   0.000122  -0.000004  -0.000000   0.000000   0.000000
    31  H    0.000103  -0.002901  -0.000065   0.000000  -0.000000   0.000000
    32  H   -0.000640   0.000201  -0.000023  -0.000000   0.000000  -0.000000
    33  H    0.021871   0.000190   0.000149  -0.000000  -0.000000   0.000000
              13         14         15         16         17         18
     1  Zr   0.025242  -0.080578  -0.074910  -0.117371  -0.108023  -0.041699
     2  O    0.271674   0.243967   0.255947   0.005589  -0.037647  -0.021030
     3  O    0.001066  -0.019441   0.000566  -0.000551   0.010053   0.003338
     4  O   -0.015019  -0.003863   0.002561   0.346570   0.212594   0.223645
     5  O   -0.000192  -0.000219   0.000631   0.002778  -0.000220  -0.000943
     6  Si   0.015515   0.019627   0.000374  -0.443902  -0.439446  -0.493084
     7  Si   0.000615   0.028255  -0.001166   0.004155   0.001302  -0.003176
     8  Si  -0.170255  -0.459601  -0.383217  -0.011594   0.101703   0.083444
     9  Si  -0.002565   0.000996   0.000199  -0.001814   0.004008   0.003772
    10  O   -0.000002  -0.000001   0.000002   0.000006   0.000008   0.000005
    11  O    0.000026   0.000008  -0.000029  -0.000008   0.000006   0.000004
    12  O   -0.000103   0.000097   0.000290  -0.000001  -0.000020   0.000009
    13  O    8.644943   0.025846  -0.118119   0.004030  -0.028844  -0.043445
    14  O    0.025846   8.805270   0.153944   0.002389  -0.027502  -0.022514
    15  O   -0.118119   0.153944   8.795554  -0.000170   0.003958   0.001315
    16  O    0.004030   0.002389  -0.000170   8.901034  -0.098612  -0.100017
    17  O   -0.028844  -0.027502   0.003958  -0.098612   8.940508   0.228302
    18  O   -0.043445  -0.022514   0.001315  -0.100017   0.228302   9.038836
    19  O    0.000229   0.000274   0.000326  -0.000657  -0.029980   0.000084
    20  O    0.000005  -0.001110   0.000011   0.000036  -0.000895   0.000019
    21  O   -0.000359   0.024548   0.000496  -0.000154  -0.006003   0.000389
    22  H   -0.000000   0.000000   0.000002  -0.000000   0.000000  -0.000000
    23  H    0.000000  -0.000000   0.000000  -0.000000   0.000000   0.000000
    24  H   -0.000000   0.000000   0.000001   0.000000  -0.000000  -0.000000
    25  H    0.217300  -0.009409   0.007332  -0.000266   0.000590   0.015354
    26  H   -0.006430   0.000751   0.226093   0.000000  -0.000023   0.000007
    27  H   -0.004516   0.207775   0.000190   0.000311   0.017646  -0.000824
    28  H    0.000000  -0.000003  -0.000001  -0.000000   0.000003   0.000000
    29  H    0.000785   0.014813  -0.001275  -0.000004  -0.000684  -0.000002
    30  H    0.000001   0.000020   0.000001   0.000101  -0.000440  -0.000010
    31  H    0.002297   0.000077  -0.000020   0.004849  -0.001277   0.215257
    32  H   -0.000007  -0.000006   0.000000   0.236933  -0.003290   0.003920
    33  H    0.000245   0.002084  -0.000055   0.000411   0.230268   0.002150
              19         20         21         22         23         24
     1  Zr   0.007570  -0.138524   0.049751  -0.012442  -0.004268  -0.004965
     2  O    0.007654  -0.000800   0.010438  -0.000017  -0.000010  -0.000076
     3  O    0.284706   0.147290   0.158045   0.000122  -0.000002   0.000004
     4  O    0.015761  -0.000445   0.004549  -0.000001  -0.000020   0.000007
     5  O    0.002535   0.001070   0.000777   0.003887  -0.023701  -0.000416
     6  Si  -0.010104   0.011526  -0.018785   0.000165   0.000099   0.000109
     7  Si  -0.456247  -0.088266   0.005429   0.000154  -0.000050   0.000045
     8  Si  -0.017788   0.008705  -0.046738   0.000260   0.000049   0.000203
     9  Si   0.000511   0.004217  -0.002837   0.048754   0.070932   0.035050
    10  O    0.000001   0.000076  -0.000002  -0.003639   0.232272   0.007931
    11  O    0.000001  -0.000003   0.000005  -0.004219  -0.004620   0.234876
    12  O   -0.000150  -0.000034  -0.000079   0.223618   0.005715  -0.006338
    13  O    0.000229   0.000005  -0.000359  -0.000000   0.000000  -0.000000
    14  O    0.000274  -0.001110   0.024548   0.000000  -0.000000   0.000000
    15  O    0.000326   0.000011   0.000496   0.000002   0.000000   0.000001
    16  O   -0.000657   0.000036  -0.000154  -0.000000  -0.000000   0.000000
    17  O   -0.029980  -0.000895  -0.006003   0.000000   0.000000  -0.000000
    18  O    0.000084   0.000019   0.000389  -0.000000   0.000000  -0.000000
    19  O    8.895335   0.032308   0.026505  -0.000000   0.000000  -0.000000
    20  O    0.032308   8.651838  -0.056860   0.000000   0.000000  -0.000000
    21  O    0.026505  -0.056860   8.489741  -0.000003   0.000000   0.000000
    22  H   -0.000000   0.000000  -0.000003   0.347960   0.000021   0.000085
    23  H    0.000000   0.000000   0.000000   0.000021   0.350912   0.000024
    24  H   -0.000000  -0.000000   0.000000   0.000085   0.000024   0.368657
    25  H   -0.000032   0.000000  -0.000010   0.000000   0.000000   0.000000
    26  H    0.000000  -0.000000   0.000051  -0.000000  -0.000000  -0.000000
    27  H   -0.000208   0.000225  -0.004687  -0.000000   0.000000   0.000000
    28  H    0.004350   0.228879  -0.001473  -0.000000   0.000000  -0.000000
    29  H   -0.008518   0.008143   0.208689   0.000000   0.000000  -0.000000
    30  H    0.222253  -0.001523  -0.007474   0.000000  -0.000000  -0.000000
    31  H    0.000002  -0.000000  -0.000000  -0.000000   0.000000   0.000000
    32  H    0.000093   0.000000   0.000001   0.000000  -0.000000  -0.000000
    33  H    0.012931  -0.000024   0.001353  -0.000000  -0.000000  -0.000000
              25         26         27         28         29         30
     1  Zr   0.018412  -0.008237   0.009091   0.004290  -0.000733  -0.000680
     2  O   -0.022262  -0.010480  -0.020730  -0.000012  -0.004707  -0.000006
     3  O   -0.000112   0.000015   0.000770  -0.017534  -0.019328  -0.000182
     4  O   -0.001171  -0.000014  -0.001497  -0.000013  -0.000197  -0.000550
     5  O   -0.000022  -0.000015   0.000035  -0.000008  -0.000047  -0.000007
     6  Si   0.001355   0.000068   0.010499  -0.000303   0.000661  -0.000511
     7  Si  -0.000238   0.000547  -0.000063   0.055922   0.047964   0.044165
     8  Si   0.056515   0.061665   0.073774   0.000098   0.022510   0.000122
     9  Si  -0.000198  -0.000566  -0.000009  -0.000179  -0.000062  -0.000004
    10  O   -0.000000   0.000000   0.000000  -0.000000   0.000000  -0.000000
    11  O    0.000000   0.000000  -0.000000  -0.000000  -0.000000   0.000000
    12  O   -0.000000  -0.000014   0.000001  -0.000005   0.000001   0.000000
    13  O    0.217300  -0.006430  -0.004516   0.000000   0.000785   0.000001
    14  O   -0.009409   0.000751   0.207775  -0.000003   0.014813   0.000020
    15  O    0.007332   0.226093   0.000190  -0.000001  -0.001275   0.000001
    16  O   -0.000266   0.000000   0.000311  -0.000000  -0.000004   0.000101
    17  O    0.000590  -0.000023   0.017646   0.000003  -0.000684  -0.000440
    18  O    0.015354   0.000007  -0.000824   0.000000  -0.000002  -0.000010
    19  O   -0.000032   0.000000  -0.000208   0.004350  -0.008518   0.222253
    20  O    0.000000  -0.000000   0.000225   0.228879   0.008143  -0.001523
    21  O   -0.000010   0.000051  -0.004687  -0.001473   0.208689  -0.007474
    22  H    0.000000  -0.000000  -0.000000  -0.000000   0.000000   0.000000
    23  H    0.000000  -0.000000   0.000000   0.000000   0.000000  -0.000000
    24  H    0.000000  -0.000000   0.000000  -0.000000  -0.000000  -0.000000
    25  H    0.301646  -0.000028   0.000017   0.000000   0.000001   0.000000
    26  H   -0.000028   0.369773  -0.000034   0.000000   0.000019  -0.000000
    27  H    0.000017  -0.000034   0.284805  -0.000000  -0.001013   0.000004
    28  H    0.000000   0.000000  -0.000000   0.349562  -0.000018  -0.000011
    29  H    0.000001   0.000019  -0.001013  -0.000018   0.285821   0.000168
    30  H    0.000000  -0.000000   0.000004  -0.000011   0.000168   0.334928
    31  H   -0.000184   0.000000   0.000014   0.000000   0.000000  -0.000000
    32  H   -0.000001  -0.000000  -0.000000   0.000000  -0.000000  -0.000000
    33  H    0.000005   0.000000  -0.002412  -0.000002   0.000128  -0.001043
              31         32         33
     1  Zr   0.003048   0.003419  -0.017647
     2  O    0.000239  -0.000029   0.000871
     3  O   -0.000022   0.000036  -0.010672
     4  O   -0.018584   0.011976  -0.009425
     5  O   -0.000021   0.000017  -0.000067
     6  Si   0.063129   0.016904   0.054707
     7  Si   0.000103  -0.000640   0.021871
     8  Si  -0.002901   0.000201   0.000190
     9  Si  -0.000065  -0.000023   0.000149
    10  O    0.000000  -0.000000  -0.000000
    11  O   -0.000000   0.000000  -0.000000
    12  O    0.000000  -0.000000   0.000000
    13  O    0.002297  -0.000007   0.000245
    14  O    0.000077  -0.000006   0.002084
    15  O   -0.000020   0.000000  -0.000055
    16  O    0.004849   0.236933   0.000411
    17  O   -0.001277  -0.003290   0.230268
    18  O    0.215257   0.003920   0.002150
    19  O    0.000002   0.000093   0.012931
    20  O   -0.000000   0.000000  -0.000024
    21  O   -0.000000   0.000001   0.001353
    22  H   -0.000000   0.000000  -0.000000
    23  H    0.000000  -0.000000  -0.000000
    24  H    0.000000  -0.000000  -0.000000
    25  H   -0.000184  -0.000001   0.000005
    26  H    0.000000  -0.000000   0.000000
    27  H    0.000014  -0.000000  -0.002412
    28  H    0.000000   0.000000  -0.000002
    29  H    0.000000  -0.000000   0.000128
    30  H   -0.000000  -0.000000  -0.001043
    31  H    0.327956  -0.000010  -0.000036
    32  H   -0.000010   0.348785   0.000145
    33  H   -0.000036   0.000145   0.270822
 Mulliken charges:
               1
     1  Zr   0.060846
     2  O   -0.669810
     3  O   -0.453993
     4  O   -0.656342
     5  O   -0.459506
     6  Si   2.230317
     7  Si   1.791667
     8  Si   2.085687
     9  Si   1.744509
    10  O   -0.864965
    11  O   -0.779617
    12  O   -0.816011
    13  O   -0.819963
    14  O   -0.906494
    15  O   -0.870830
    16  O   -0.734069
    17  O   -0.968041
    18  O   -1.093104
    19  O   -0.989747
    20  O   -0.805868
    21  O   -0.835303
    22  H    0.395292
    23  H    0.372647
    24  H    0.364803
    25  H    0.415402
    26  H    0.366851
    27  H    0.430837
    28  H    0.376460
    29  H    0.446885
    30  H    0.410680
    31  H    0.406151
    32  H    0.381576
    33  H    0.443052
 Sum of Mulliken charges =  -0.00000
 Mulliken charges with hydrogens summed into heavy atoms:
               1
     1  Zr   0.060846
     2  O   -0.669810
     3  O   -0.453993
     4  O   -0.656342
     5  O   -0.459506
     6  Si   2.230317
     7  Si   1.791667
     8  Si   2.085687
     9  Si   1.744509
    10  O   -0.492319
    11  O   -0.414813
    12  O   -0.420719
    13  O   -0.404561
    14  O   -0.475657
    15  O   -0.503979
    16  O   -0.352493
    17  O   -0.524989
    18  O   -0.686954
    19  O   -0.579067
    20  O   -0.429408
    21  O   -0.388418
 Electronic spatial extent (au):  <R**2>=           9627.4368
 Charge=             -0.0000 electrons
 Dipole moment (field-independent basis, Debye):
    X=              2.8597    Y=             -1.3026    Z=             -3.2697  Tot=              4.5350
 Quadrupole moment (field-independent basis, Debye-Ang):
   XX=           -165.4695   YY=           -151.5365   ZZ=           -159.9946
   XY=             -5.9862   XZ=             13.4231   YZ=              3.6544
 Traceless Quadrupole moment (field-independent basis, Debye-Ang):
   XX=             -6.4692   YY=              7.4637   ZZ=             -0.9944
   XY=             -5.9862   XZ=             13.4231   YZ=              3.6544
 Octapole moment (field-independent basis, Debye-Ang**2):
  XXX=             76.4352  YYY=             -9.7869  ZZZ=            -52.9776  XYY=             -7.3915
  XXY=             24.9721  XXZ=            -21.0807  XZZ=             65.1152  YZZ=            -20.6926
  YYZ=             -2.9371  XYZ=              6.8499
 Hexadecapole moment (field-independent basis, Debye-Ang**3):
 XXXX=          -5977.9122 YYYY=          -2762.2136 ZZZZ=          -2283.8184 XXXY=             18.5947
 XXXZ=              3.8239 YYYX=            -35.1658 YYYZ=            171.5177 ZZZX=             78.4396
 ZZZY=            -73.3733 XXYY=          -1440.8779 XXZZ=          -1418.7936 YYZZ=           -921.2587
 XXYZ=             33.5175 YYXZ=            191.7678 ZZXY=            -37.4084
 N-N= 2.849148942293D+03 E-N=-1.141089849813D+04  KE= 2.373153375045D+03
 1\1\GINC-GRA1213\FOpt\RB3LYP\Gen\H12O16Si4Zr1\SARASHS\02-Aug-2020\0\\#
 n B3LYP/Gen Pseudo=cards EmpiricalDispersion=GD3 Opt=modredundant\\Tit
 le\\0,1\Zr,0.6493766612,-0.1431776639,-0.2061053631\O,-0.1424071679,-0
 .8927399219,1.4046319179\O,0.1425299317,1.7422838521,-0.2475122694\O,-
 0.3899692528,-0.9961171219,-1.6561667524\O,2.5782927094,-0.5054405741,
 -0.3715658752\Si,-1.981167616,-1.3355743445,-1.8748402013\Si,-1.034880
 6014,2.8780508557,-0.1574977962\Si,-1.6085510174,-1.0282634097,2.17194
 27197\Si,4.0830696558,-0.1059791926,0.1359974326\O,4.9190064653,0.8712
 910078,-0.8968619561\O,5.0109011131,-1.4669541171,0.3101392239\O,3.826
 2293608,0.7346175595,1.5364655764\O,-2.257714637,-2.4992215831,1.84588
 2565\O,-2.5839562221,0.2152375217,1.6480533838\O,-1.4548981721,-0.7888
 146757,3.7869313587\O,-2.2910370915,-1.6078739979,-3.4717021468\O,-2.9
 001424574,-0.1524063055,-1.1815813409\O,-2.4374466996,-2.6915758514,-1
 .0263589612\O,-2.0722460015,2.4554318127,-1.4138650796\O,-0.5202225207
 ,4.4091213646,-0.4731303285\O,-1.7752768072,2.8851818729,1.3017728392\
 H,4.5583275669,1.2592866342,1.8789135755\H,5.4962581473,0.4277815927,-
 1.5285763551\H,4.5815743442,-2.24931412,0.6732858358\H,-2.3462721286,-
 2.7376980092,0.9057013101\H,-0.7857243212,-1.3048665234,4.2481614235\H
 ,-3.0105207936,0.0409717756,0.7880116435\H,-0.3599294837,4.9676771332,
 0.2960744318\H,-2.0903204967,2.0175754143,1.6300937188\H,-2.6895591519
 ,3.1461168433,-1.685593878\H,-2.5371888846,-3.5022397955,-1.5379251452
 \H,-1.6033707381,-1.3480200894,-4.0946572977\H,-2.6754736926,0.7791220
 566,-1.4038982095\\Version=ES64L-G16RevB.01\State=1-A\HF=-2416.9457773
 \RMSD=3.091e-09\RMSF=6.176e-05\Dipole=1.2210791,-0.5018837,-1.2001754\
 Quadrupole=-5.3996348,5.2840114,0.1156234,-4.7506321,9.7631938,2.75457
 29\PG=C01 [X(H12O16Si4Zr1)]\\@


 OLD AGE AND TREACHERY WILL ALWAYS PREVAIL OVER YOUTH AND SKILL.
 Job cpu time:       0 days 22 hours  8 minutes 22.3 seconds.
 Elapsed time:       0 days  1 hours 39 minutes  3.5 seconds.
 File lengths (MBytes):  RWF=    167 Int=      0 D2E=      0 Chk=     21 Scr=      1
 Normal termination of Gaussian 16 at Sun Aug  2 08:27:35 2020.
