 Entering Gaussian System, Link 0=g16
 Initial command:
 /opt/software/gaussian/g16.b01/l1.exe "/localscratch/sarashs.36760135.0/Gau-52387.inp" -scrdir="/localscratch/sarashs.36760135.0/"
 Entering Link 1 = /opt/software/gaussian/g16.b01/l1.exe PID=     52388.
  
 Copyright (c) 1988-2017, Gaussian, Inc.  All Rights Reserved.
  
 This is part of the Gaussian(R) 16 program.  It is based on
 the Gaussian(R) 09 system (copyright 2009, Gaussian, Inc.),
 the Gaussian(R) 03 system (copyright 2003, Gaussian, Inc.),
 the Gaussian(R) 98 system (copyright 1998, Gaussian, Inc.),
 the Gaussian(R) 94 system (copyright 1995, Gaussian, Inc.),
 the Gaussian 92(TM) system (copyright 1992, Gaussian, Inc.),
 the Gaussian 90(TM) system (copyright 1990, Gaussian, Inc.),
 the Gaussian 88(TM) system (copyright 1988, Gaussian, Inc.),
 the Gaussian 86(TM) system (copyright 1986, Carnegie Mellon
 University), and the Gaussian 82(TM) system (copyright 1983,
 Carnegie Mellon University). Gaussian is a federally registered
 trademark of Gaussian, Inc.
  
 This software contains proprietary and confidential information,
 including trade secrets, belonging to Gaussian, Inc.
  
 This software is provided under written license and may be
 used, copied, transmitted, or stored only in accord with that
 written license.
  
 The following legend is applicable only to US Government
 contracts under FAR:
  
                    RESTRICTED RIGHTS LEGEND
  
 Use, reproduction and disclosure by the US Government is
 subject to restrictions as set forth in subparagraphs (a)
 and (c) of the Commercial Computer Software - Restricted
 Rights clause in FAR 52.227-19.
  
 Gaussian, Inc.
 340 Quinnipiac St., Bldg. 40, Wallingford CT 06492
  
  
 ---------------------------------------------------------------
 Warning -- This program may not be used in any manner that
 competes with the business of Gaussian, Inc. or will provide
 assistance to any competitor of Gaussian, Inc.  The licensee
 of this program is prohibited from giving any competitor of
 Gaussian, Inc. access to this program.  By using this program,
 the user acknowledges that Gaussian, Inc. is engaged in the
 business of creating and licensing software in the field of
 computational chemistry and represents and warrants to the
 licensee that it is not a competitor of Gaussian, Inc. and that
 it will not use this program in any manner prohibited above.
 ---------------------------------------------------------------
  

 Cite this work as:
 Gaussian 16, Revision B.01,
 M. J. Frisch, G. W. Trucks, H. B. Schlegel, G. E. Scuseria, 
 M. A. Robb, J. R. Cheeseman, G. Scalmani, V. Barone, 
 G. A. Petersson, H. Nakatsuji, X. Li, M. Caricato, A. V. Marenich, 
 J. Bloino, B. G. Janesko, R. Gomperts, B. Mennucci, H. P. Hratchian, 
 J. V. Ortiz, A. F. Izmaylov, J. L. Sonnenberg, D. Williams-Young, 
 F. Ding, F. Lipparini, F. Egidi, J. Goings, B. Peng, A. Petrone, 
 T. Henderson, D. Ranasinghe, V. G. Zakrzewski, J. Gao, N. Rega, 
 G. Zheng, W. Liang, M. Hada, M. Ehara, K. Toyota, R. Fukuda, 
 J. Hasegawa, M. Ishida, T. Nakajima, Y. Honda, O. Kitao, H. Nakai, 
 T. Vreven, K. Throssell, J. A. Montgomery, Jr., J. E. Peralta, 
 F. Ogliaro, M. J. Bearpark, J. J. Heyd, E. N. Brothers, K. N. Kudin, 
 V. N. Staroverov, T. A. Keith, R. Kobayashi, J. Normand, 
 K. Raghavachari, A. P. Rendell, J. C. Burant, S. S. Iyengar, 
 J. Tomasi, M. Cossi, J. M. Millam, M. Klene, C. Adamo, R. Cammi, 
 J. W. Ochterski, R. L. Martin, K. Morokuma, O. Farkas, 
 J. B. Foresman, and D. J. Fox, Gaussian, Inc., Wallingford CT, 2016.
 
 ******************************************
 Gaussian 16:  ES64L-G16RevB.01 20-Dec-2017
                 2-Aug-2020 
 ******************************************
 %NProcShared=16
 Will use up to   16 processors via shared memory.
 ------------------------------------------------------------------
 #n B3LYP/Gen Pseudo=cards EmpiricalDispersion=GD3 Opt=modredundant
 ------------------------------------------------------------------
 1/18=120,19=15,26=3,38=1/1,3;
 2/9=110,12=2,17=6,18=5,40=1/2;
 3/5=7,11=2,16=1,17=8,25=1,30=1,71=1,74=-5,124=31/1,2,3;
 4//1;
 5/5=2,38=5/2;
 6/7=2,8=2,9=2,10=2,28=1/1;
 7//1,2,3,16;
 1/18=20,19=15,26=3/3(2);
 2/9=110/2;
 99//99;
 2/9=110/2;
 3/5=7,6=1,11=2,16=1,17=8,25=1,30=1,71=1,74=-5,82=7,124=31/1,2,3;
 4/5=5,16=3,69=1/1;
 5/5=2,38=5/2;
 7//1,2,3,16;
 1/18=20,19=15,26=3/3(-5);
 2/9=110/2;
 6/7=2,8=2,9=2,10=2,19=2,28=1/1;
 99/9=1/99;
 -----
 Title
 -----
 Symbolic Z-matrix:
 Charge =  0 Multiplicity = 1
 Zr                    0.64646  -0.19013  -0.1519 
 O                    -0.19212  -0.93131   1.43939 
 O                     0.17263   1.70395  -0.1904 
 O                    -0.37772  -1.01692  -1.62844 
 O                     2.5678   -0.57883  -0.26812 
 Si                   -1.96924  -1.33216  -1.87829 
 Si                   -0.98958   2.85681  -0.11809 
 Si                   -1.67476  -1.05152   2.17706 
 Si                    4.16748  -0.32984  -0.02925 
 O                     4.91804   0.46514  -1.26541 
 O                     4.95978  -1.77937   0.10437 
 O                     4.24905   0.61847   1.32014 
 O                    -2.33574  -2.51245   1.83004 
 O                    -2.6209    0.20928   1.64149 
 O                    -1.552    -0.82432   3.7965 
 O                    -2.25427  -1.59164  -3.48183 
 O                    -2.88371  -0.13912  -1.19557 
 O                    -2.46027  -2.68598  -1.04579 
 O                    -2.00825   2.45605  -1.3967 
 O                    -0.44623   4.38142  -0.41555 
 O                    -1.75835   2.86715   1.32642 
 H                     5.09083   1.0523    1.49853 
 H                     5.3421   -0.0898   -1.92968 
 H                     4.53583  -2.46782   0.62832 
 H                    -2.40738  -2.74575   0.88712 
 H                    -0.93391  -1.38513   4.27638 
 H                    -3.02928   0.04705   0.77024 
 H                    -0.29029   4.93346   0.35924 
 H                    -2.09489   2.00321   1.64266 
 H                    -2.6086    3.15807  -1.6773 
 H                    -2.56602  -3.49143  -1.56436 
 H                    -1.55278  -1.33714  -4.09141 
 H                    -2.64046   0.78995  -1.40829 
 
 The following ModRedundant input section has been read:
 A       1       5       9 F                                                   
 

 GradGradGradGradGradGradGradGradGradGradGradGradGradGradGradGradGradGrad
 Berny optimization.
 Initialization pass.
                           ----------------------------
                           !    Initial Parameters    !
                           ! (Angstroms and Degrees)  !
 --------------------------                            --------------------------
 ! Name  Definition              Value          Derivative Info.                !
 --------------------------------------------------------------------------------
 ! R1    R(1,2)                  1.9454         estimate D2E/DX2                !
 ! R2    R(1,3)                  1.9528         estimate D2E/DX2                !
 ! R3    R(1,4)                  1.9781         estimate D2E/DX2                !
 ! R4    R(1,5)                  1.9637         estimate D2E/DX2                !
 ! R5    R(2,8)                  1.6604         estimate D2E/DX2                !
 ! R6    R(3,7)                  1.6386         estimate D2E/DX2                !
 ! R7    R(4,6)                  1.6416         estimate D2E/DX2                !
 ! R8    R(5,9)                  1.6365         estimate D2E/DX2                !
 ! R9    R(6,16)                 1.6492         estimate D2E/DX2                !
 ! R10   R(6,17)                 1.651          estimate D2E/DX2                !
 ! R11   R(6,18)                 1.6634         estimate D2E/DX2                !
 ! R12   R(7,19)                 1.6832         estimate D2E/DX2                !
 ! R13   R(7,20)                 1.6456         estimate D2E/DX2                !
 ! R14   R(7,21)                 1.6364         estimate D2E/DX2                !
 ! R15   R(8,13)                 1.6406         estimate D2E/DX2                !
 ! R16   R(8,14)                 1.6648         estimate D2E/DX2                !
 ! R17   R(8,15)                 1.6399         estimate D2E/DX2                !
 ! R18   R(9,10)                 1.6503         estimate D2E/DX2                !
 ! R19   R(9,11)                 1.6573         estimate D2E/DX2                !
 ! R20   R(9,12)                 1.6513         estimate D2E/DX2                !
 ! R21   R(10,23)                0.9639         estimate D2E/DX2                !
 ! R22   R(11,24)                0.9634         estimate D2E/DX2                !
 ! R23   R(12,22)                0.9637         estimate D2E/DX2                !
 ! R24   R(13,25)                0.974          estimate D2E/DX2                !
 ! R25   R(14,27)                0.9758         estimate D2E/DX2                !
 ! R26   R(15,26)                0.9627         estimate D2E/DX2                !
 ! R27   R(16,32)                0.9636         estimate D2E/DX2                !
 ! R28   R(17,33)                0.9837         estimate D2E/DX2                !
 ! R29   R(18,31)                0.9638         estimate D2E/DX2                !
 ! R30   R(19,30)                0.9654         estimate D2E/DX2                !
 ! R31   R(20,28)                0.964          estimate D2E/DX2                !
 ! R32   R(21,29)                0.9796         estimate D2E/DX2                !
 ! A1    A(2,1,3)              106.3234         estimate D2E/DX2                !
 ! A2    A(2,1,4)              103.1879         estimate D2E/DX2                !
 ! A3    A(2,1,5)              113.2501         estimate D2E/DX2                !
 ! A4    A(3,1,4)              105.3705         estimate D2E/DX2                !
 ! A5    A(3,1,5)              115.3549         estimate D2E/DX2                !
 ! A6    A(4,1,5)              112.3142         estimate D2E/DX2                !
 ! A7    A(1,2,8)              140.8859         estimate D2E/DX2                !
 ! A8    A(1,3,7)              148.6074         estimate D2E/DX2                !
 ! A9    A(1,4,6)              134.0964         estimate D2E/DX2                !
 ! A10   A(1,5,9)              156.5883         Frozen                          !
 ! A11   A(4,6,16)             110.2282         estimate D2E/DX2                !
 ! A12   A(4,6,17)             109.5909         estimate D2E/DX2                !
 ! A13   A(4,6,18)             111.4884         estimate D2E/DX2                !
 ! A14   A(16,6,17)            114.8371         estimate D2E/DX2                !
 ! A15   A(16,6,18)            107.9112         estimate D2E/DX2                !
 ! A16   A(17,6,18)            102.5719         estimate D2E/DX2                !
 ! A17   A(3,7,19)             103.1918         estimate D2E/DX2                !
 ! A18   A(3,7,20)             114.1832         estimate D2E/DX2                !
 ! A19   A(3,7,21)             112.1241         estimate D2E/DX2                !
 ! A20   A(19,7,20)            106.4451         estimate D2E/DX2                !
 ! A21   A(19,7,21)            112.8144         estimate D2E/DX2                !
 ! A22   A(20,7,21)            107.9884         estimate D2E/DX2                !
 ! A23   A(2,8,13)             109.2843         estimate D2E/DX2                !
 ! A24   A(2,8,14)             108.0427         estimate D2E/DX2                !
 ! A25   A(2,8,15)             111.2146         estimate D2E/DX2                !
 ! A26   A(13,8,14)            112.1704         estimate D2E/DX2                !
 ! A27   A(13,8,15)            111.2482         estimate D2E/DX2                !
 ! A28   A(14,8,15)            104.7916         estimate D2E/DX2                !
 ! A29   A(5,9,10)             114.1132         estimate D2E/DX2                !
 ! A30   A(5,9,11)             110.2432         estimate D2E/DX2                !
 ! A31   A(5,9,12)             104.7702         estimate D2E/DX2                !
 ! A32   A(10,9,11)            105.3249         estimate D2E/DX2                !
 ! A33   A(10,9,12)            108.2399         estimate D2E/DX2                !
 ! A34   A(11,9,12)            114.3795         estimate D2E/DX2                !
 ! A35   A(9,10,23)            116.0387         estimate D2E/DX2                !
 ! A36   A(9,11,24)            117.2879         estimate D2E/DX2                !
 ! A37   A(9,12,22)            116.9338         estimate D2E/DX2                !
 ! A38   A(8,13,25)            116.5961         estimate D2E/DX2                !
 ! A39   A(8,14,27)            113.5263         estimate D2E/DX2                !
 ! A40   A(8,15,26)            117.3612         estimate D2E/DX2                !
 ! A41   A(6,16,32)            116.5984         estimate D2E/DX2                !
 ! A42   A(6,17,33)            117.1373         estimate D2E/DX2                !
 ! A43   A(6,18,31)            116.3135         estimate D2E/DX2                !
 ! A44   A(7,19,30)            115.0881         estimate D2E/DX2                !
 ! A45   A(7,20,28)            116.018          estimate D2E/DX2                !
 ! A46   A(7,21,29)            116.1544         estimate D2E/DX2                !
 ! D1    D(3,1,2,8)             54.013          estimate D2E/DX2                !
 ! D2    D(4,1,2,8)            -56.615          estimate D2E/DX2                !
 ! D3    D(5,1,2,8)           -178.2908         estimate D2E/DX2                !
 ! D4    D(2,1,3,7)            -51.1331         estimate D2E/DX2                !
 ! D5    D(4,1,3,7)             57.9568         estimate D2E/DX2                !
 ! D6    D(5,1,3,7)           -177.5709         estimate D2E/DX2                !
 ! D7    D(2,1,4,6)             41.2968         estimate D2E/DX2                !
 ! D8    D(3,1,4,6)            -70.0365         estimate D2E/DX2                !
 ! D9    D(5,1,4,6)            163.602          estimate D2E/DX2                !
 ! D10   D(2,1,5,9)            -89.6362         estimate D2E/DX2                !
 ! D11   D(3,1,5,9)             33.1904         estimate D2E/DX2                !
 ! D12   D(4,1,5,9)            153.957          estimate D2E/DX2                !
 ! D13   D(1,2,8,13)            98.0767         estimate D2E/DX2                !
 ! D14   D(1,2,8,14)           -24.2296         estimate D2E/DX2                !
 ! D15   D(1,2,8,15)          -138.7156         estimate D2E/DX2                !
 ! D16   D(1,3,7,19)           -58.6416         estimate D2E/DX2                !
 ! D17   D(1,3,7,20)          -173.7291         estimate D2E/DX2                !
 ! D18   D(1,3,7,21)            63.0404         estimate D2E/DX2                !
 ! D19   D(1,4,6,16)           161.8736         estimate D2E/DX2                !
 ! D20   D(1,4,6,17)            34.551          estimate D2E/DX2                !
 ! D21   D(1,4,6,18)           -78.3045         estimate D2E/DX2                !
 ! D22   D(1,5,9,10)           -93.0138         estimate D2E/DX2                !
 ! D23   D(1,5,9,11)           148.7121         estimate D2E/DX2                !
 ! D24   D(1,5,9,12)            25.1926         estimate D2E/DX2                !
 ! D25   D(4,6,16,32)          -13.7229         estimate D2E/DX2                !
 ! D26   D(17,6,16,32)         110.6319         estimate D2E/DX2                !
 ! D27   D(18,6,16,32)        -135.686          estimate D2E/DX2                !
 ! D28   D(4,6,17,33)           49.7998         estimate D2E/DX2                !
 ! D29   D(16,6,17,33)         -74.8906         estimate D2E/DX2                !
 ! D30   D(18,6,17,33)         168.3378         estimate D2E/DX2                !
 ! D31   D(4,6,18,31)         -102.9126         estimate D2E/DX2                !
 ! D32   D(16,6,18,31)          18.2691         estimate D2E/DX2                !
 ! D33   D(17,6,18,31)         139.8941         estimate D2E/DX2                !
 ! D34   D(3,7,19,30)         -162.9704         estimate D2E/DX2                !
 ! D35   D(20,7,19,30)         -42.4468         estimate D2E/DX2                !
 ! D36   D(21,7,19,30)          75.8144         estimate D2E/DX2                !
 ! D37   D(3,7,20,28)         -100.1112         estimate D2E/DX2                !
 ! D38   D(19,7,20,28)         146.7232         estimate D2E/DX2                !
 ! D39   D(21,7,20,28)          25.3303         estimate D2E/DX2                !
 ! D40   D(3,7,21,29)          -50.5298         estimate D2E/DX2                !
 ! D41   D(19,7,21,29)          65.4642         estimate D2E/DX2                !
 ! D42   D(20,7,21,29)        -177.1813         estimate D2E/DX2                !
 ! D43   D(2,8,13,25)          -54.0971         estimate D2E/DX2                !
 ! D44   D(14,8,13,25)          65.6987         estimate D2E/DX2                !
 ! D45   D(15,8,13,25)        -177.2849         estimate D2E/DX2                !
 ! D46   D(2,8,14,27)           81.1206         estimate D2E/DX2                !
 ! D47   D(13,8,14,27)         -39.3971         estimate D2E/DX2                !
 ! D48   D(15,8,14,27)        -160.2179         estimate D2E/DX2                !
 ! D49   D(2,8,15,26)          -54.9076         estimate D2E/DX2                !
 ! D50   D(13,8,15,26)          67.168          estimate D2E/DX2                !
 ! D51   D(14,8,15,26)        -171.403          estimate D2E/DX2                !
 ! D52   D(5,9,10,23)          -94.3729         estimate D2E/DX2                !
 ! D53   D(11,9,10,23)          26.6726         estimate D2E/DX2                !
 ! D54   D(12,9,10,23)         149.421          estimate D2E/DX2                !
 ! D55   D(5,9,11,24)          -42.1571         estimate D2E/DX2                !
 ! D56   D(10,9,11,24)        -165.6993         estimate D2E/DX2                !
 ! D57   D(12,9,11,24)          75.5828         estimate D2E/DX2                !
 ! D58   D(5,9,12,22)         -165.3208         estimate D2E/DX2                !
 ! D59   D(10,9,12,22)         -43.1976         estimate D2E/DX2                !
 ! D60   D(11,9,12,22)          73.8589         estimate D2E/DX2                !
 --------------------------------------------------------------------------------
 Trust Radius=3.00D-01 FncErr=1.00D-07 GrdErr=1.00D-06 EigMax=2.50D+02 EigMin=1.00D-04
 Number of steps in this run=    148 maximum allowed number of steps=    198.
 GradGradGradGradGradGradGradGradGradGradGradGradGradGradGradGradGradGrad

                          Input orientation:                          
 ---------------------------------------------------------------------
 Center     Atomic      Atomic             Coordinates (Angstroms)
 Number     Number       Type             X           Y           Z
 ---------------------------------------------------------------------
      1         40           0        0.646460   -0.190130   -0.151900
      2          8           0       -0.192120   -0.931310    1.439390
      3          8           0        0.172630    1.703950   -0.190400
      4          8           0       -0.377720   -1.016920   -1.628440
      5          8           0        2.567800   -0.578830   -0.268120
      6         14           0       -1.969240   -1.332160   -1.878290
      7         14           0       -0.989580    2.856810   -0.118090
      8         14           0       -1.674760   -1.051520    2.177060
      9         14           0        4.167480   -0.329840   -0.029250
     10          8           0        4.918040    0.465140   -1.265410
     11          8           0        4.959780   -1.779370    0.104370
     12          8           0        4.249050    0.618470    1.320140
     13          8           0       -2.335740   -2.512450    1.830040
     14          8           0       -2.620900    0.209280    1.641490
     15          8           0       -1.552000   -0.824320    3.796500
     16          8           0       -2.254270   -1.591640   -3.481830
     17          8           0       -2.883710   -0.139120   -1.195570
     18          8           0       -2.460270   -2.685980   -1.045790
     19          8           0       -2.008250    2.456050   -1.396700
     20          8           0       -0.446230    4.381420   -0.415550
     21          8           0       -1.758350    2.867150    1.326420
     22          1           0        5.090830    1.052300    1.498530
     23          1           0        5.342100   -0.089800   -1.929680
     24          1           0        4.535830   -2.467820    0.628320
     25          1           0       -2.407380   -2.745750    0.887120
     26          1           0       -0.933910   -1.385130    4.276380
     27          1           0       -3.029280    0.047050    0.770240
     28          1           0       -0.290290    4.933460    0.359240
     29          1           0       -2.094890    2.003210    1.642660
     30          1           0       -2.608600    3.158070   -1.677300
     31          1           0       -2.566020   -3.491430   -1.564360
     32          1           0       -1.552780   -1.337140   -4.091410
     33          1           0       -2.640460    0.789950   -1.408290
 ---------------------------------------------------------------------
                    Distance matrix (angstroms):
                    1          2          3          4          5
     1  Zr   0.000000
     2  O    1.945448   0.000000
     3  O    1.952828   3.119912   0.000000
     4  O    1.978054   3.074631   3.126336   0.000000
     5  O    1.963706   3.264505   3.309677   3.273909   0.000000
     6  Si   3.335647   3.784949   4.080998   1.641565   4.872872
     7  Si   3.458557   4.172714   1.638611   4.202537   4.947836
     8  Si   3.399134   1.660370   4.075577   4.020614   4.919518
     9  Si   3.525925   4.639481   4.485655   4.867066   1.636469
    10  O    4.462699   5.948088   5.020878   5.511204   2.758276
    11  O    4.603921   5.389208   5.927665   5.663291   2.702150
    12  O    3.974845   4.705319   4.480759   5.725000   2.604361
    13  O    4.267877   2.692159   5.305858   4.246356   5.673259
    14  O    3.748522   2.690866   3.659736   4.150646   5.584831
    15  O    4.563473   2.723360   5.026119   5.553918   5.792595
    16  O    4.633238   5.376514   5.252073   2.699407   5.882693
    17  O    3.681569   3.849056   3.707895   2.690334   5.547294
    18  O    4.084125   3.794666   5.189927   2.731713   5.506936
    19  O    3.949592   4.776604   2.603277   3.843677   5.605749
    20  O    4.707712   5.632981   2.757268   5.533342   5.806048
    21  O    4.161190   4.110248   2.717068   5.071818   5.756119
    22  H    4.901018   5.643383   5.240785   6.630585   3.485300
    23  H    5.021912   6.533480   5.741607   5.802296   3.270577
    24  H    4.574256   5.037083   6.091919   5.598308   2.871416
    25  H    4.115422   2.916260   5.255219   3.665572   5.548201
    26  H    4.851315   2.967274   5.542470   5.942375   5.793494
    27  H    3.797060   3.074805   3.731002   3.730478   5.726886
    28  H    5.233540   5.964217   3.308494   6.274196   6.240801
    29  H    3.942865   3.503321   2.931094   4.771787   5.662039
    30  H    4.912505   5.681211   3.472834   4.733894   6.537991
    31  H    4.818055   4.605663   6.031579   3.303931   6.043144
    32  H    4.655322   5.710153   5.238621   2.747640   5.672016
    33  H    3.652796   4.131148   3.198770   2.904004   5.504500
                    6          7          8          9         10
     6  Si   0.000000
     7  Si   4.648172   0.000000
     8  Si   4.075701   4.583910   0.000000
     9  Si   6.487135   6.062829   6.286525   0.000000
    10  O    7.144266   6.475832   7.590512   1.650280   0.000000
    11  O    7.220959   7.545763   6.988772   1.657326   2.629803
    12  O    7.259617   5.875535   6.214073   1.651302   2.675094
    13  O    3.908851   5.868246   1.640620   7.107223   8.430016
    14  O    3.897377   3.573058   1.664822   7.011713   8.084006
    15  O    5.712725   5.402874   1.639901   6.898792   8.315471
    16  O    1.649216   5.718645   5.714070   7.399414   7.783630
    17  O    1.650971   3.704631   3.697116   7.149542   7.825427
    18  O    1.663429   5.809137   3.698006   7.107167   8.026036
    19  O    3.818898   1.683194   5.018568   6.911638   7.207944
    20  O    6.091319   1.645645   6.143920   6.605416   6.695887
    21  O    5.286667   1.636375   4.010804   6.868337   7.553901
    22  H    8.181268   6.545311   7.117561   2.257653   2.830897
    23  H    7.416319   7.214883   8.186974   2.246995   0.963867
    24  H    7.063197   7.709667   6.555603   2.266945   3.512058
    25  H    3.136510   5.865943   2.251909   7.064357   8.282812
    26  H    6.241368   6.108070   2.251066   6.758422   8.269235
    27  H    3.168693   3.583889   2.240697   7.250833   8.214534
    28  H    6.861735   2.242616   6.406342   6.908326   7.052097
    29  H    4.851553   2.247350   3.129452   6.888809   7.746207
    30  H    4.539972   2.267845   5.783493   7.797233   8.004488
    31  H    2.262111   6.699031   4.554748   7.595541   8.470831
    32  H    2.251969   5.804626   6.276159   7.087819   7.287386
    33  H    2.274816   2.943116   4.144674   7.035889   7.566825
                   11         12         13         14         15
    11  O    0.000000
    12  O    2.780804   0.000000
    13  O    7.532593   7.309044   0.000000
    14  O    7.986500   6.889624   2.743115   0.000000
    15  O    7.546338   6.470408   2.707581   2.618195   0.000000
    16  O    8.058448   8.380732   5.391706   5.442990   7.352282
    17  O    8.117918   7.601250   3.884235   2.870429   5.211882
    18  O    7.563197   7.844233   2.883751   3.953455   5.266736
    19  O    8.291287   7.064823   5.933388   3.828043   6.159409
    20  O    8.212831   6.262433   7.492554   5.134915   6.787033
    21  O    8.259348   6.414472   5.433885   2.812034   4.446440
    22  H    3.158989   0.963652   8.244470   7.758988   7.275270
    23  H    2.671736   3.501105   8.885604   8.732243   8.992067
    24  H    0.963442   3.175853   6.976002   7.707929   7.056921
    25  H    7.471388   7.470846   0.973991   3.057265   3.589994
    26  H    7.231644   6.294191   3.036537   3.511513   0.962719
    27  H    8.222182   7.321407   2.855734   0.975792   3.478490
    28  H    8.525860   6.336251   7.860578   5.421604   6.823394
    29  H    8.151234   6.501315   4.525959   1.869458   3.595648
    30  H    9.210485   7.903264   6.673131   4.439581   6.851155
    31  H    7.896422   8.465034   3.540252   4.896503   6.072934
    32  H    7.759741   8.171323   6.087524   6.033112   7.904563
    33  H    8.164141   7.412090   4.635243   3.104629   5.557018
                   16         17         18         19         20
    16  O    0.000000
    17  O    2.780826   0.000000
    18  O    2.678490   2.586162   0.000000
    19  O    4.559834   2.746232   5.173774   0.000000
    20  O    6.953311   5.194711   7.375751   2.666385   0.000000
    21  O    6.576170   4.082221   6.079254   2.765291   2.655020
    22  H    9.259854   8.501232   8.801557   7.794216   6.738381
    23  H    7.897438   8.258650   8.270332   7.796991   7.469214
    24  H    7.985392   7.987427   7.196920   8.436242   8.533620
    25  H    4.521409   3.370313   1.934557   5.695073   7.505972
    26  H    7.872472   5.941086   5.687484   6.934891   7.450177
    27  H    4.622342   1.979964   3.330344   3.397265   5.183147
    28  H    7.822274   5.905449   8.046042   3.488878   0.964036
    29  H    6.261689   3.642439   5.417543   3.074131   3.551083
    30  H    5.093292   3.343533   5.879943   0.965396   2.786475
    31  H    2.717183   3.387464   0.963767   5.975930   8.233774
    32  H    0.963559   3.404778   3.452348   4.675169   6.887549
    33  H    3.181302   0.983662   3.499423   1.782053   4.324215
                   21         22         23         24         25
    21  O    0.000000
    22  H    7.087635   0.000000
    23  H    8.352373   3.622175   0.000000
    24  H    8.280456   3.668315   3.584469   0.000000
    25  H    5.667351   8.427465   8.662729   6.953588   0.000000
    26  H    5.240596   7.067886   8.920839   6.663229   3.938208
    27  H    3.142859   8.214446   8.797062   7.973431   2.863591
    28  H    2.712983   6.731852   7.886451   8.839841   7.983169
    29  H    0.979622   7.249798   8.511823   8.061355   4.818829
    30  H    3.135266   8.590773   8.592205   9.381333   6.439863
    31  H    7.031392   9.415632   8.616432   7.502793   2.567286
    32  H    6.860845   9.005243   7.332687   7.786235   5.244071
    33  H    3.545633   8.263854   8.047799   8.140024   4.221896
                   26         27         28         29         30
    26  H    0.000000
    27  H    4.328364   0.000000
    28  H    7.462092   5.616760   0.000000
    29  H    4.445807   2.336828   3.672889   0.000000
    30  H    7.674084   3.980687   3.560065   3.552426   0.000000
    31  H    6.419854   4.264482   8.936328   6.379499   6.650595
    32  H    8.390781   5.266087   7.792470   6.658181   5.210527
    33  H    6.321294   2.334325   5.080958   3.328354   2.383563
                   31         32         33
    31  H    0.000000
    32  H    3.471830   0.000000
    33  H    4.284870   3.592589   0.000000
 Stoichiometry    H12O16Si4Zr
 Framework group  C1[X(H12O16Si4Zr)]
 Deg. of freedom    93
 Full point group                 C1      NOp   1
 Largest Abelian subgroup         C1      NOp   1
 Largest concise Abelian subgroup C1      NOp   1
                         Standard orientation:                         
 ---------------------------------------------------------------------
 Center     Atomic      Atomic             Coordinates (Angstroms)
 Number     Number       Type             X           Y           Z
 ---------------------------------------------------------------------
      1         40           0        0.646460   -0.190130   -0.151899
      2          8           0       -0.192120   -0.931310    1.439391
      3          8           0        0.172630    1.703950   -0.190399
      4          8           0       -0.377720   -1.016920   -1.628439
      5          8           0        2.567800   -0.578830   -0.268119
      6         14           0       -1.969240   -1.332160   -1.878289
      7         14           0       -0.989580    2.856810   -0.118089
      8         14           0       -1.674760   -1.051520    2.177061
      9         14           0        4.167480   -0.329840   -0.029249
     10          8           0        4.918040    0.465140   -1.265409
     11          8           0        4.959780   -1.779370    0.104371
     12          8           0        4.249050    0.618470    1.320141
     13          8           0       -2.335740   -2.512450    1.830041
     14          8           0       -2.620900    0.209280    1.641491
     15          8           0       -1.552000   -0.824320    3.796501
     16          8           0       -2.254270   -1.591640   -3.481829
     17          8           0       -2.883710   -0.139120   -1.195569
     18          8           0       -2.460270   -2.685980   -1.045789
     19          8           0       -2.008250    2.456050   -1.396699
     20          8           0       -0.446230    4.381420   -0.415549
     21          8           0       -1.758350    2.867150    1.326421
     22          1           0        5.090830    1.052300    1.498531
     23          1           0        5.342100   -0.089800   -1.929679
     24          1           0        4.535830   -2.467820    0.628321
     25          1           0       -2.407380   -2.745750    0.887121
     26          1           0       -0.933910   -1.385130    4.276381
     27          1           0       -3.029280    0.047050    0.770241
     28          1           0       -0.290290    4.933460    0.359241
     29          1           0       -2.094890    2.003210    1.642661
     30          1           0       -2.608600    3.158070   -1.677299
     31          1           0       -2.566021   -3.491430   -1.564359
     32          1           0       -1.552780   -1.337140   -4.091409
     33          1           0       -2.640460    0.789950   -1.408289
 ---------------------------------------------------------------------
 Rotational constants (GHZ):           0.2129634           0.1351248           0.1254007
 General basis read from cards:  (5D, 7F)
 ======================================================================================================
                                       Pseudopotential Parameters
 ======================================================================================================
  Center     Atomic      Valence      Angular      Power
  Number     Number     Electrons     Momentum     of R      Exponent        Coefficient   SO-Coeffient
 ======================================================================================================
    1         40           12
                                      G and up 
                                                     2        1.0000000        0.00000000    0.00000000
                                      S - G
                                                     2        8.6365280      150.24299400    0.00000000
                                                     2        3.7176390       18.78003600    0.00000000
                                      P - G
                                                     2        7.6267280       33.19279100    0.00000000
                                                     2        7.4532070       66.38903900    0.00000000
                                                     2        3.3583890        4.62072600    0.00000000
                                                     2        3.2297380        9.26027000    0.00000000
                                      D - G
                                                     2        5.9380860       13.99338300    0.00000000
                                                     2        5.8255440       20.99588200    0.00000000
                                                     2        2.2050190        2.28516600    0.00000000
                                                     2        2.2062920        3.44126000    0.00000000
                                      F - G
                                                     2        4.8002150       -5.23932000    0.00000000
                                                     2        4.7989920       -6.98742400    0.00000000
    2          8
                                   No pseudopotential on this center.
    3          8
                                   No pseudopotential on this center.
    4          8
                                   No pseudopotential on this center.
    5          8
                                   No pseudopotential on this center.
    6         14
                                   No pseudopotential on this center.
    7         14
                                   No pseudopotential on this center.
    8         14
                                   No pseudopotential on this center.
    9         14
                                   No pseudopotential on this center.
   10          8
                                   No pseudopotential on this center.
   11          8
                                   No pseudopotential on this center.
   12          8
                                   No pseudopotential on this center.
   13          8
                                   No pseudopotential on this center.
   14          8
                                   No pseudopotential on this center.
   15          8
                                   No pseudopotential on this center.
   16          8
                                   No pseudopotential on this center.
   17          8
                                   No pseudopotential on this center.
   18          8
                                   No pseudopotential on this center.
   19          8
                                   No pseudopotential on this center.
   20          8
                                   No pseudopotential on this center.
   21          8
                                   No pseudopotential on this center.
   22          1
                                   No pseudopotential on this center.
   23          1
                                   No pseudopotential on this center.
   24          1
                                   No pseudopotential on this center.
   25          1
                                   No pseudopotential on this center.
   26          1
                                   No pseudopotential on this center.
   27          1
                                   No pseudopotential on this center.
   28          1
                                   No pseudopotential on this center.
   29          1
                                   No pseudopotential on this center.
   30          1
                                   No pseudopotential on this center.
   31          1
                                   No pseudopotential on this center.
   32          1
                                   No pseudopotential on this center.
   33          1
                                   No pseudopotential on this center.
 ======================================================================================================
 There are   570 symmetry adapted cartesian basis functions of A   symmetry.
 There are   524 symmetry adapted basis functions of A   symmetry.
   524 basis functions,  1074 primitive gaussians,   570 cartesian basis functions
   104 alpha electrons      104 beta electrons
       nuclear repulsion energy      2838.1912960683 Hartrees.
 NAtoms=   33 NActive=   33 NUniq=   33 SFac= 1.00D+00 NAtFMM=   60 NAOKFM=F Big=F
 Integral buffers will be    131072 words long.
 Raffenetti 2 integral format.
 Two-electron integral symmetry is turned on.
 Nuclear repulsion after empirical dispersion term =     2838.1503956411 Hartrees.
 One-electron integrals computed using PRISM.
 PrsmSu:  requested number of processors reduced to:   4 ShMem   1 Linda.
   1 Symmetry operations used in ECPInt.
 ECPInt:  NShTT=   13203 NPrTT=   78401 LenC2=   11536 LenP2D=   44745.
 LDataN:  DoStor=T MaxTD1= 8 Len=  415
 Number of processors reduced to  13 by ecpmxn.
 NBasis=   524 RedAO= T EigKep=  3.14D-05  NBF=   524
 NBsUse=   524 1.00D-06 EigRej= -1.00D+00 NBFU=   524
 Defaulting to unpruned grid for atomic number  40.
 ExpMin= 1.01D-02 ExpMax= 1.61D+04 ExpMxC= 2.43D+03 IAcc=3 IRadAn=         5 AccDes= 0.00D+00
 Harris functional with IExCor=  402 and IRadAn=       5 diagonalized for initial guess.
 HarFok:  IExCor=  402 AccDes= 0.00D+00 IRadAn=         5 IDoV= 1 UseB2=F ITyADJ=14
 ICtDFT=  3500011 ScaDFX=  1.000000  1.000000  1.000000  1.000000
 Defaulting to unpruned grid for atomic number  40.
 FoFCou: FMM=F IPFlag=           0 FMFlag=      100000 FMFlg1=           0
         NFxFlg=           0 DoJE=T BraDBF=F KetDBF=T FulRan=T
         wScrn=  0.000000 ICntrl=       500 IOpCl=  0 I1Cent=   200000004 NGrid=           0
         NMat0=    1 NMatS0=      1 NMatT0=    0 NMatD0=    1 NMtDS0=    0 NMtDT0=    0
 Petite list used in FoFCou.
 Requested convergence on RMS density matrix=1.00D-08 within 128 cycles.
 Requested convergence on MAX density matrix=1.00D-06.
 Requested convergence on             energy=1.00D-06.
 No special actions if energy rises.
 Defaulting to unpruned grid for atomic number  40.
 Defaulting to unpruned grid for atomic number  40.
 Defaulting to unpruned grid for atomic number  40.
 Defaulting to unpruned grid for atomic number  40.
 Defaulting to unpruned grid for atomic number  40.
 Defaulting to unpruned grid for atomic number  40.
 Defaulting to unpruned grid for atomic number  40.
 Defaulting to unpruned grid for atomic number  40.
 Defaulting to unpruned grid for atomic number  40.
 Defaulting to unpruned grid for atomic number  40.
 Defaulting to unpruned grid for atomic number  40.
 Defaulting to unpruned grid for atomic number  40.
 Defaulting to unpruned grid for atomic number  40.
 Defaulting to unpruned grid for atomic number  40.
 Defaulting to unpruned grid for atomic number  40.
 Defaulting to unpruned grid for atomic number  40.
 SCF Done:  E(RB3LYP) =  -2416.94586823     A.U. after   14 cycles
            NFock= 14  Conv=0.35D-08     -V/T= 2.0185

 **********************************************************************

            Population analysis using the SCF Density.

 **********************************************************************

 Orbital symmetries:
       Occupied  (A) (A) (A) (A) (A) (A) (A) (A) (A) (A) (A) (A)
                 (A) (A) (A) (A) (A) (A) (A) (A) (A) (A) (A) (A)
                 (A) (A) (A) (A) (A) (A) (A) (A) (A) (A) (A) (A)
                 (A) (A) (A) (A) (A) (A) (A) (A) (A) (A) (A) (A)
                 (A) (A) (A) (A) (A) (A) (A) (A) (A) (A) (A) (A)
                 (A) (A) (A) (A) (A) (A) (A) (A) (A) (A) (A) (A)
                 (A) (A) (A) (A) (A) (A) (A) (A) (A) (A) (A) (A)
                 (A) (A) (A) (A) (A) (A) (A) (A) (A) (A) (A) (A)
                 (A) (A) (A) (A) (A) (A) (A) (A)
       Virtual   (A) (A) (A) (A) (A) (A) (A) (A) (A) (A) (A) (A)
                 (A) (A) (A) (A) (A) (A) (A) (A) (A) (A) (A) (A)
                 (A) (A) (A) (A) (A) (A) (A) (A) (A) (A) (A) (A)
                 (A) (A) (A) (A) (A) (A) (A) (A) (A) (A) (A) (A)
                 (A) (A) (A) (A) (A) (A) (A) (A) (A) (A) (A) (A)
                 (A) (A) (A) (A) (A) (A) (A) (A) (A) (A) (A) (A)
                 (A) (A) (A) (A) (A) (A) (A) (A) (A) (A) (A) (A)
                 (A) (A) (A) (A) (A) (A) (A) (A) (A) (A) (A) (A)
                 (A) (A) (A) (A) (A) (A) (A) (A) (A) (A) (A) (A)
                 (A) (A) (A) (A) (A) (A) (A) (A) (A) (A) (A) (A)
                 (A) (A) (A) (A) (A) (A) (A) (A) (A) (A) (A) (A)
                 (A) (A) (A) (A) (A) (A) (A) (A) (A) (A) (A) (A)
                 (A) (A) (A) (A) (A) (A) (A) (A) (A) (A) (A) (A)
                 (A) (A) (A) (A) (A) (A) (A) (A) (A) (A) (A) (A)
                 (A) (A) (A) (A) (A) (A) (A) (A) (A) (A) (A) (A)
                 (A) (A) (A) (A) (A) (A) (A) (A) (A) (A) (A) (A)
                 (A) (A) (A) (A) (A) (A) (A) (A) (A) (A) (A) (A)
                 (A) (A) (A) (A) (A) (A) (A) (A) (A) (A) (A) (A)
                 (A) (A) (A) (A) (A) (A) (A) (A) (A) (A) (A) (A)
                 (A) (A) (A) (A) (A) (A) (A) (A) (A) (A) (A) (A)
                 (A) (A) (A) (A) (A) (A) (A) (A) (A) (A) (A) (A)
                 (A) (A) (A) (A) (A) (A) (A) (A) (A) (A) (A) (A)
                 (A) (A) (A) (A) (A) (A) (A) (A) (A) (A) (A) (A)
                 (A) (A) (A) (A) (A) (A) (A) (A) (A) (A) (A) (A)
                 (A) (A) (A) (A) (A) (A) (A) (A) (A) (A) (A) (A)
                 (A) (A) (A) (A) (A) (A) (A) (A) (A) (A) (A) (A)
                 (A) (A) (A) (A) (A) (A) (A) (A) (A) (A) (A) (A)
                 (A) (A) (A) (A) (A) (A) (A) (A) (A) (A) (A) (A)
                 (A) (A) (A) (A) (A) (A) (A) (A) (A) (A) (A) (A)
                 (A) (A) (A) (A) (A) (A) (A) (A) (A) (A) (A) (A)
                 (A) (A) (A) (A) (A) (A) (A) (A) (A) (A) (A) (A)
                 (A) (A) (A) (A) (A) (A) (A) (A) (A) (A) (A) (A)
                 (A) (A) (A) (A) (A) (A) (A) (A) (A) (A) (A) (A)
                 (A) (A) (A) (A) (A) (A) (A) (A) (A) (A) (A) (A)
                 (A) (A) (A) (A) (A) (A) (A) (A) (A) (A) (A) (A)
 The electronic state is 1-A.
 Alpha  occ. eigenvalues --  -66.22773 -66.21720 -66.21652 -66.21000 -19.18512
 Alpha  occ. eigenvalues --  -19.18320 -19.17786 -19.16943 -19.16768 -19.16684
 Alpha  occ. eigenvalues --  -19.16603 -19.16460 -19.16156 -19.15993 -19.15964
 Alpha  occ. eigenvalues --  -19.15515 -19.15444 -19.15268 -19.14840 -19.14597
 Alpha  occ. eigenvalues --   -5.36832  -5.35801  -5.35732  -5.35058  -3.72818
 Alpha  occ. eigenvalues --   -3.72792  -3.72737  -3.71791  -3.71746  -3.71711
 Alpha  occ. eigenvalues --   -3.71698  -3.71693  -3.71656  -3.71039  -3.71020
 Alpha  occ. eigenvalues --   -3.70967  -2.13344  -1.29581  -1.29515  -1.29350
 Alpha  occ. eigenvalues --   -1.05628  -1.04736  -1.04349  -1.03491  -1.02522
 Alpha  occ. eigenvalues --   -1.02121  -1.01427  -1.01156  -1.00944  -1.00671
 Alpha  occ. eigenvalues --   -0.99786  -0.99316  -0.97380  -0.96272  -0.95757
 Alpha  occ. eigenvalues --   -0.95281  -0.60894  -0.59189  -0.59083  -0.58919
 Alpha  occ. eigenvalues --   -0.55546  -0.54494  -0.54065  -0.53208  -0.53069
 Alpha  occ. eigenvalues --   -0.52559  -0.51837  -0.50159  -0.48642  -0.47841
 Alpha  occ. eigenvalues --   -0.47478  -0.47058  -0.43378  -0.42834  -0.41813
 Alpha  occ. eigenvalues --   -0.41481  -0.41230  -0.40552  -0.39822  -0.39437
 Alpha  occ. eigenvalues --   -0.38927  -0.38873  -0.38635  -0.38189  -0.38017
 Alpha  occ. eigenvalues --   -0.37602  -0.37439  -0.37073  -0.36490  -0.36383
 Alpha  occ. eigenvalues --   -0.36187  -0.35814  -0.35434  -0.35263  -0.34932
 Alpha  occ. eigenvalues --   -0.34451  -0.34062  -0.33764  -0.33582  -0.33061
 Alpha  occ. eigenvalues --   -0.32668  -0.32242  -0.31983  -0.31286
 Alpha virt. eigenvalues --   -0.04397  -0.03155  -0.03017  -0.02913  -0.02064
 Alpha virt. eigenvalues --   -0.01348  -0.00555  -0.00207  -0.00045   0.00227
 Alpha virt. eigenvalues --    0.00708   0.00868   0.00958   0.01865   0.02192
 Alpha virt. eigenvalues --    0.02964   0.03292   0.03841   0.03891   0.04134
 Alpha virt. eigenvalues --    0.04339   0.04764   0.05841   0.05965   0.06127
 Alpha virt. eigenvalues --    0.06366   0.07023   0.07575   0.07590   0.08336
 Alpha virt. eigenvalues --    0.08584   0.08798   0.09119   0.09497   0.09786
 Alpha virt. eigenvalues --    0.10356   0.10640   0.10914   0.11105   0.11595
 Alpha virt. eigenvalues --    0.11837   0.12536   0.13162   0.13363   0.13858
 Alpha virt. eigenvalues --    0.14009   0.14107   0.14872   0.15014   0.15247
 Alpha virt. eigenvalues --    0.15500   0.15722   0.16191   0.16576   0.16856
 Alpha virt. eigenvalues --    0.17134   0.17372   0.17659   0.17756   0.18510
 Alpha virt. eigenvalues --    0.18652   0.18823   0.19040   0.19360   0.19663
 Alpha virt. eigenvalues --    0.19821   0.20309   0.20888   0.21206   0.21326
 Alpha virt. eigenvalues --    0.21469   0.21848   0.22266   0.22452   0.23264
 Alpha virt. eigenvalues --    0.23624   0.23935   0.24036   0.24362   0.24647
 Alpha virt. eigenvalues --    0.24933   0.25569   0.25681   0.25945   0.26110
 Alpha virt. eigenvalues --    0.26446   0.26686   0.26808   0.27234   0.27656
 Alpha virt. eigenvalues --    0.27754   0.28411   0.28477   0.28706   0.28848
 Alpha virt. eigenvalues --    0.29551   0.29994   0.30073   0.30549   0.30610
 Alpha virt. eigenvalues --    0.30776   0.31141   0.31370   0.31668   0.32154
 Alpha virt. eigenvalues --    0.32461   0.32791   0.33218   0.33515   0.34140
 Alpha virt. eigenvalues --    0.34304   0.34957   0.35386   0.35856   0.36443
 Alpha virt. eigenvalues --    0.36605   0.37641   0.38541   0.38730   0.39071
 Alpha virt. eigenvalues --    0.39285   0.40217   0.40341   0.40943   0.41264
 Alpha virt. eigenvalues --    0.41492   0.42206   0.43169   0.43916   0.44033
 Alpha virt. eigenvalues --    0.45229   0.45822   0.46363   0.46715   0.47009
 Alpha virt. eigenvalues --    0.47172   0.48446   0.48583   0.49002   0.49565
 Alpha virt. eigenvalues --    0.49965   0.50373   0.51616   0.52229   0.53119
 Alpha virt. eigenvalues --    0.53926   0.54246   0.55527   0.56714   0.57019
 Alpha virt. eigenvalues --    0.57839   0.58378   0.59074   0.60060   0.60196
 Alpha virt. eigenvalues --    0.60721   0.61522   0.61941   0.64656   0.66115
 Alpha virt. eigenvalues --    0.66584   0.67157   0.68230   0.69052   0.69607
 Alpha virt. eigenvalues --    0.70186   0.70863   0.72832   0.73940   0.74886
 Alpha virt. eigenvalues --    0.75359   0.77162   0.78680   0.78685   0.80153
 Alpha virt. eigenvalues --    0.81049   0.81499   0.83224   0.83576   0.85473
 Alpha virt. eigenvalues --    0.86604   0.87839   0.90308   0.90556   0.91001
 Alpha virt. eigenvalues --    0.93687   0.95777   0.96240   0.96767   0.97485
 Alpha virt. eigenvalues --    0.98057   0.98628   0.99053   0.99330   1.00157
 Alpha virt. eigenvalues --    1.00357   1.01148   1.01821   1.03335   1.03561
 Alpha virt. eigenvalues --    1.04503   1.04602   1.05484   1.06769   1.08090
 Alpha virt. eigenvalues --    1.09658   1.12207   1.15258   1.16236   1.16755
 Alpha virt. eigenvalues --    1.18754   1.19101   1.20054   1.20442   1.20838
 Alpha virt. eigenvalues --    1.21618   1.22122   1.22170   1.22476   1.23681
 Alpha virt. eigenvalues --    1.23979   1.24134   1.24257   1.25132   1.25486
 Alpha virt. eigenvalues --    1.25816   1.26580   1.27629   1.27853   1.28661
 Alpha virt. eigenvalues --    1.28809   1.29446   1.30353   1.30544   1.31596
 Alpha virt. eigenvalues --    1.32027   1.32692   1.33680   1.33766   1.34853
 Alpha virt. eigenvalues --    1.35467   1.36367   1.36691   1.37149   1.38532
 Alpha virt. eigenvalues --    1.38843   1.39874   1.40118   1.40619   1.41516
 Alpha virt. eigenvalues --    1.41908   1.42723   1.43855   1.44556   1.45421
 Alpha virt. eigenvalues --    1.47360   1.49557   1.51046   1.52099   1.52658
 Alpha virt. eigenvalues --    1.56698   1.57150   1.58535   1.59424   1.59616
 Alpha virt. eigenvalues --    1.60107   1.60928   1.61082   1.62215   1.62685
 Alpha virt. eigenvalues --    1.63454   1.64326   1.65088   1.66048   1.66313
 Alpha virt. eigenvalues --    1.67441   1.67536   1.68907   1.69705   1.70082
 Alpha virt. eigenvalues --    1.70745   1.71111   1.71521   1.72953   1.73333
 Alpha virt. eigenvalues --    1.74454   1.75284   1.75651   1.76183   1.76384
 Alpha virt. eigenvalues --    1.76823   1.77844   1.78476   1.79648   1.79893
 Alpha virt. eigenvalues --    1.80357   1.81234   1.82241   1.82376   1.82673
 Alpha virt. eigenvalues --    1.83525   1.84301   1.84644   1.85718   1.86093
 Alpha virt. eigenvalues --    1.87294   1.88117   1.88765   1.89961   1.90155
 Alpha virt. eigenvalues --    1.90956   1.91704   1.92417   1.92880   1.93476
 Alpha virt. eigenvalues --    1.94103   1.95362   1.95783   1.97278   1.98009
 Alpha virt. eigenvalues --    1.98689   2.00015   2.00595   2.02815   2.05419
 Alpha virt. eigenvalues --    2.06224   2.07907   2.09120   2.10132   2.10592
 Alpha virt. eigenvalues --    2.11680   2.13444   2.14273   2.15741   2.16124
 Alpha virt. eigenvalues --    2.16483   2.19558   2.19912   2.21678   2.25454
 Alpha virt. eigenvalues --    2.31866   2.32831   2.36324   2.39492   2.40174
 Alpha virt. eigenvalues --    2.40788   2.41452   2.41934   2.43009   2.43404
 Alpha virt. eigenvalues --    2.44034   2.45353   2.46209   2.47899   2.49012
 Alpha virt. eigenvalues --    2.49365   2.50444   2.50828   2.52996   2.53450
 Alpha virt. eigenvalues --    2.54653   2.58061   2.59543   2.60035   2.60833
 Alpha virt. eigenvalues --    2.61086   2.61628   2.61819   2.62282   2.62812
 Alpha virt. eigenvalues --    2.63237   2.63571   2.64955   2.65308   2.65682
 Alpha virt. eigenvalues --    2.66323   2.66638   2.67248   2.67648   2.67931
 Alpha virt. eigenvalues --    2.69406   2.71055   2.71310   2.71898   2.73199
 Alpha virt. eigenvalues --    2.73940   2.75204   2.75943   2.76631   2.78057
 Alpha virt. eigenvalues --    2.79571   2.80372   2.81064   2.83062   2.83430
 Alpha virt. eigenvalues --    2.83864   2.84963   2.86498   2.87677   2.88169
 Alpha virt. eigenvalues --    3.15972   3.22078   3.36927   3.40804   3.46437
 Alpha virt. eigenvalues --    3.47704   3.48656   3.48824   3.48888   3.51758
 Alpha virt. eigenvalues --    3.52765   3.53744   3.59986   3.61200   3.62157
 Alpha virt. eigenvalues --    3.65897   4.39155   4.68111   7.76549  31.23430
          Condensed to atoms (all electrons):
               1          2          3          4          5          6
     1  Zr  15.162828  -0.045958  -0.004008  -0.142041  -0.182237  -0.722042
     2  O   -0.045958   8.852903   0.014306  -0.043964  -0.051955   0.065442
     3  O   -0.004008   0.014306   8.832416   0.016309  -0.048048  -0.003280
     4  O   -0.142041  -0.043964   0.016309   8.822317  -0.063769  -0.710392
     5  O   -0.182237  -0.051955  -0.048048  -0.063769   9.333217  -0.006167
     6  Si  -0.722042   0.065442  -0.003280  -0.710392  -0.006167  14.184687
     7  Si  -0.591346  -0.021015  -0.875211  -0.010648  -0.031338   0.095756
     8  Si  -0.675546  -0.755661  -0.022966   0.070949  -0.011681   0.026566
     9  Si  -0.295561  -0.029587  -0.009528  -0.018136  -1.092812   0.044821
    10  O   -0.033972   0.000728  -0.001637  -0.000280   0.117169  -0.001377
    11  O   -0.109118   0.002215   0.003355   0.002272   0.331391   0.000055
    12  O    0.054523   0.001414   0.005564   0.001602   0.113250  -0.003119
    13  O   -0.002600   0.259638   0.001504  -0.015337  -0.000605   0.027765
    14  O   -0.043437   0.248592  -0.017693  -0.002812   0.000496   0.009780
    15  O   -0.057430   0.256507   0.000285   0.002538   0.000819  -0.005582
    16  O   -0.129704   0.005525  -0.000381   0.348972   0.003381  -0.445910
    17  O   -0.093957  -0.039231   0.010261   0.210578   0.000616  -0.441555
    18  O   -0.028470  -0.019256   0.003652   0.207652  -0.001231  -0.481525
    19  O    0.002530   0.008155   0.274607   0.013159   0.002385  -0.009314
    20  O   -0.136720  -0.000776   0.151892  -0.000605   0.001192   0.010031
    21  O    0.033401   0.010971   0.155839   0.003883   0.000402  -0.014725
    22  H   -0.012419  -0.000002   0.000047  -0.000004   0.006144   0.000122
    23  H   -0.007282  -0.000009  -0.000006  -0.000033  -0.024158   0.000142
    24  H   -0.006391  -0.000059  -0.000003   0.000007  -0.002752   0.000140
    25  H    0.021361  -0.021805  -0.000130  -0.000992  -0.000015   0.000770
    26  H   -0.007684  -0.012586   0.000016  -0.000012  -0.000020   0.000220
    27  H    0.007542  -0.020638   0.000733  -0.001618   0.000036   0.009825
    28  H    0.004438  -0.000011  -0.017961  -0.000013  -0.000010  -0.000279
    29  H   -0.000309  -0.005172  -0.019714  -0.000195  -0.000059   0.000677
    30  H   -0.000334  -0.000009   0.000086  -0.000492  -0.000008  -0.000434
    31  H    0.003491   0.000287  -0.000021  -0.018142  -0.000018   0.060890
    32  H    0.002542  -0.000029   0.000035   0.011231   0.000008   0.019284
    33  H   -0.014679   0.000939  -0.010414  -0.009511  -0.000083   0.052370
               7          8          9         10         11         12
     1  Zr  -0.591346  -0.675546  -0.295561  -0.033972  -0.109118   0.054523
     2  O   -0.021015  -0.755661  -0.029587   0.000728   0.002215   0.001414
     3  O   -0.875211  -0.022966  -0.009528  -0.001637   0.003355   0.005564
     4  O   -0.010648   0.070949  -0.018136  -0.000280   0.002272   0.001602
     5  O   -0.031338  -0.011681  -1.092812   0.117169   0.331391   0.113250
     6  Si   0.095756   0.026566   0.044821  -0.001377   0.000055  -0.003119
     7  Si  13.763999   0.172216   0.020551   0.001496  -0.000798   0.002426
     8  Si   0.172216  13.752027   0.038103  -0.001465   0.001969  -0.002474
     9  Si   0.020551   0.038103  13.923254  -0.019712  -0.186375  -0.175662
    10  O    0.001496  -0.001465  -0.019712   8.514524   0.000805   0.041004
    11  O   -0.000798   0.001969  -0.186375   0.000805   8.559782  -0.053305
    12  O    0.002426  -0.002474  -0.175662   0.041004  -0.053305   8.595005
    13  O    0.003075  -0.145742  -0.000520  -0.000001   0.000016  -0.000022
    14  O    0.017458  -0.492331  -0.000631  -0.000002   0.000005   0.000015
    15  O   -0.003153  -0.382025  -0.000896  -0.000001  -0.000016   0.000024
    16  O    0.003739  -0.009855  -0.001173   0.000006  -0.000010  -0.000001
    17  O   -0.001590   0.099241   0.003181   0.000005   0.000005  -0.000009
    18  O   -0.001684   0.081478   0.003664   0.000004   0.000007   0.000004
    19  O   -0.432332  -0.018181   0.000833   0.000007   0.000000  -0.000072
    20  O   -0.095559   0.009393   0.003285   0.000039  -0.000003  -0.000056
    21  O    0.019511  -0.047588  -0.001627  -0.000002   0.000002   0.000000
    22  H   -0.000017   0.000152   0.049017  -0.005646  -0.004857   0.220836
    23  H   -0.000001   0.000053   0.076799   0.231064  -0.005089   0.005511
    24  H    0.000038   0.000187   0.036389   0.007382   0.239654  -0.006843
    25  H   -0.000332   0.053902  -0.000213  -0.000000  -0.000000  -0.000000
    26  H    0.000561   0.063440  -0.000284   0.000000   0.000000  -0.000003
    27  H    0.000743   0.076100   0.000005   0.000000  -0.000000   0.000000
    28  H    0.056525   0.000074  -0.000162  -0.000000  -0.000000  -0.000002
    29  H    0.048316   0.024024  -0.000090   0.000000  -0.000000  -0.000001
    30  H    0.042306   0.000145   0.000009  -0.000000   0.000000   0.000000
    31  H    0.000094  -0.002889  -0.000059   0.000000  -0.000000   0.000000
    32  H   -0.000611   0.000127  -0.000001  -0.000000   0.000000  -0.000000
    33  H    0.021547  -0.000066   0.000067  -0.000000   0.000000   0.000000
              13         14         15         16         17         18
     1  Zr  -0.002600  -0.043437  -0.057430  -0.129704  -0.093957  -0.028470
     2  O    0.259638   0.248592   0.256507   0.005525  -0.039231  -0.019256
     3  O    0.001504  -0.017693   0.000285  -0.000381   0.010261   0.003652
     4  O   -0.015337  -0.002812   0.002538   0.348972   0.210578   0.207652
     5  O   -0.000605   0.000496   0.000819   0.003381   0.000616  -0.001231
     6  Si   0.027765   0.009780  -0.005582  -0.445910  -0.441555  -0.481525
     7  Si   0.003075   0.017458  -0.003153   0.003739  -0.001590  -0.001684
     8  Si  -0.145742  -0.492331  -0.382025  -0.009855   0.099241   0.081478
     9  Si  -0.000520  -0.000631  -0.000896  -0.001173   0.003181   0.003664
    10  O   -0.000001  -0.000002  -0.000001   0.000006   0.000005   0.000004
    11  O    0.000016   0.000005  -0.000016  -0.000010   0.000005   0.000007
    12  O   -0.000022   0.000015   0.000024  -0.000001  -0.000009   0.000004
    13  O    8.640516   0.024364  -0.115622   0.003906  -0.028569  -0.042260
    14  O    0.024364   8.810514   0.154973   0.002603  -0.028270  -0.022762
    15  O   -0.115622   0.154973   8.779776  -0.000163   0.003865   0.001145
    16  O    0.003906   0.002603  -0.000163   8.913840  -0.096002  -0.102806
    17  O   -0.028569  -0.028270   0.003865  -0.096002   8.943073   0.223729
    18  O   -0.042260  -0.022762   0.001145  -0.102806   0.223729   9.035562
    19  O    0.000231   0.001784   0.000332  -0.000968  -0.030820   0.000145
    20  O    0.000009  -0.001065   0.000005   0.000049  -0.000801   0.000015
    21  O   -0.000475   0.025799   0.000782  -0.000180  -0.005842   0.000399
    22  H   -0.000000  -0.000000   0.000000  -0.000000   0.000000  -0.000000
    23  H    0.000000   0.000000   0.000000  -0.000000   0.000000   0.000000
    24  H   -0.000000   0.000000   0.000001   0.000000  -0.000000  -0.000000
    25  H    0.216901  -0.009304   0.007490  -0.000255   0.000565   0.015234
    26  H   -0.006670   0.001142   0.225863   0.000000  -0.000021   0.000009
    27  H   -0.004536   0.206749   0.000051   0.000301   0.017829  -0.000804
    28  H    0.000000  -0.000003  -0.000001  -0.000000   0.000003   0.000000
    29  H    0.000779   0.013946  -0.001360  -0.000004  -0.000712  -0.000002
    30  H    0.000001  -0.000002   0.000001   0.000102  -0.000434  -0.000008
    31  H    0.002338   0.000073  -0.000020   0.005098  -0.001213   0.216144
    32  H   -0.000007  -0.000006   0.000000   0.236084  -0.003417   0.003905
    33  H    0.000248   0.001972  -0.000055   0.000204   0.229773   0.002254
              19         20         21         22         23         24
     1  Zr   0.002530  -0.136720   0.033401  -0.012419  -0.007282  -0.006391
     2  O    0.008155  -0.000776   0.010971  -0.000002  -0.000009  -0.000059
     3  O    0.274607   0.151892   0.155839   0.000047  -0.000006  -0.000003
     4  O    0.013159  -0.000605   0.003883  -0.000004  -0.000033   0.000007
     5  O    0.002385   0.001192   0.000402   0.006144  -0.024158  -0.002752
     6  Si  -0.009314   0.010031  -0.014725   0.000122   0.000142   0.000140
     7  Si  -0.432332  -0.095559   0.019511  -0.000017  -0.000001   0.000038
     8  Si  -0.018181   0.009393  -0.047588   0.000152   0.000053   0.000187
     9  Si   0.000833   0.003285  -0.001627   0.049017   0.076799   0.036389
    10  O    0.000007   0.000039  -0.000002  -0.005646   0.231064   0.007382
    11  O    0.000000  -0.000003   0.000002  -0.004857  -0.005089   0.239654
    12  O   -0.000072  -0.000056   0.000000   0.220836   0.005511  -0.006843
    13  O    0.000231   0.000009  -0.000475  -0.000000   0.000000  -0.000000
    14  O    0.001784  -0.001065   0.025799  -0.000000   0.000000   0.000000
    15  O    0.000332   0.000005   0.000782   0.000000   0.000000   0.000001
    16  O   -0.000968   0.000049  -0.000180  -0.000000  -0.000000   0.000000
    17  O   -0.030820  -0.000801  -0.005842   0.000000   0.000000  -0.000000
    18  O    0.000145   0.000015   0.000399  -0.000000   0.000000  -0.000000
    19  O    8.886030   0.033036   0.025601  -0.000000   0.000000  -0.000000
    20  O    0.033036   8.653595  -0.055749   0.000000   0.000000  -0.000000
    21  O    0.025601  -0.055749   8.486779  -0.000001   0.000000   0.000000
    22  H   -0.000000   0.000000  -0.000001   0.358768   0.000055   0.000110
    23  H    0.000000   0.000000   0.000000   0.000055   0.350766   0.000020
    24  H   -0.000000  -0.000000   0.000000   0.000110   0.000020   0.368210
    25  H   -0.000034   0.000000  -0.000012   0.000000   0.000000   0.000000
    26  H    0.000000  -0.000000   0.000044  -0.000000   0.000000  -0.000000
    27  H   -0.000228   0.000224  -0.004733  -0.000000  -0.000000   0.000000
    28  H    0.004352   0.228949  -0.001587  -0.000000   0.000000  -0.000000
    29  H   -0.008640   0.008078   0.208348   0.000000  -0.000000  -0.000000
    30  H    0.223234  -0.001498  -0.007314   0.000000  -0.000000  -0.000000
    31  H    0.000002  -0.000000  -0.000000  -0.000000   0.000000   0.000000
    32  H    0.000092   0.000000   0.000001  -0.000000  -0.000000  -0.000000
    33  H    0.013334  -0.000068   0.001392  -0.000000  -0.000000  -0.000000
              25         26         27         28         29         30
     1  Zr   0.021361  -0.007684   0.007542   0.004438  -0.000309  -0.000334
     2  O   -0.021805  -0.012586  -0.020638  -0.000011  -0.005172  -0.000009
     3  O   -0.000130   0.000016   0.000733  -0.017961  -0.019714   0.000086
     4  O   -0.000992  -0.000012  -0.001618  -0.000013  -0.000195  -0.000492
     5  O   -0.000015  -0.000020   0.000036  -0.000010  -0.000059  -0.000008
     6  Si   0.000770   0.000220   0.009825  -0.000279   0.000677  -0.000434
     7  Si  -0.000332   0.000561   0.000743   0.056525   0.048316   0.042306
     8  Si   0.053902   0.063440   0.076100   0.000074   0.024024   0.000145
     9  Si  -0.000213  -0.000284   0.000005  -0.000162  -0.000090   0.000009
    10  O   -0.000000   0.000000   0.000000  -0.000000   0.000000  -0.000000
    11  O   -0.000000   0.000000  -0.000000  -0.000000  -0.000000   0.000000
    12  O   -0.000000  -0.000003   0.000000  -0.000002  -0.000001   0.000000
    13  O    0.216901  -0.006670  -0.004536   0.000000   0.000779   0.000001
    14  O   -0.009304   0.001142   0.206749  -0.000003   0.013946  -0.000002
    15  O    0.007490   0.225863   0.000051  -0.000001  -0.001360   0.000001
    16  O   -0.000255   0.000000   0.000301  -0.000000  -0.000004   0.000102
    17  O    0.000565  -0.000021   0.017829   0.000003  -0.000712  -0.000434
    18  O    0.015234   0.000009  -0.000804   0.000000  -0.000002  -0.000008
    19  O   -0.000034   0.000000  -0.000228   0.004352  -0.008640   0.223234
    20  O    0.000000  -0.000000   0.000224   0.228949   0.008078  -0.001498
    21  O   -0.000012   0.000044  -0.004733  -0.001587   0.208348  -0.007314
    22  H    0.000000  -0.000000  -0.000000  -0.000000   0.000000   0.000000
    23  H    0.000000   0.000000  -0.000000   0.000000  -0.000000  -0.000000
    24  H    0.000000  -0.000000   0.000000  -0.000000  -0.000000  -0.000000
    25  H    0.301511  -0.000031   0.000029   0.000000   0.000001   0.000000
    26  H   -0.000031   0.369311  -0.000036   0.000000   0.000018  -0.000000
    27  H    0.000029  -0.000036   0.284820  -0.000000  -0.000993   0.000006
    28  H    0.000000   0.000000  -0.000000   0.349228  -0.000017  -0.000011
    29  H    0.000001   0.000018  -0.000993  -0.000017   0.286025   0.000167
    30  H    0.000000  -0.000000   0.000006  -0.000011   0.000167   0.334557
    31  H   -0.000191   0.000000   0.000014   0.000000   0.000000  -0.000000
    32  H   -0.000001  -0.000000  -0.000000   0.000000  -0.000000  -0.000000
    33  H    0.000005   0.000000  -0.002454  -0.000002   0.000127  -0.001048
              31         32         33
     1  Zr   0.003491   0.002542  -0.014679
     2  O    0.000287  -0.000029   0.000939
     3  O   -0.000021   0.000035  -0.010414
     4  O   -0.018142   0.011231  -0.009511
     5  O   -0.000018   0.000008  -0.000083
     6  Si   0.060890   0.019284   0.052370
     7  Si   0.000094  -0.000611   0.021547
     8  Si  -0.002889   0.000127  -0.000066
     9  Si  -0.000059  -0.000001   0.000067
    10  O    0.000000  -0.000000  -0.000000
    11  O   -0.000000   0.000000   0.000000
    12  O    0.000000  -0.000000   0.000000
    13  O    0.002338  -0.000007   0.000248
    14  O    0.000073  -0.000006   0.001972
    15  O   -0.000020   0.000000  -0.000055
    16  O    0.005098   0.236084   0.000204
    17  O   -0.001213  -0.003417   0.229773
    18  O    0.216144   0.003905   0.002254
    19  O    0.000002   0.000092   0.013334
    20  O   -0.000000   0.000000  -0.000068
    21  O   -0.000000   0.000001   0.001392
    22  H   -0.000000  -0.000000  -0.000000
    23  H    0.000000  -0.000000  -0.000000
    24  H    0.000000  -0.000000  -0.000000
    25  H   -0.000191  -0.000001   0.000005
    26  H    0.000000  -0.000000   0.000000
    27  H    0.000014  -0.000000  -0.002454
    28  H    0.000000   0.000000  -0.000002
    29  H    0.000000  -0.000000   0.000127
    30  H   -0.000000  -0.000000  -0.001048
    31  H    0.327417  -0.000010  -0.000036
    32  H   -0.000010   0.349054   0.000146
    33  H   -0.000036   0.000146   0.270988
 Mulliken charges:
               1
     1  Zr   0.050587
     2  O   -0.659899
     3  O   -0.439908
     4  O   -0.672474
     5  O   -0.393539
     6  Si   2.236357
     7  Si   1.795280
     8  Si   2.098322
     9  Si   1.633052
    10  O   -0.850136
    11  O   -0.781961
    12  O   -0.799607
    13  O   -0.818327
    14  O   -0.901947
    15  O   -0.868131
    16  O   -0.736400
    17  O   -0.970281
    18  O   -1.094195
    19  O   -0.989259
    20  O   -0.806893
    21  O   -0.833318
    22  H    0.387693
    23  H    0.372168
    24  H    0.363911
    25  H    0.415546
    26  H    0.366724
    27  H    0.431032
    28  H    0.376491
    29  H    0.446761
    30  H    0.410978
    31  H    0.406753
    32  H    0.381573
    33  H    0.443049
 Sum of Mulliken charges =  -0.00000
 Mulliken charges with hydrogens summed into heavy atoms:
               1
     1  Zr   0.050587
     2  O   -0.659899
     3  O   -0.439908
     4  O   -0.672474
     5  O   -0.393539
     6  Si   2.236357
     7  Si   1.795280
     8  Si   2.098322
     9  Si   1.633052
    10  O   -0.477968
    11  O   -0.418051
    12  O   -0.411915
    13  O   -0.402782
    14  O   -0.470915
    15  O   -0.501407
    16  O   -0.354827
    17  O   -0.527233
    18  O   -0.687442
    19  O   -0.578281
    20  O   -0.430401
    21  O   -0.386557
 Electronic spatial extent (au):  <R**2>=           9784.7522
 Charge=             -0.0000 electrons
 Dipole moment (field-independent basis, Debye):
    X=              2.9908    Y=             -1.4867    Z=             -3.0469  Tot=              4.5209
 Quadrupole moment (field-independent basis, Debye-Ang):
   XX=           -166.8769   YY=           -151.8496   ZZ=           -158.6944
   XY=             -6.4866   XZ=             13.1432   YZ=              2.6915
 Traceless Quadrupole moment (field-independent basis, Debye-Ang):
   XX=             -7.7366   YY=              7.2907   ZZ=              0.4459
   XY=             -6.4866   XZ=             13.1432   YZ=              2.6915
 Octapole moment (field-independent basis, Debye-Ang**2):
  XXX=             85.9638  YYY=             -6.8722  ZZZ=            -40.4020  XYY=             -6.0001
  XXY=             26.2699  XXZ=            -21.1327  XZZ=             62.7876  YZZ=            -24.8738
  YYZ=             -2.1582  XYZ=             11.7801
 Hexadecapole moment (field-independent basis, Debye-Ang**3):
 XXXX=          -6064.8490 YYYY=          -2760.1115 ZZZZ=          -2260.6352 XXXY=             22.3827
 XXXZ=             82.8181 YYYX=            -15.4067 YYYZ=            169.6717 ZZZX=             33.9165
 ZZZY=            -86.3385 XXYY=          -1491.2973 XXZZ=          -1467.7516 YYZZ=           -923.7987
 XXYZ=             24.1250 YYXZ=            189.3710 ZZXY=            -64.5861
 N-N= 2.838150395641D+03 E-N=-1.138887465820D+04  KE= 2.373154280064D+03
 PrsmSu:  requested number of processors reduced to:   2 ShMem   1 Linda.
 PrsmSu:  requested number of processors reduced to:  10 ShMem   1 Linda.
   1 Symmetry operations used in ECPInt.
 ECPInt:  NShTT=   13203 NPrTT=   78401 LenC2=   11536 LenP2D=   44745.
 LDataN:  DoStor=T MaxTD1= 9 Len=  602
 Number of processors reduced to  14 by ecpmxn.
 Calling FoFJK, ICntrl=      2127 FMM=F ISym2X=0 I1Cent= 0 IOpClX= 0 NMat=1 NMatS=1 NMatT=0.
 CoulSu:  requested number of processors reduced to:  10 ShMem   1 Linda.
 Defaulting to unpruned grid for atomic number  40.
 Defaulting to unpruned grid for atomic number  40.
 Defaulting to unpruned grid for atomic number  40.
 Defaulting to unpruned grid for atomic number  40.
 Defaulting to unpruned grid for atomic number  40.
 Defaulting to unpruned grid for atomic number  40.
 Defaulting to unpruned grid for atomic number  40.
 Defaulting to unpruned grid for atomic number  40.
 Defaulting to unpruned grid for atomic number  40.
 Defaulting to unpruned grid for atomic number  40.
 Defaulting to unpruned grid for atomic number  40.
 Defaulting to unpruned grid for atomic number  40.
 Defaulting to unpruned grid for atomic number  40.
 Defaulting to unpruned grid for atomic number  40.
 Defaulting to unpruned grid for atomic number  40.
 Defaulting to unpruned grid for atomic number  40.
 ***** Axes restored to original set *****
 -------------------------------------------------------------------
 Center     Atomic                   Forces (Hartrees/Bohr)
 Number     Number              X              Y              Z
 -------------------------------------------------------------------
      1       40          -0.000003667   -0.000013048    0.000006134
      2        8          -0.000001355    0.000009136   -0.000005669
      3        8           0.000016343    0.000004003    0.000001580
      4        8          -0.000007665   -0.000000297   -0.000004077
      5        8           0.000000407    0.000004375   -0.000002581
      6       14           0.000003582   -0.000000343    0.000006615
      7       14          -0.000009958    0.000000028    0.000002081
      8       14           0.000001447   -0.000004324   -0.000006911
      9       14          -0.000006164    0.000000620    0.000005263
     10        8          -0.000000246    0.000001929    0.000001257
     11        8           0.000002809    0.000001329    0.000004670
     12        8           0.000007616   -0.000006451    0.000003724
     13        8          -0.000001736    0.000006257    0.000003209
     14        8          -0.000002822    0.000002725   -0.000005315
     15        8          -0.000002806   -0.000003804    0.000003305
     16        8          -0.000008414   -0.000000115    0.000001294
     17        8          -0.000000184   -0.000001812   -0.000003900
     18        8          -0.000001794   -0.000002555   -0.000001938
     19        8          -0.000001257   -0.000005136    0.000003432
     20        8           0.000007888    0.000003603    0.000000248
     21        8           0.000004826    0.000005861   -0.000008777
     22        1          -0.000004596    0.000001289    0.000000486
     23        1           0.000002435   -0.000005892   -0.000000017
     24        1          -0.000003835   -0.000005404    0.000002571
     25        1          -0.000000779   -0.000000378    0.000001161
     26        1          -0.000002050    0.000003878   -0.000000720
     27        1           0.000002337    0.000001219    0.000002534
     28        1          -0.000000391   -0.000000380   -0.000002723
     29        1          -0.000004470   -0.000006064    0.000002907
     30        1           0.000001069    0.000003271   -0.000004556
     31        1           0.000001632    0.000002880    0.000000442
     32        1           0.000008474    0.000000044   -0.000005863
     33        1           0.000003323    0.000003557    0.000000132
 -------------------------------------------------------------------
 Cartesian Forces:  Max     0.000016343 RMS     0.000004551

 GradGradGradGradGradGradGradGradGradGradGradGradGradGradGradGradGradGrad
 Berny optimization.
 FormGI is forming the generalized inverse of G from B-inverse, IUseBI=4.
 Internal  Forces:  Max     0.000018683 RMS     0.000003149
 Search for a local minimum.
 Step number   1 out of a maximum of  148
 All quantities printed in internal units (Hartrees-Bohrs-Radians)
 Mixed Optimization -- En-DIIS/RFO-DIIS
 Second derivative matrix not updated -- first step.
 ITU=  0
     Eigenvalues ---    0.00230   0.00230   0.00230   0.00230   0.03239
     Eigenvalues ---    0.03482   0.03500   0.03541   0.03581   0.03661
     Eigenvalues ---    0.03665   0.03674   0.03688   0.03735   0.03789
     Eigenvalues ---    0.03802   0.03811   0.03828   0.03857   0.03858
     Eigenvalues ---    0.08414   0.09469   0.11097   0.11247   0.11629
     Eigenvalues ---    0.11809   0.11979   0.12095   0.12205   0.12217
     Eigenvalues ---    0.12600   0.12707   0.12970   0.13105   0.13263
     Eigenvalues ---    0.16000   0.16000   0.16000   0.16000   0.16000
     Eigenvalues ---    0.16000   0.16000   0.16000   0.16000   0.16000
     Eigenvalues ---    0.16000   0.16000   0.19184   0.19894   0.19953
     Eigenvalues ---    0.20035   0.20159   0.20200   0.20253   0.20422
     Eigenvalues ---    0.20563   0.20992   0.21009   0.21136   0.21189
     Eigenvalues ---    0.21280   0.25000   0.25000   0.25000   0.37992
     Eigenvalues ---    0.40480   0.40678   0.41116   0.41558   0.42453
     Eigenvalues ---    0.42502   0.42607   0.42768   0.43316   0.43953
     Eigenvalues ---    0.44102   0.44216   0.44422   0.44767   0.44782
     Eigenvalues ---    0.50680   0.51458   0.52211   0.52570   0.54329
     Eigenvalues ---    0.54614   0.54650   0.54671   0.54695   0.54715
     Eigenvalues ---    0.54740   0.548931000.000001000.000001000.00000
     Eigenvalues --- 1000.000001000.000001000.000001000.000001000.00000
     Eigenvalues --- 1000.000001000.000001000.000001000.000001000.00000
     Eigenvalues --- 1000.000001000.000001000.000001000.000001000.00000
     Eigenvalues --- 1000.000001000.000001000.000001000.000001000.00000
     Eigenvalues --- 1000.000001000.000001000.000001000.000001000.00000
     Eigenvalues --- 1000.000001000.000001000.000001000.000001000.00000
     Eigenvalues --- 1000.000001000.000001000.000001000.000001000.00000
     Eigenvalues --- 1000.000001000.000001000.000001000.000001000.00000
     Eigenvalues --- 1000.000001000.000001000.00000
 RFO step:  Lambda= 0.00000000D+00 EMin= 2.30000000D-03
 Linear search not attempted -- first point.
 Iteration  1 RMS(Cart)=  0.00044630 RMS(Int)=  0.00000007
 Iteration  2 RMS(Cart)=  0.00000012 RMS(Int)=  0.00000000
 Iteration  1 RMS(Cart)=  0.00000000 RMS(Int)=  0.00000000
 Variable       Old X    -DE/DX   Delta X   Delta X   Delta X     New X
                                 (Linear)    (Quad)   (Total)
    R1        3.67636  -0.00001   0.00000  -0.00004  -0.00004   3.67633
    R2        3.69031   0.00000   0.00000   0.00000   0.00000   3.69031
    R3        3.73798   0.00000   0.00000   0.00002   0.00002   3.73800
    R4        3.71087  -0.00000   0.00000  -0.00001  -0.00001   3.71086
    R5        3.13764  -0.00000   0.00000  -0.00000  -0.00000   3.13764
    R6        3.09653   0.00001   0.00000   0.00001   0.00001   3.09654
    R7        3.10211  -0.00000   0.00000  -0.00001  -0.00001   3.10210
    R8        3.09248  -0.00000   0.00000  -0.00000  -0.00000   3.09248
    R9        3.11657   0.00000   0.00000   0.00001   0.00001   3.11658
   R10        3.11988  -0.00000   0.00000  -0.00000  -0.00000   3.11988
   R11        3.14342  -0.00000   0.00000  -0.00000  -0.00000   3.14342
   R12        3.18077   0.00000   0.00000   0.00000   0.00000   3.18078
   R13        3.10982   0.00000   0.00000   0.00001   0.00001   3.10983
   R14        3.09230  -0.00000   0.00000  -0.00001  -0.00001   3.09229
   R15        3.10032  -0.00000   0.00000  -0.00001  -0.00001   3.10031
   R16        3.14606   0.00000   0.00000   0.00000   0.00000   3.14606
   R17        3.09896   0.00000   0.00000   0.00001   0.00001   3.09897
   R18        3.11858   0.00000   0.00000   0.00001   0.00001   3.11858
   R19        3.13189   0.00000   0.00000   0.00000   0.00000   3.13190
   R20        3.12051  -0.00000   0.00000  -0.00000  -0.00000   3.12051
   R21        1.82144   0.00000   0.00000   0.00001   0.00001   1.82145
   R22        1.82064   0.00000   0.00000   0.00001   0.00001   1.82065
   R23        1.82104  -0.00000   0.00000  -0.00001  -0.00001   1.82103
   R24        1.84058  -0.00000   0.00000  -0.00000  -0.00000   1.84057
   R25        1.84398  -0.00000   0.00000  -0.00001  -0.00001   1.84397
   R26        1.81928  -0.00000   0.00000  -0.00000  -0.00000   1.81927
   R27        1.82086   0.00001   0.00000   0.00002   0.00002   1.82088
   R28        1.85885   0.00000   0.00000   0.00001   0.00001   1.85886
   R29        1.82126  -0.00000   0.00000  -0.00000  -0.00000   1.82125
   R30        1.82433   0.00000   0.00000   0.00001   0.00001   1.82434
   R31        1.82176  -0.00000   0.00000  -0.00000  -0.00000   1.82176
   R32        1.85122   0.00001   0.00000   0.00002   0.00002   1.85123
    A1        1.85569  -0.00000   0.00000  -0.00004  -0.00004   1.85565
    A2        1.80097   0.00000   0.00000   0.00004   0.00004   1.80101
    A3        1.97659   0.00000   0.00000   0.00000   0.00000   1.97659
    A4        1.83906  -0.00000   0.00000  -0.00001  -0.00001   1.83906
    A5        2.01332  -0.00000   0.00000  -0.00003  -0.00003   2.01329
    A6        1.96025   0.00000   0.00000   0.00004   0.00004   1.96029
    A7        2.45892   0.00001   0.00000   0.00002   0.00002   2.45895
    A8        2.59369  -0.00002   0.00000  -0.00007  -0.00007   2.59361
    A9        2.34042   0.00000   0.00000   0.00000   0.00000   2.34042
   A10        2.73298  -0.00000   0.00000   0.00000   0.00000   2.73298
   A11        1.92384   0.00000   0.00000   0.00000   0.00000   1.92384
   A12        1.91272  -0.00000   0.00000  -0.00002  -0.00002   1.91270
   A13        1.94584   0.00000   0.00000   0.00001   0.00001   1.94585
   A14        2.00429  -0.00000   0.00000  -0.00001  -0.00001   2.00428
   A15        1.88341  -0.00000   0.00000  -0.00000  -0.00000   1.88340
   A16        1.79022   0.00000   0.00000   0.00002   0.00002   1.79024
   A17        1.80104   0.00000   0.00000  -0.00000  -0.00000   1.80104
   A18        1.99287  -0.00000   0.00000  -0.00002  -0.00002   1.99285
   A19        1.95693   0.00000   0.00000   0.00001   0.00001   1.95695
[...]
 Alpha virt. eigenvalues --    3.47704   3.48656   3.48824   3.48889   3.51758
 Alpha virt. eigenvalues --    3.52765   3.53744   3.59988   3.61198   3.62154
 Alpha virt. eigenvalues --    3.65900   4.39168   4.68100   7.76558  31.23428
          Condensed to atoms (all electrons):
               1          2          3          4          5          6
     1  Zr  15.162817  -0.045958  -0.003954  -0.142074  -0.182253  -0.722061
     2  O   -0.045958   8.852978   0.014306  -0.043972  -0.051952   0.065453
     3  O   -0.003954   0.014306   8.832435   0.016307  -0.048047  -0.003279
     4  O   -0.142074  -0.043972   0.016307   8.822330  -0.063772  -0.710457
     5  O   -0.182253  -0.051952  -0.048047  -0.063772   9.333250  -0.006162
     6  Si  -0.722061   0.065453  -0.003279  -0.710457  -0.006162  14.184819
     7  Si  -0.591398  -0.021021  -0.875224  -0.010637  -0.031336   0.095746
     8  Si  -0.675559  -0.755779  -0.022977   0.070967  -0.011685   0.026558
     9  Si  -0.295487  -0.029586  -0.009529  -0.018126  -1.092821   0.044812
    10  O   -0.033984   0.000728  -0.001637  -0.000280   0.117164  -0.001376
    11  O   -0.109122   0.002214   0.003355   0.002272   0.331404   0.000054
    12  O    0.054500   0.001415   0.005564   0.001602   0.113233  -0.003118
    13  O   -0.002586   0.259664   0.001504  -0.015336  -0.000605   0.027767
    14  O   -0.043429   0.248601  -0.017703  -0.002818   0.000496   0.009788
    15  O   -0.057428   0.256519   0.000286   0.002538   0.000819  -0.005581
    16  O   -0.129699   0.005526  -0.000380   0.348979   0.003381  -0.445902
    17  O   -0.093975  -0.039243   0.010247   0.210639   0.000615  -0.441697
    18  O   -0.028427  -0.019262   0.003651   0.207653  -0.001232  -0.481430
    19  O    0.002488   0.008155   0.274615   0.013168   0.002385  -0.009309
    20  O   -0.136739  -0.000776   0.151866  -0.000604   0.001192   0.010034
    21  O    0.033422   0.010972   0.155815   0.003883   0.000402  -0.014727
    22  H   -0.012419  -0.000002   0.000047  -0.000004   0.006145   0.000122
    23  H   -0.007282  -0.000009  -0.000006  -0.000033  -0.024159   0.000142
    24  H   -0.006391  -0.000059  -0.000003   0.000007  -0.002751   0.000140
    25  H    0.021362  -0.021806  -0.000130  -0.000991  -0.000015   0.000764
    26  H   -0.007683  -0.012586   0.000016  -0.000012  -0.000020   0.000220
    27  H    0.007531  -0.020636   0.000734  -0.001620   0.000036   0.009839
    28  H    0.004438  -0.000011  -0.017960  -0.000013  -0.000010  -0.000279
    29  H   -0.000316  -0.005172  -0.019711  -0.000195  -0.000059   0.000678
    30  H   -0.000326  -0.000009   0.000087  -0.000492  -0.000008  -0.000436
    31  H    0.003491   0.000287  -0.000021  -0.018144  -0.000018   0.060890
    32  H    0.002543  -0.000029   0.000035   0.011232   0.000008   0.019283
    33  H   -0.014675   0.000940  -0.010414  -0.009505  -0.000083   0.052365
               7          8          9         10         11         12
     1  Zr  -0.591398  -0.675559  -0.295487  -0.033984  -0.109122   0.054500
     2  O   -0.021021  -0.755779  -0.029586   0.000728   0.002214   0.001415
     3  O   -0.875224  -0.022977  -0.009529  -0.001637   0.003355   0.005564
     4  O   -0.010637   0.070967  -0.018126  -0.000280   0.002272   0.001602
     5  O   -0.031336  -0.011685  -1.092821   0.117164   0.331404   0.113233
     6  Si   0.095746   0.026558   0.044812  -0.001376   0.000054  -0.003118
     7  Si  13.763979   0.172238   0.020551   0.001496  -0.000798   0.002426
     8  Si   0.172238  13.752235   0.038103  -0.001465   0.001969  -0.002473
     9  Si   0.020551   0.038103  13.923144  -0.019687  -0.186391  -0.175612
    10  O    0.001496  -0.001465  -0.019687   8.514513   0.000805   0.040994
    11  O   -0.000798   0.001969  -0.186391   0.000805   8.559799  -0.053302
    12  O    0.002426  -0.002473  -0.175612   0.040994  -0.053302   8.594983
    13  O    0.003074  -0.145814  -0.000521  -0.000001   0.000016  -0.000022
    14  O    0.017461  -0.492382  -0.000632  -0.000002   0.000005   0.000015
    15  O   -0.003157  -0.382017  -0.000895  -0.000001  -0.000016   0.000024
    16  O    0.003744  -0.009853  -0.001173   0.000006  -0.000010  -0.000001
    17  O   -0.001559   0.099260   0.003180   0.000005   0.000005  -0.000009
    18  O   -0.001687   0.081471   0.003663   0.000004   0.000007   0.000004
    19  O   -0.432255  -0.018180   0.000833   0.000007   0.000000  -0.000072
    20  O   -0.095544   0.009393   0.003286   0.000039  -0.000003  -0.000056
    21  O    0.019537  -0.047592  -0.001627  -0.000002   0.000002   0.000001
    22  H   -0.000017   0.000152   0.049012  -0.005645  -0.004856   0.220842
    23  H   -0.000001   0.000053   0.076801   0.231062  -0.005089   0.005511
    24  H    0.000038   0.000188   0.036387   0.007382   0.239652  -0.006843
    25  H   -0.000332   0.053904  -0.000213  -0.000000  -0.000000  -0.000000
    26  H    0.000561   0.063436  -0.000284   0.000000   0.000000  -0.000003
    27  H    0.000744   0.076098   0.000005   0.000000  -0.000000   0.000000
    28  H    0.056527   0.000074  -0.000162  -0.000000  -0.000000  -0.000002
    29  H    0.048317   0.024030  -0.000090   0.000000  -0.000000  -0.000001
    30  H    0.042292   0.000145   0.000009  -0.000000   0.000000   0.000000
    31  H    0.000094  -0.002888  -0.000059   0.000000  -0.000000   0.000000
    32  H   -0.000612   0.000127  -0.000001  -0.000000   0.000000  -0.000000
    33  H    0.021538  -0.000067   0.000068  -0.000000   0.000000   0.000000
              13         14         15         16         17         18
     1  Zr  -0.002586  -0.043429  -0.057428  -0.129699  -0.093975  -0.028427
     2  O    0.259664   0.248601   0.256519   0.005526  -0.039243  -0.019262
     3  O    0.001504  -0.017703   0.000286  -0.000380   0.010247   0.003651
     4  O   -0.015336  -0.002818   0.002538   0.348979   0.210639   0.207653
     5  O   -0.000605   0.000496   0.000819   0.003381   0.000615  -0.001232
     6  Si   0.027767   0.009788  -0.005581  -0.445902  -0.441697  -0.481430
     7  Si   0.003074   0.017461  -0.003157   0.003744  -0.001559  -0.001687
     8  Si  -0.145814  -0.492382  -0.382017  -0.009853   0.099260   0.081471
     9  Si  -0.000521  -0.000632  -0.000895  -0.001173   0.003180   0.003663
    10  O   -0.000001  -0.000002  -0.000001   0.000006   0.000005   0.000004
    11  O    0.000016   0.000005  -0.000016  -0.000010   0.000005   0.000007
    12  O   -0.000022   0.000015   0.000024  -0.000001  -0.000009   0.000004
    13  O    8.640507   0.024361  -0.115621   0.003905  -0.028569  -0.042239
    14  O    0.024361   8.810595   0.154984   0.002604  -0.028295  -0.022762
    15  O   -0.115621   0.154984   8.779754  -0.000163   0.003865   0.001146
    16  O    0.003905   0.002604  -0.000163   8.913827  -0.095971  -0.102849
    17  O   -0.028569  -0.028295   0.003865  -0.095971   8.943182   0.223716
    18  O   -0.042239  -0.022762   0.001146  -0.102849   0.223716   9.035431
    19  O    0.000231   0.001784   0.000332  -0.000967  -0.030815   0.000143
    20  O    0.000009  -0.001064   0.000005   0.000049  -0.000799   0.000015
    21  O   -0.000476   0.025794   0.000782  -0.000180  -0.005851   0.000399
    22  H   -0.000000  -0.000000   0.000000  -0.000000   0.000000  -0.000000
    23  H    0.000000   0.000000   0.000000  -0.000000   0.000000   0.000000
    24  H   -0.000000   0.000000   0.000001   0.000000  -0.000000  -0.000000
    25  H    0.216905  -0.009305   0.007490  -0.000255   0.000566   0.015239
    26  H   -0.006670   0.001142   0.225865   0.000000  -0.000021   0.000009
    27  H   -0.004534   0.206744   0.000051   0.000302   0.017831  -0.000805
    28  H    0.000000  -0.000003  -0.000001  -0.000000   0.000003   0.000000
    29  H    0.000780   0.013943  -0.001360  -0.000004  -0.000712  -0.000002
    30  H    0.000001  -0.000002   0.000001   0.000102  -0.000431  -0.000008
    31  H    0.002337   0.000073  -0.000020   0.005095  -0.001211   0.216152
    32  H   -0.000007  -0.000006   0.000000   0.236083  -0.003417   0.003905
    33  H    0.000248   0.001972  -0.000055   0.000207   0.229770   0.002254
              19         20         21         22         23         24
     1  Zr   0.002488  -0.136739   0.033422  -0.012419  -0.007282  -0.006391
     2  O    0.008155  -0.000776   0.010972  -0.000002  -0.000009  -0.000059
     3  O    0.274615   0.151866   0.155815   0.000047  -0.000006  -0.000003
     4  O    0.013168  -0.000604   0.003883  -0.000004  -0.000033   0.000007
     5  O    0.002385   0.001192   0.000402   0.006145  -0.024159  -0.002751
     6  Si  -0.009309   0.010034  -0.014727   0.000122   0.000142   0.000140
     7  Si  -0.432255  -0.095544   0.019537  -0.000017  -0.000001   0.000038
     8  Si  -0.018180   0.009393  -0.047592   0.000152   0.000053   0.000188
     9  Si   0.000833   0.003286  -0.001627   0.049012   0.076801   0.036387
    10  O    0.000007   0.000039  -0.000002  -0.005645   0.231062   0.007382
    11  O    0.000000  -0.000003   0.000002  -0.004856  -0.005089   0.239652
    12  O   -0.000072  -0.000056   0.000001   0.220842   0.005511  -0.006843
    13  O    0.000231   0.000009  -0.000476  -0.000000   0.000000  -0.000000
    14  O    0.001784  -0.001064   0.025794  -0.000000   0.000000   0.000000
    15  O    0.000332   0.000005   0.000782   0.000000   0.000000   0.000001
    16  O   -0.000967   0.000049  -0.000180  -0.000000  -0.000000   0.000000
    17  O   -0.030815  -0.000799  -0.005851   0.000000   0.000000  -0.000000
    18  O    0.000143   0.000015   0.000399  -0.000000   0.000000  -0.000000
    19  O    8.885969   0.033010   0.025586  -0.000000   0.000000  -0.000000
    20  O    0.033010   8.653620  -0.055747   0.000000   0.000000  -0.000000
    21  O    0.025586  -0.055747   8.486797  -0.000001   0.000000   0.000000
    22  H   -0.000000   0.000000  -0.000001   0.358764   0.000055   0.000110
    23  H    0.000000   0.000000   0.000000   0.000055   0.350767   0.000020
    24  H   -0.000000  -0.000000   0.000000   0.000110   0.000020   0.368212
    25  H   -0.000034   0.000000  -0.000012   0.000000   0.000000   0.000000
    26  H    0.000000  -0.000000   0.000044  -0.000000   0.000000  -0.000000
    27  H   -0.000229   0.000224  -0.004734  -0.000000  -0.000000   0.000000
    28  H    0.004352   0.228948  -0.001587  -0.000000   0.000000  -0.000000
    29  H   -0.008639   0.008078   0.208344   0.000000  -0.000000  -0.000000
    30  H    0.223241  -0.001499  -0.007313   0.000000  -0.000000  -0.000000
    31  H    0.000002  -0.000000  -0.000000  -0.000000   0.000000   0.000000
    32  H    0.000092   0.000000   0.000001  -0.000000  -0.000000  -0.000000
    33  H    0.013351  -0.000069   0.001394  -0.000000  -0.000000  -0.000000
              25         26         27         28         29         30
     1  Zr   0.021362  -0.007683   0.007531   0.004438  -0.000316  -0.000326
     2  O   -0.021806  -0.012586  -0.020636  -0.000011  -0.005172  -0.000009
     3  O   -0.000130   0.000016   0.000734  -0.017960  -0.019711   0.000087
     4  O   -0.000991  -0.000012  -0.001620  -0.000013  -0.000195  -0.000492
     5  O   -0.000015  -0.000020   0.000036  -0.000010  -0.000059  -0.000008
     6  Si   0.000764   0.000220   0.009839  -0.000279   0.000678  -0.000436
     7  Si  -0.000332   0.000561   0.000744   0.056527   0.048317   0.042292
     8  Si   0.053904   0.063436   0.076098   0.000074   0.024030   0.000145
     9  Si  -0.000213  -0.000284   0.000005  -0.000162  -0.000090   0.000009
    10  O   -0.000000   0.000000   0.000000  -0.000000   0.000000  -0.000000
    11  O   -0.000000   0.000000  -0.000000  -0.000000  -0.000000   0.000000
    12  O   -0.000000  -0.000003   0.000000  -0.000002  -0.000001   0.000000
    13  O    0.216905  -0.006670  -0.004534   0.000000   0.000780   0.000001
    14  O   -0.009305   0.001142   0.206744  -0.000003   0.013943  -0.000002
    15  O    0.007490   0.225865   0.000051  -0.000001  -0.001360   0.000001
    16  O   -0.000255   0.000000   0.000302  -0.000000  -0.000004   0.000102
    17  O    0.000566  -0.000021   0.017831   0.000003  -0.000712  -0.000431
    18  O    0.015239   0.000009  -0.000805   0.000000  -0.000002  -0.000008
    19  O   -0.000034   0.000000  -0.000229   0.004352  -0.008639   0.223241
    20  O    0.000000  -0.000000   0.000224   0.228948   0.008078  -0.001499
    21  O   -0.000012   0.000044  -0.004734  -0.001587   0.208344  -0.007313
    22  H    0.000000  -0.000000  -0.000000  -0.000000   0.000000   0.000000
    23  H    0.000000   0.000000  -0.000000   0.000000  -0.000000  -0.000000
    24  H    0.000000  -0.000000   0.000000  -0.000000  -0.000000  -0.000000
    25  H    0.301533  -0.000031   0.000029   0.000000   0.000001   0.000000
    26  H   -0.000031   0.369310  -0.000036   0.000000   0.000018  -0.000000
    27  H    0.000029  -0.000036   0.284802  -0.000000  -0.000992   0.000006
    28  H    0.000000   0.000000  -0.000000   0.349227  -0.000017  -0.000011
    29  H    0.000001   0.000018  -0.000992  -0.000017   0.286011   0.000167
    30  H    0.000000  -0.000000   0.000006  -0.000011   0.000167   0.334557
    31  H   -0.000191   0.000000   0.000014   0.000000   0.000000  -0.000000
    32  H   -0.000001  -0.000000  -0.000000   0.000000  -0.000000  -0.000000
    33  H    0.000005   0.000000  -0.002455  -0.000002   0.000127  -0.001050
              31         32         33
     1  Zr   0.003491   0.002543  -0.014675
     2  O    0.000287  -0.000029   0.000940
     3  O   -0.000021   0.000035  -0.010414
     4  O   -0.018144   0.011232  -0.009505
     5  O   -0.000018   0.000008  -0.000083
     6  Si   0.060890   0.019283   0.052365
     7  Si   0.000094  -0.000612   0.021538
     8  Si  -0.002888   0.000127  -0.000067
     9  Si  -0.000059  -0.000001   0.000068
    10  O    0.000000  -0.000000  -0.000000
    11  O   -0.000000   0.000000   0.000000
    12  O    0.000000  -0.000000   0.000000
    13  O    0.002337  -0.000007   0.000248
    14  O    0.000073  -0.000006   0.001972
    15  O   -0.000020   0.000000  -0.000055
    16  O    0.005095   0.236083   0.000207
    17  O   -0.001211  -0.003417   0.229770
    18  O    0.216152   0.003905   0.002254
    19  O    0.000002   0.000092   0.013351
    20  O   -0.000000   0.000000  -0.000069
    21  O   -0.000000   0.000001   0.001394
    22  H   -0.000000  -0.000000  -0.000000
    23  H    0.000000  -0.000000  -0.000000
    24  H    0.000000  -0.000000  -0.000000
    25  H   -0.000191  -0.000001   0.000005
    26  H    0.000000  -0.000000   0.000000
    27  H    0.000014  -0.000000  -0.002455
    28  H    0.000000   0.000000  -0.000002
    29  H    0.000000  -0.000000   0.000127
    30  H   -0.000000  -0.000000  -0.001050
    31  H    0.327420  -0.000010  -0.000036
    32  H   -0.000010   0.349055   0.000146
    33  H   -0.000036   0.000146   0.270980
 Mulliken charges:
               1
     1  Zr   0.050633
     2  O   -0.659887
     3  O   -0.439893
     4  O   -0.672492
     5  O   -0.393542
     6  Si   2.236338
     7  Si   1.795214
     8  Si   2.098330
     9  Si   1.633042
    10  O   -0.850127
    11  O   -0.781973
    12  O   -0.799598
    13  O   -0.818309
    14  O   -0.901960
    15  O   -0.868148
    16  O   -0.736400
    17  O   -0.970308
    18  O   -1.094160
    19  O   -0.989244
    20  O   -0.806868
    21  O   -0.833326
    22  H    0.387693
    23  H    0.372168
    24  H    0.363910
    25  H    0.415518
    26  H    0.366726
    27  H    0.431052
    28  H    0.376491
    29  H    0.446779
    30  H    0.410979
    31  H    0.406745
    32  H    0.381573
    33  H    0.443047
 Sum of Mulliken charges =  -0.00000
 Mulliken charges with hydrogens summed into heavy atoms:
               1
     1  Zr   0.050633
     2  O   -0.659887
     3  O   -0.439893
     4  O   -0.672492
     5  O   -0.393542
     6  Si   2.236338
     7  Si   1.795214
     8  Si   2.098330
     9  Si   1.633042
    10  O   -0.477959
    11  O   -0.418063
    12  O   -0.411906
    13  O   -0.402791
    14  O   -0.470908
    15  O   -0.501423
    16  O   -0.354827
    17  O   -0.527261
    18  O   -0.687415
    19  O   -0.578265
    20  O   -0.430377
    21  O   -0.386547
 Electronic spatial extent (au):  <R**2>=           9784.7059
 Charge=             -0.0000 electrons
 Dipole moment (field-independent basis, Debye):
    X=              2.9905    Y=             -1.4871    Z=             -3.0469  Tot=              4.5208
 Quadrupole moment (field-independent basis, Debye-Ang):
   XX=           -166.8780   YY=           -151.8503   ZZ=           -158.6937
   XY=             -6.4867   XZ=             13.1431   YZ=              2.6920
 Traceless Quadrupole moment (field-independent basis, Debye-Ang):
   XX=             -7.7373   YY=              7.2904   ZZ=              0.4470
   XY=             -6.4867   XZ=             13.1431   YZ=              2.6920
 Octapole moment (field-independent basis, Debye-Ang**2):
  XXX=             85.9581  YYY=             -6.8819  ZZZ=            -40.4011  XYY=             -6.0021
  XXY=             26.2682  XXZ=            -21.1331  XZZ=             62.7874  YZZ=            -24.8626
  YYZ=             -2.1616  XYZ=             11.7816
 Hexadecapole moment (field-independent basis, Debye-Ang**3):
 XXXX=          -6064.9148 YYYY=          -2760.0227 ZZZZ=          -2260.6218 XXXY=             22.3958
 XXXZ=             82.7760 YYYX=            -15.4390 YYYZ=            169.7164 ZZZX=             33.9085
 ZZZY=            -86.3216 XXYY=          -1491.3094 XXZZ=          -1467.7445 YYZZ=           -923.7927
 XXYZ=             24.1073 YYXZ=            189.3574 ZZXY=            -64.5663
 N-N= 2.838156341536D+03 E-N=-1.138888636141D+04  KE= 2.373154239534D+03
 1\1\GINC-GRA1313\FOpt\RB3LYP\Gen\H12O16Si4Zr1\SARASHS\02-Aug-2020\0\\#
 n B3LYP/Gen Pseudo=cards EmpiricalDispersion=GD3 Opt=modredundant\\Tit
 le\\0,1\Zr,0.6464701701,-0.190125428,-0.1519486821\O,-0.1920848197,-0.
 931207929,1.4393763812\O,0.1726993141,1.7039719877,-0.19041102\O,-0.37
 77756263,-1.0168567553,-1.6284943987\O,2.5678075205,-0.5788215587,-0.2
 681687861\Si,-1.9692906138,-1.332152586,-1.8782735764\Si,-0.9895777058
 ,2.8567773729,-0.1181495961\Si,-1.6747063748,-1.0514260901,2.177076817
 9\Si,4.1674819366,-0.3298761485,-0.0292186433\O,4.9180794055,0.4652412
 184,-1.2652719969\O,4.9597657039,-1.7794311294,0.1042474787\O,4.249048
 0855,0.6182519325,1.3202984712\O,-2.335631275,-2.5124204777,1.83024864
 31\O,-2.6209042947,0.2092840681,1.6413933855\O,-1.5519390168,-0.824071
 1986,3.7964976061\O,-2.2544147036,-1.5914600616,-3.4818298902\O,-2.883
 756963,-0.1392175414,-1.1953697854\O,-2.4602000766,-2.6860965996,-1.04
 59046558\O,-2.0081365383,2.4560018618,-1.3968455842\O,-0.4462440904,4.
 3814188657,-0.4155072239\O,-1.758482495,2.8670277543,1.3262854048\H,5.
 090807763,1.0520916489,1.4987459834\H,5.3421451725,-0.089640536,-1.929
 5930651\H,4.5357820548,-2.4679552818,0.6280801065\H,-2.40727912,-2.745
 8528903,0.8873632803\H,-0.9338039738,-1.3847892171,4.2764235122\H,-3.0
 292776641,0.0469478258,0.7701649616\H,-0.2904085734,4.9334411767,0.359
 3141434\H,-2.0950356665,2.0030635869,1.6424739754\H,-2.6084793812,3.15
 80106671,-1.6774999496\H,-2.5659188246,-3.4914852951,-1.564571613\H,-1
 .5529595757,-1.3368801181,-4.0914304218\H,-2.6405297536,0.7898868754,-
 1.407981263\\Version=ES64L-G16RevB.01\State=1-A\HF=-2416.9458682\RMSD=
 2.798e-09\RMSF=3.762e-06\Dipole=1.1765256,-0.5850896,-1.1987254\Quadru
 pole=-5.7526833,5.4203795,0.3323039,-4.8224644,9.7715842,2.0012468\PG=
 C01 [X(H12O16Si4Zr1)]\\@


 LAW OF COMPENSATION:
      NO CALCULATION IS EVER A COMPLETE FAILURE; IT 
      CAN ALWAYS SERVE AS A BAD EXAMPLE.

                                           -- ANON
 Job cpu time:       0 days  2 hours  8 minutes 22.7 seconds.
 Elapsed time:       0 days  0 hours  9 minutes 35.4 seconds.
 File lengths (MBytes):  RWF=    167 Int=      0 D2E=      0 Chk=     21 Scr=      1
 Normal termination of Gaussian 16 at Sun Aug  2 06:58:05 2020.
