 Entering Gaussian System, Link 0=g16
 Initial command:
 /opt/software/gaussian/g16.b01/l1.exe "/localscratch/sarashs.37192500.0/Gau-17628.inp" -scrdir="/localscratch/sarashs.37192500.0/"
 Entering Link 1 = /opt/software/gaussian/g16.b01/l1.exe PID=     17630.
  
 Copyright (c) 1988-2017, Gaussian, Inc.  All Rights Reserved.
  
 This is part of the Gaussian(R) 16 program.  It is based on
 the Gaussian(R) 09 system (copyright 2009, Gaussian, Inc.),
 the Gaussian(R) 03 system (copyright 2003, Gaussian, Inc.),
 the Gaussian(R) 98 system (copyright 1998, Gaussian, Inc.),
 the Gaussian(R) 94 system (copyright 1995, Gaussian, Inc.),
 the Gaussian 92(TM) system (copyright 1992, Gaussian, Inc.),
 the Gaussian 90(TM) system (copyright 1990, Gaussian, Inc.),
 the Gaussian 88(TM) system (copyright 1988, Gaussian, Inc.),
 the Gaussian 86(TM) system (copyright 1986, Carnegie Mellon
 University), and the Gaussian 82(TM) system (copyright 1983,
 Carnegie Mellon University). Gaussian is a federally registered
 trademark of Gaussian, Inc.
  
 This software contains proprietary and confidential information,
 including trade secrets, belonging to Gaussian, Inc.
  
 This software is provided under written license and may be
 used, copied, transmitted, or stored only in accord with that
 written license.
  
 The following legend is applicable only to US Government
 contracts under FAR:
  
                    RESTRICTED RIGHTS LEGEND
  
 Use, reproduction and disclosure by the US Government is
 subject to restrictions as set forth in subparagraphs (a)
 and (c) of the Commercial Computer Software - Restricted
 Rights clause in FAR 52.227-19.
  
 Gaussian, Inc.
 340 Quinnipiac St., Bldg. 40, Wallingford CT 06492
  
  
 ---------------------------------------------------------------
 Warning -- This program may not be used in any manner that
 competes with the business of Gaussian, Inc. or will provide
 assistance to any competitor of Gaussian, Inc.  The licensee
 of this program is prohibited from giving any competitor of
 Gaussian, Inc. access to this program.  By using this program,
 the user acknowledges that Gaussian, Inc. is engaged in the
 business of creating and licensing software in the field of
 computational chemistry and represents and warrants to the
 licensee that it is not a competitor of Gaussian, Inc. and that
 it will not use this program in any manner prohibited above.
 ---------------------------------------------------------------
  

 Cite this work as:
 Gaussian 16, Revision B.01,
 M. J. Frisch, G. W. Trucks, H. B. Schlegel, G. E. Scuseria, 
 M. A. Robb, J. R. Cheeseman, G. Scalmani, V. Barone, 
 G. A. Petersson, H. Nakatsuji, X. Li, M. Caricato, A. V. Marenich, 
 J. Bloino, B. G. Janesko, R. Gomperts, B. Mennucci, H. P. Hratchian, 
 J. V. Ortiz, A. F. Izmaylov, J. L. Sonnenberg, D. Williams-Young, 
 F. Ding, F. Lipparini, F. Egidi, J. Goings, B. Peng, A. Petrone, 
 T. Henderson, D. Ranasinghe, V. G. Zakrzewski, J. Gao, N. Rega, 
 G. Zheng, W. Liang, M. Hada, M. Ehara, K. Toyota, R. Fukuda, 
 J. Hasegawa, M. Ishida, T. Nakajima, Y. Honda, O. Kitao, H. Nakai, 
 T. Vreven, K. Throssell, J. A. Montgomery, Jr., J. E. Peralta, 
 F. Ogliaro, M. J. Bearpark, J. J. Heyd, E. N. Brothers, K. N. Kudin, 
 V. N. Staroverov, T. A. Keith, R. Kobayashi, J. Normand, 
 K. Raghavachari, A. P. Rendell, J. C. Burant, S. S. Iyengar, 
 J. Tomasi, M. Cossi, J. M. Millam, M. Klene, C. Adamo, R. Cammi, 
 J. W. Ochterski, R. L. Martin, K. Morokuma, O. Farkas, 
 J. B. Foresman, and D. J. Fox, Gaussian, Inc., Wallingford CT, 2016.
 
 ******************************************
 Gaussian 16:  ES64L-G16RevB.01 20-Dec-2017
                12-Aug-2020 
 ******************************************
 %NProcShared=16
 Will use up to   16 processors via shared memory.
 ------------------------------------------------------------------
 #n B3LYP/Gen Pseudo=cards EmpiricalDispersion=GD3 Opt=modredundant
 ------------------------------------------------------------------
 1/18=120,19=15,26=3,38=1/1,3;
 2/9=110,12=2,17=6,18=5,40=1/2;
 3/5=7,11=2,16=1,17=8,25=1,30=1,71=1,74=-5,124=31/1,2,3;
 4//1;
 5/5=2,38=5/2;
 6/7=2,8=2,9=2,10=2,28=1/1;
 7//1,2,3,16;
 1/18=20,19=15,26=3/3(2);
 2/9=110/2;
 99//99;
 2/9=110/2;
 3/5=7,6=1,11=2,16=1,17=8,25=1,30=1,71=1,74=-5,82=7,124=31/1,2,3;
 4/5=5,16=3,69=1/1;
 5/5=2,38=5/2;
 7//1,2,3,16;
 1/18=20,19=15,26=3/3(-5);
 2/9=110/2;
 6/7=2,8=2,9=2,10=2,19=2,28=1/1;
 99/9=1/99;
 -----
 Title
 -----
 Symbolic Z-matrix:
 Charge =  0 Multiplicity = 1
 Zr                    0.65779  -0.12506  -0.07164 
 O                    -0.22285  -0.90624   1.4773 
 O                     0.10302   1.74748  -0.12299 
 O                    -0.2683   -0.97885  -1.59705 
 O                     2.59206  -0.4363   -0.08284 
 Si                   -1.83119  -1.33244  -1.9536 
 Si                   -1.1155    2.84172  -0.08279 
 Si                   -1.72376  -1.15291   2.11517 
 Si                    4.20739  -0.19841   0.02726 
 O                     4.95355  -0.01027  -1.43336 
 O                     4.93487  -1.51632   0.72071 
 O                     4.37708   1.2009    0.88468 
 O                    -2.31924  -2.624     1.69627 
 O                    -2.72422   0.06508   1.55086 
 O                    -1.59734  -1.01957   3.74439 
 O                    -2.00144  -1.55965  -3.57782 
 O                    -2.82509  -0.18676  -1.30145 
 O                    -2.34448  -2.71439  -1.18277 
 O                    -2.04046   2.43957  -1.43023 
 O                    -0.63565   4.40049  -0.29987 
 O                    -1.96551   2.76086   1.31383 
 H                     5.24923   1.61056   0.88113 
 H                     5.3367   -0.80802  -1.81532 
 H                     4.50727  -1.90289   1.49296 
 H                    -2.40577  -2.80951   0.74392 
 H                    -2.38137  -1.22423   4.26535 
 H                    -3.06034  -0.08306   0.64589 
 H                    -0.52731   4.92728   0.50015 
 H                    -2.26909   1.86932   1.58533 
 H                    -2.64854   3.12676  -1.73014 
 H                    -2.30452  -3.52952  -1.69562 
 H                    -1.27114  -1.26305  -4.13223 
 H                    -2.61026   0.75461  -1.48993 
 
 The following ModRedundant input section has been read:
 A       1       5       9 F                                                   
 D       1       5       9      12 F                                           
 D       3       1       5       9 F                                           
 

 GradGradGradGradGradGradGradGradGradGradGradGradGradGradGradGradGradGrad
 Berny optimization.
 Initialization pass.
                           ----------------------------
                           !    Initial Parameters    !
                           ! (Angstroms and Degrees)  !
 --------------------------                            --------------------------
 ! Name  Definition              Value          Derivative Info.                !
 --------------------------------------------------------------------------------
 ! R1    R(1,2)                  1.9455         estimate D2E/DX2                !
 ! R2    R(1,3)                  1.9537         estimate D2E/DX2                !
 ! R3    R(1,4)                  1.9783         estimate D2E/DX2                !
 ! R4    R(1,5)                  1.9592         estimate D2E/DX2                !
 ! R5    R(2,8)                  1.6494         estimate D2E/DX2                !
 ! R6    R(3,7)                  1.6382         estimate D2E/DX2                !
 ! R7    R(4,6)                  1.6416         estimate D2E/DX2                !
 ! R8    R(5,9)                  1.6365         estimate D2E/DX2                !
 ! R9    R(6,16)                 1.6488         estimate D2E/DX2                !
 ! R10   R(6,17)                 1.651          estimate D2E/DX2                !
 ! R11   R(6,18)                 1.6636         estimate D2E/DX2                !
 ! R12   R(7,19)                 1.6831         estimate D2E/DX2                !
 ! R13   R(7,20)                 1.6453         estimate D2E/DX2                !
 ! R14   R(7,21)                 1.6369         estimate D2E/DX2                !
 ! R15   R(8,13)                 1.6414         estimate D2E/DX2                !
 ! R16   R(8,14)                 1.6742         estimate D2E/DX2                !
 ! R17   R(8,15)                 1.6395         estimate D2E/DX2                !
 ! R18   R(9,10)                 1.6509         estimate D2E/DX2                !
 ! R19   R(9,11)                 1.6574         estimate D2E/DX2                !
 ! R20   R(9,12)                 1.6499         estimate D2E/DX2                !
 ! R21   R(10,23)                0.9639         estimate D2E/DX2                !
 ! R22   R(11,24)                0.9637         estimate D2E/DX2                !
 ! R23   R(12,22)                0.9636         estimate D2E/DX2                !
 ! R24   R(13,25)                0.9741         estimate D2E/DX2                !
 ! R25   R(14,27)                0.9767         estimate D2E/DX2                !
 ! R26   R(15,26)                0.9633         estimate D2E/DX2                !
 ! R27   R(16,32)                0.9637         estimate D2E/DX2                !
 ! R28   R(17,33)                0.9838         estimate D2E/DX2                !
 ! R29   R(18,31)                0.9639         estimate D2E/DX2                !
 ! R30   R(19,30)                0.9654         estimate D2E/DX2                !
 ! R31   R(20,28)                0.964          estimate D2E/DX2                !
 ! R32   R(21,29)                0.9802         estimate D2E/DX2                !
 ! A1    A(2,1,3)              106.0959         estimate D2E/DX2                !
 ! A2    A(2,1,4)              103.2214         estimate D2E/DX2                !
 ! A3    A(2,1,5)              112.8091         estimate D2E/DX2                !
 ! A4    A(3,1,4)              105.0977         estimate D2E/DX2                !
 ! A5    A(3,1,5)              115.6243         estimate D2E/DX2                !
 ! A6    A(4,1,5)              112.9055         estimate D2E/DX2                !
 ! A7    A(1,2,8)              141.2479         estimate D2E/DX2                !
 ! A8    A(1,3,7)              148.2962         estimate D2E/DX2                !
 ! A9    A(1,4,6)              134.9216         estimate D2E/DX2                !
 ! A10   A(1,5,9)              162.0002         Frozen                          !
 ! A11   A(4,6,16)             109.9952         estimate D2E/DX2                !
 ! A12   A(4,6,17)             109.7479         estimate D2E/DX2                !
 ! A13   A(4,6,18)             111.8422         estimate D2E/DX2                !
 ! A14   A(16,6,17)            114.9972         estimate D2E/DX2                !
 ! A15   A(16,6,18)            108.0658         estimate D2E/DX2                !
 ! A16   A(17,6,18)            101.9869         estimate D2E/DX2                !
 ! A17   A(3,7,19)             103.269          estimate D2E/DX2                !
 ! A18   A(3,7,20)             114.3706         estimate D2E/DX2                !
 ! A19   A(3,7,21)             111.9733         estimate D2E/DX2                !
 ! A20   A(19,7,20)            106.3205         estimate D2E/DX2                !
 ! A21   A(19,7,21)            112.6973         estimate D2E/DX2                !
 ! A22   A(20,7,21)            108.1076         estimate D2E/DX2                !
 ! A23   A(2,8,13)             111.4365         estimate D2E/DX2                !
 ! A24   A(2,8,14)             107.7362         estimate D2E/DX2                !
 ! A25   A(2,8,15)             107.5759         estimate D2E/DX2                !
 ! A26   A(13,8,14)            110.4391         estimate D2E/DX2                !
 ! A27   A(13,8,15)            110.7606         estimate D2E/DX2                !
 ! A28   A(14,8,15)            108.7751         estimate D2E/DX2                !
 ! A29   A(5,9,10)             113.7765         estimate D2E/DX2                !
 ! A30   A(5,9,11)             110.2317         estimate D2E/DX2                !
 ! A31   A(5,9,12)             105.057          estimate D2E/DX2                !
 ! A32   A(10,9,11)            105.2127         estimate D2E/DX2                !
 ! A33   A(10,9,12)            108.4603         estimate D2E/DX2                !
 ! A34   A(11,9,12)            114.3198         estimate D2E/DX2                !
 ! A35   A(9,10,23)            115.8442         estimate D2E/DX2                !
 ! A36   A(9,11,24)            117.3551         estimate D2E/DX2                !
 ! A37   A(9,12,22)            116.8567         estimate D2E/DX2                !
 ! A38   A(8,13,25)            116.8991         estimate D2E/DX2                !
 ! A39   A(8,14,27)            114.056          estimate D2E/DX2                !
 ! A40   A(8,15,26)            117.2166         estimate D2E/DX2                !
 ! A41   A(6,16,32)            116.4907         estimate D2E/DX2                !
 ! A42   A(6,17,33)            117.1859         estimate D2E/DX2                !
 ! A43   A(6,18,31)            116.3076         estimate D2E/DX2                !
 ! A44   A(7,19,30)            115.1373         estimate D2E/DX2                !
 ! A45   A(7,20,28)            116.1676         estimate D2E/DX2                !
 ! A46   A(7,21,29)            116.2372         estimate D2E/DX2                !
 ! D1    D(3,1,2,8)             57.7292         estimate D2E/DX2                !
 ! D2    D(4,1,2,8)            -52.5301         estimate D2E/DX2                !
 ! D3    D(5,1,2,8)           -174.7067         estimate D2E/DX2                !
 ! D4    D(2,1,3,7)            -50.098          estimate D2E/DX2                !
 ! D5    D(4,1,3,7)             58.8315         estimate D2E/DX2                !
 ! D6    D(5,1,3,7)           -175.9641         estimate D2E/DX2                !
 ! D7    D(2,1,4,6)             42.7683         estimate D2E/DX2                !
 ! D8    D(3,1,4,6)            -68.2312         estimate D2E/DX2                !
 ! D9    D(5,1,4,6)            164.8802         estimate D2E/DX2                !
 ! D10   D(2,1,5,9)           -106.925          estimate D2E/DX2                !
 ! D11   D(3,1,5,9)             15.4382         Frozen                          !
 ! D12   D(4,1,5,9)            136.5204         estimate D2E/DX2                !
 ! D13   D(1,2,8,13)            93.5308         estimate D2E/DX2                !
 ! D14   D(1,2,8,14)           -27.7655         estimate D2E/DX2                !
 ! D15   D(1,2,8,15)          -144.8802         estimate D2E/DX2                !
 ! D16   D(1,3,7,19)           -61.1012         estimate D2E/DX2                !
 ! D17   D(1,3,7,20)          -176.1751         estimate D2E/DX2                !
 ! D18   D(1,3,7,21)            60.409          estimate D2E/DX2                !
 ! D19   D(1,4,6,16)           160.167          estimate D2E/DX2                !
 ! D20   D(1,4,6,17)            32.6925         estimate D2E/DX2                !
 ! D21   D(1,4,6,18)           -79.742          estimate D2E/DX2                !
 ! D22   D(1,5,9,10)          -100.1291         estimate D2E/DX2                !
 ! D23   D(1,5,9,11)           141.9685         estimate D2E/DX2                !
 ! D24   D(1,5,9,12)            18.3499         Frozen                          !
 ! D25   D(4,6,16,32)          -14.1998         estimate D2E/DX2                !
 ! D26   D(17,6,16,32)         110.2979         estimate D2E/DX2                !
 ! D27   D(18,6,16,32)        -136.5531         estimate D2E/DX2                !
 ! D28   D(4,6,17,33)           51.0095         estimate D2E/DX2                !
 ! D29   D(16,6,17,33)         -73.6179         estimate D2E/DX2                !
 ! D30   D(18,6,17,33)         169.7166         estimate D2E/DX2                !
 ! D31   D(4,6,18,31)          -96.4424         estimate D2E/DX2                !
 ! D32   D(16,6,18,31)          24.7715         estimate D2E/DX2                !
 ! D33   D(17,6,18,31)         146.349          estimate D2E/DX2                !
 ! D34   D(3,7,19,30)         -162.1837         estimate D2E/DX2                !
 ! D35   D(20,7,19,30)         -41.4662         estimate D2E/DX2                !
 ! D36   D(21,7,19,30)          76.796          estimate D2E/DX2                !
 ! D37   D(3,7,20,28)          -98.427          estimate D2E/DX2                !
 ! D38   D(19,7,20,28)         148.2947         estimate D2E/DX2                !
 ! D39   D(21,7,20,28)          27.0455         estimate D2E/DX2                !
 ! D40   D(3,7,21,29)          -49.8995         estimate D2E/DX2                !
 ! D41   D(19,7,21,29)          66.0156         estimate D2E/DX2                !
 ! D42   D(20,7,21,29)        -176.7753         estimate D2E/DX2                !
 ! D43   D(2,8,13,25)          -58.468          estimate D2E/DX2                !
 ! D44   D(14,8,13,25)          61.2404         estimate D2E/DX2                !
 ! D45   D(15,8,13,25)        -178.1888         estimate D2E/DX2                !
 ! D46   D(2,8,14,27)           80.2918         estimate D2E/DX2                !
 ! D47   D(13,8,14,27)         -41.6247         estimate D2E/DX2                !
 ! D48   D(15,8,14,27)        -163.3756         estimate D2E/DX2                !
 ! D49   D(2,8,15,26)         -174.1994         estimate D2E/DX2                !
 ! D50   D(13,8,15,26)         -52.1897         estimate D2E/DX2                !
 ! D51   D(14,8,15,26)          69.3652         estimate D2E/DX2                !
 ! D52   D(5,9,10,23)          -94.8507         estimate D2E/DX2                !
 ! D53   D(11,9,10,23)          25.9075         estimate D2E/DX2                !
 ! D54   D(12,9,10,23)         148.6399         estimate D2E/DX2                !
 ! D55   D(5,9,11,24)          -43.8201         estimate D2E/DX2                !
 ! D56   D(10,9,11,24)        -166.8794         estimate D2E/DX2                !
 ! D57   D(12,9,11,24)          74.2393         estimate D2E/DX2                !
 ! D58   D(5,9,12,22)         -166.4772         estimate D2E/DX2                !
 ! D59   D(10,9,12,22)         -44.4746         estimate D2E/DX2                !
 ! D60   D(11,9,12,22)          72.5545         estimate D2E/DX2                !
 --------------------------------------------------------------------------------
 Trust Radius=3.00D-01 FncErr=1.00D-07 GrdErr=1.00D-06 EigMax=2.50D+02 EigMin=1.00D-04
 Number of steps in this run=    148 maximum allowed number of steps=    198.
 GradGradGradGradGradGradGradGradGradGradGradGradGradGradGradGradGradGrad

                          Input orientation:                          
 ---------------------------------------------------------------------
 Center     Atomic      Atomic             Coordinates (Angstroms)
 Number     Number       Type             X           Y           Z
 ---------------------------------------------------------------------
      1         40           0        0.657790   -0.125060   -0.071640
      2          8           0       -0.222850   -0.906240    1.477300
      3          8           0        0.103020    1.747480   -0.122990
      4          8           0       -0.268300   -0.978850   -1.597050
      5          8           0        2.592060   -0.436300   -0.082840
      6         14           0       -1.831190   -1.332440   -1.953600
      7         14           0       -1.115500    2.841720   -0.082790
      8         14           0       -1.723760   -1.152910    2.115170
      9         14           0        4.207390   -0.198410    0.027260
     10          8           0        4.953550   -0.010270   -1.433360
     11          8           0        4.934870   -1.516320    0.720710
     12          8           0        4.377080    1.200900    0.884680
     13          8           0       -2.319240   -2.624000    1.696270
     14          8           0       -2.724220    0.065080    1.550860
     15          8           0       -1.597340   -1.019570    3.744390
     16          8           0       -2.001440   -1.559650   -3.577820
     17          8           0       -2.825090   -0.186760   -1.301450
     18          8           0       -2.344480   -2.714390   -1.182770
     19          8           0       -2.040460    2.439570   -1.430230
     20          8           0       -0.635650    4.400490   -0.299870
     21          8           0       -1.965510    2.760860    1.313830
     22          1           0        5.249230    1.610560    0.881130
     23          1           0        5.336700   -0.808020   -1.815320
     24          1           0        4.507270   -1.902890    1.492960
     25          1           0       -2.405770   -2.809510    0.743920
     26          1           0       -2.381370   -1.224230    4.265350
     27          1           0       -3.060340   -0.083060    0.645890
     28          1           0       -0.527310    4.927280    0.500150
     29          1           0       -2.269090    1.869320    1.585330
     30          1           0       -2.648540    3.126760   -1.730140
     31          1           0       -2.304520   -3.529520   -1.695620
     32          1           0       -1.271140   -1.263050   -4.132230
     33          1           0       -2.610260    0.754610   -1.489930
 ---------------------------------------------------------------------
                    Distance matrix (angstroms):
                    1          2          3          4          5
     1  Zr   0.000000
     2  O    1.945504   0.000000
     3  O    1.953666   3.115983   0.000000
     4  O    1.978251   3.075543   3.121475   0.000000
     5  O    1.959183   3.252476   3.311469   3.281593   0.000000
     6  Si   3.345827   3.813067   4.071635   1.641578   4.885484
     7  Si   3.456366   4.156670   1.638221   4.196128   4.948880
     8  Si   3.392697   1.649380   4.093745   3.991145   4.896027
     9  Si   3.551735   4.714941   4.544768   4.824860   1.636461
    10  O    4.507883   6.005816   5.323006   5.313441   2.753551
    11  O    4.566929   5.248495   5.891604   5.721352   2.702017
    12  O    4.062737   5.094172   4.425126   5.699987   2.608221
    13  O    4.270002   2.719099   5.318542   4.214123   5.663226
    14  O    3.755882   2.684348   3.691278   4.126823   5.584191
    15  O    4.521929   2.653632   5.050190   5.504452   5.704294
    16  O    4.628483   5.398571   5.225104   2.695283   5.880225
    17  O    3.694143   3.874372   3.701875   2.692947   5.558129
    18  O    4.117386   3.853141   5.198238   2.737563   5.546978
    19  O    3.962783   4.790812   2.604299   3.854086   5.616612
    20  O    4.712290   5.611606   2.759598   5.545712   5.818913
    21  O    4.138812   4.063399   2.714813   5.033803   5.739683
    22  H    5.000147   6.052550   5.245044   6.579480   3.489903
    23  H    5.039747   6.462166   6.065144   5.611849   3.266912
    24  H    4.519640   4.834004   5.944234   5.762645   2.881330
    25  H    4.154132   2.987545   5.273682   3.660633   5.594101
    26  H    5.408711   3.540275   5.853271   6.236426   6.653014
    27  H    3.786965   3.069237   3.734823   3.691708   5.710118
    28  H    5.220876   5.922624   3.301022   6.272775   6.232041
    29  H    3.910208   3.450000   2.925766   4.716225   5.632890
    30  H    4.925117   5.695325   3.472237   4.747556   6.547739
    31  H    4.796138   4.613282   6.009671   3.265245   6.012118
    32  H    4.637260   5.717784   5.198616   2.741094   5.657331
    33  H    3.669539   4.154829   3.196280   2.915671   5.519266
                    6          7          8          9         10
     6  Si   0.000000
     7  Si   4.629876   0.000000
     8  Si   4.074145   4.599791   0.000000
     9  Si   6.455562   6.130878   6.359951   0.000000
    10  O    6.931917   6.840413   7.647494   1.650928   0.000000
    11  O    7.277727   7.499673   6.812778   1.657404   2.628413
    12  O    7.281227   5.813495   6.653929   1.649858   2.678164
    13  O    3.902290   5.872660   1.641396   7.160027   8.337844
    14  O    3.877087   3.600906   1.674176   7.101972   8.237682
    15  O    5.711363   5.457933   1.639549   6.941632   8.410823
    16  O    1.648848   5.689656   5.714252   7.307472   7.441181
    17  O    1.650975   3.685040   3.717481   7.156911   7.781760
    18  O    1.663560   5.795749   3.701340   7.121891   7.786932
    19  O    3.813892   1.683113   5.057279   6.936775   7.410661
    20  O    6.085279   1.645340   6.152776   6.686698   7.209630
    21  O    5.239203   1.636949   4.002272   6.965431   7.943526
    22  H    8.174918   6.553982   7.601461   2.255415   2.841018
    23  H    7.188378   7.612696   8.088127   2.245455   0.963900
    24  H    7.237421   7.523952   6.306770   2.267919   3.513478
    25  H    3.128657   5.855309   2.256056   7.146001   8.169203
    26  H    6.244177   6.086107   2.249625   7.900979   9.367499
    27  H    3.135141   3.587160   2.256060   7.294923   8.279554
    28  H    6.848729   2.243958   6.403787   6.993833   7.626119
    29  H    4.792395   2.249212   3.116406   6.974803   8.050582
    30  H    4.538993   2.268308   5.827281   7.819782   8.229265
    31  H    2.262246   6.678899   4.528540   7.514624   8.070532
    32  H    2.250533   5.768130   6.264743   6.960539   6.899284
    33  H    2.275460   2.927521   4.173878   7.049146   7.602596
                   11         12         13         14         15
    11  O    0.000000
    12  O    2.778723   0.000000
    13  O    7.402755   7.754305   0.000000
    14  O    7.864581   7.222350   2.723289   0.000000
    15  O    7.215204   6.985852   2.700024   2.694049   0.000000
    16  O    8.160370   8.259544   5.389792   5.428215   7.353213
    17  O    8.128582   7.653497   3.896453   2.865182   5.259415
    18  O    7.618894   8.048802   2.880569   3.916936   5.263795
    19  O    8.302460   6.933825   5.957555   3.872032   6.240088
    20  O    8.190294   6.063662   7.494165   5.155881   6.830662
    21  O    8.140105   6.545693   5.410000   2.810526   4.509415
    22  H    3.146734   0.963576   8.710780   8.149414   7.873459
    23  H    2.663570   3.499519   8.616407   8.779060   8.890222
    24  H    0.963664   3.165512   6.867501   7.494712   6.566236
    25  H    7.453715   7.881006   0.974101   3.002637   3.586121
    26  H    8.134934   7.936424   2.926327   3.024619   0.963321
    27  H    8.123005   7.551211   2.847614   0.976674   3.552200
    28  H    8.450091   6.171451   7.852614   5.437959   6.858213
    29  H    8.006695   6.716344   4.494969   1.861079   3.668579
    30  H    9.223501   7.739868   6.702236   4.488271   6.947485
    31  H    7.893060   8.583624   3.510712   4.861783   6.032716
    32  H    7.882242   7.946246   6.076357   6.014390   7.887131
    33  H    8.183706   7.393299   4.653125   3.120071   5.618881
                   16         17         18         19         20
    16  O    0.000000
    17  O    2.783000   0.000000
    18  O    2.680926   2.575652   0.000000
    19  O    4.539540   2.744055   5.168846   0.000000
    20  O    6.937839   5.180702   7.370287   2.663909   0.000000
    21  O    6.526587   4.033241   6.029510   2.763822   2.657243
    22  H    9.083209   8.555037   8.979382   7.692153   6.618934
    23  H    7.584171   8.201515   7.939452   8.069549   8.068093
    24  H    8.257962   8.032268   7.400307   8.383005   8.330454
    25  H    4.516976   3.352340   1.930010   5.693261   7.497128
    26  H    7.859527   5.680008   5.648358   6.780802   7.451594
    27  H    4.597968   1.964238   3.283344   3.422586   5.184188
    28  H    7.802766   5.888884   8.033022   3.493521   0.963990
    29  H    6.203837   3.587492   5.355227   3.077509   3.553720
    30  H    5.078888   3.345797   5.874615   0.965369   2.778450
    31  H    2.741336   3.405937   0.963872   5.980819   8.223035
    32  H    0.963680   3.403891   3.458000   4.647801   6.867788
    33  H    3.175806   0.983796   3.492699   1.779698   4.313672
                   21         22         23         24         25
    21  O    0.000000
    22  H    7.318667   0.000000
    23  H    8.709234   3.623261   0.000000
    24  H    7.979946   3.642687   3.582096   0.000000
    25  H    5.616729   8.840524   8.396518   7.012356   0.000000
    26  H    4.976480   8.815613   9.834449   7.456547   3.861888
    27  H    3.119724   8.483669   8.780285   7.829306   2.805637
    28  H    2.724678   6.671896   8.523009   8.543061   7.965297
    29  H    0.980162   7.555659   8.751035   7.756104   4.755849
    30  H    3.141045   8.455316   8.902461   9.321554   6.435776
    31  H    6.981447   9.493113   8.112283   7.695028   2.545589
    32  H    6.806877   8.712442   7.017027   8.089634   5.239825
    33  H    3.507394   8.253857   8.105669   8.162057   4.211277
                   26         27         28         29         30
    26  H    0.000000
    27  H    3.855355   0.000000
    28  H    7.446835   5.616136   0.000000
    29  H    4.094529   2.306602   3.682734   0.000000
    30  H    7.412718   4.014728   3.565906   3.566157   0.000000
    31  H    6.391669   4.234622   8.916129   6.317702   6.665254
    32  H    8.470742   5.236797   7.767394   6.595312   5.190154
    33  H    6.090275   2.337946   5.070530   3.288799   2.384588
                   31         32         33
    31  H    0.000000
    32  H    3.484513   0.000000
    33  H    4.299948   3.584124   0.000000
 Stoichiometry    H12O16Si4Zr
 Framework group  C1[X(H12O16Si4Zr)]
 Deg. of freedom    93
 Full point group                 C1      NOp   1
 Largest Abelian subgroup         C1      NOp   1
 Largest concise Abelian subgroup C1      NOp   1
                         Standard orientation:                         
 ---------------------------------------------------------------------
 Center     Atomic      Atomic             Coordinates (Angstroms)
 Number     Number       Type             X           Y           Z
 ---------------------------------------------------------------------
      1         40           0        0.656639   -0.150624   -0.077440
      2          8           0       -0.232836   -0.918119    1.473292
      3          8           0        0.136655    1.732010   -0.123468
      4          8           0       -0.290653   -0.984223   -1.600997
      5          8           0        2.584725   -0.497797   -0.096191
      6         14           0       -1.861125   -1.308003   -1.952514
      7         14           0       -1.061125    2.848668   -0.076922
      8         14           0       -1.735782   -1.137978    2.116152
      9         14           0        4.204589   -0.290221    0.008483
     10          8           0        4.948882   -0.113321   -1.454493
     11          8           0        4.909883   -1.622716    0.696962
     12          8           0        4.403381    1.104111    0.867758
     13          8           0       -2.360052   -2.596956    1.696807
     14          8           0       -2.715404    0.099460    1.557623
     15          8           0       -1.601061   -1.010007    3.745137
     16          8           0       -2.041399   -1.529020   -3.576506
     17          8           0       -2.831173   -0.145219   -1.294744
     18          8           0       -2.397294   -2.681572   -1.182278
     19          8           0       -1.998238    2.466282   -1.421715
     20          8           0       -0.553112    4.398631   -0.292978
     21          8           0       -1.907480    2.781080    1.322620
     22          1           0        5.282990    1.497470    0.861777
     23          1           0        5.315738   -0.917362   -1.839248
     24          1           0        4.477930   -2.002677    1.470069
     25          1           0       -2.453436   -2.779073    0.744450
     26          1           0       -2.386893   -1.200993    4.268568
     27          1           0       -3.057467   -0.040735    0.653615
     28          1           0       -0.432113    4.921843    0.507576
     29          1           0       -2.226634    1.894848    1.593639
     30          1           0       -2.594488    3.165222   -1.718206
     31          1           0       -2.374359   -3.496361   -1.696711
     32          1           0       -1.307695   -1.245049   -4.133030
     33          1           0       -2.599527    0.792333   -1.482334
 ---------------------------------------------------------------------
 Rotational constants (GHZ):           0.2127259           0.1340704           0.1243694
 General basis read from cards:  (5D, 7F)
 ======================================================================================================
                                       Pseudopotential Parameters
 ======================================================================================================
  Center     Atomic      Valence      Angular      Power
  Number     Number     Electrons     Momentum     of R      Exponent        Coefficient   SO-Coeffient
 ======================================================================================================
    1         40           12
                                      G and up 
                                                     2        1.0000000        0.00000000    0.00000000
                                      S - G
                                                     2        8.6365280      150.24299400    0.00000000
                                                     2        3.7176390       18.78003600    0.00000000
                                      P - G
                                                     2        7.6267280       33.19279100    0.00000000
                                                     2        7.4532070       66.38903900    0.00000000
                                                     2        3.3583890        4.62072600    0.00000000
                                                     2        3.2297380        9.26027000    0.00000000
                                      D - G
                                                     2        5.9380860       13.99338300    0.00000000
                                                     2        5.8255440       20.99588200    0.00000000
                                                     2        2.2050190        2.28516600    0.00000000
                                                     2        2.2062920        3.44126000    0.00000000
                                      F - G
                                                     2        4.8002150       -5.23932000    0.00000000
                                                     2        4.7989920       -6.98742400    0.00000000
    2          8
                                   No pseudopotential on this center.
    3          8
                                   No pseudopotential on this center.
    4          8
                                   No pseudopotential on this center.
    5          8
                                   No pseudopotential on this center.
    6         14
                                   No pseudopotential on this center.
    7         14
                                   No pseudopotential on this center.
    8         14
                                   No pseudopotential on this center.
    9         14
                                   No pseudopotential on this center.
   10          8
                                   No pseudopotential on this center.
   11          8
                                   No pseudopotential on this center.
   12          8
                                   No pseudopotential on this center.
   13          8
                                   No pseudopotential on this center.
   14          8
                                   No pseudopotential on this center.
   15          8
                                   No pseudopotential on this center.
   16          8
                                   No pseudopotential on this center.
   17          8
                                   No pseudopotential on this center.
   18          8
                                   No pseudopotential on this center.
   19          8
                                   No pseudopotential on this center.
   20          8
                                   No pseudopotential on this center.
   21          8
                                   No pseudopotential on this center.
   22          1
                                   No pseudopotential on this center.
   23          1
                                   No pseudopotential on this center.
   24          1
                                   No pseudopotential on this center.
   25          1
                                   No pseudopotential on this center.
   26          1
                                   No pseudopotential on this center.
   27          1
                                   No pseudopotential on this center.
   28          1
                                   No pseudopotential on this center.
   29          1
                                   No pseudopotential on this center.
   30          1
                                   No pseudopotential on this center.
   31          1
                                   No pseudopotential on this center.
   32          1
                                   No pseudopotential on this center.
   33          1
                                   No pseudopotential on this center.
 ======================================================================================================
 There are   570 symmetry adapted cartesian basis functions of A   symmetry.
 There are   524 symmetry adapted basis functions of A   symmetry.
   524 basis functions,  1074 primitive gaussians,   570 cartesian basis functions
   104 alpha electrons      104 beta electrons
       nuclear repulsion energy      2834.2178518358 Hartrees.
 NAtoms=   33 NActive=   33 NUniq=   33 SFac= 1.00D+00 NAtFMM=   60 NAOKFM=F Big=F
 Integral buffers will be    131072 words long.
 Raffenetti 2 integral format.
 Two-electron integral symmetry is turned on.
 Nuclear repulsion after empirical dispersion term =     2834.1770267341 Hartrees.
 One-electron integrals computed using PRISM.
 PrsmSu:  requested number of processors reduced to:   4 ShMem   1 Linda.
   1 Symmetry operations used in ECPInt.
 ECPInt:  NShTT=   13203 NPrTT=   78401 LenC2=   11528 LenP2D=   44662.
 LDataN:  DoStor=T MaxTD1= 8 Len=  415
 Number of processors reduced to  13 by ecpmxn.
 NBasis=   524 RedAO= T EigKep=  3.14D-05  NBF=   524
 NBsUse=   524 1.00D-06 EigRej= -1.00D+00 NBFU=   524
 Defaulting to unpruned grid for atomic number  40.
 ExpMin= 1.01D-02 ExpMax= 1.61D+04 ExpMxC= 2.43D+03 IAcc=3 IRadAn=         5 AccDes= 0.00D+00
 Harris functional with IExCor=  402 and IRadAn=       5 diagonalized for initial guess.
 HarFok:  IExCor=  402 AccDes= 0.00D+00 IRadAn=         5 IDoV= 1 UseB2=F ITyADJ=14
 ICtDFT=  3500011 ScaDFX=  1.000000  1.000000  1.000000  1.000000
 Defaulting to unpruned grid for atomic number  40.
 FoFCou: FMM=F IPFlag=           0 FMFlag=      100000 FMFlg1=           0
         NFxFlg=           0 DoJE=T BraDBF=F KetDBF=T FulRan=T
         wScrn=  0.000000 ICntrl=       500 IOpCl=  0 I1Cent=   200000004 NGrid=           0
         NMat0=    1 NMatS0=      1 NMatT0=    0 NMatD0=    1 NMtDS0=    0 NMtDT0=    0
 Petite list used in FoFCou.
 Requested convergence on RMS density matrix=1.00D-08 within 128 cycles.
 Requested convergence on MAX density matrix=1.00D-06.
 Requested convergence on             energy=1.00D-06.
 No special actions if energy rises.
 Defaulting to unpruned grid for atomic number  40.
 Defaulting to unpruned grid for atomic number  40.
 Defaulting to unpruned grid for atomic number  40.
 Defaulting to unpruned grid for atomic number  40.
 Defaulting to unpruned grid for atomic number  40.
 Defaulting to unpruned grid for atomic number  40.
 Defaulting to unpruned grid for atomic number  40.
 Defaulting to unpruned grid for atomic number  40.
 Defaulting to unpruned grid for atomic number  40.
 Defaulting to unpruned grid for atomic number  40.
 Defaulting to unpruned grid for atomic number  40.
 Defaulting to unpruned grid for atomic number  40.
 Defaulting to unpruned grid for atomic number  40.
 Defaulting to unpruned grid for atomic number  40.
 Defaulting to unpruned grid for atomic number  40.
 Defaulting to unpruned grid for atomic number  40.
 SCF Done:  E(RB3LYP) =  -2416.94685461     A.U. after   14 cycles
            NFock= 14  Conv=0.26D-08     -V/T= 2.0185

 **********************************************************************

            Population analysis using the SCF Density.

 **********************************************************************

 Orbital symmetries:
       Occupied  (A) (A) (A) (A) (A) (A) (A) (A) (A) (A) (A) (A)
                 (A) (A) (A) (A) (A) (A) (A) (A) (A) (A) (A) (A)
                 (A) (A) (A) (A) (A) (A) (A) (A) (A) (A) (A) (A)
                 (A) (A) (A) (A) (A) (A) (A) (A) (A) (A) (A) (A)
                 (A) (A) (A) (A) (A) (A) (A) (A) (A) (A) (A) (A)
                 (A) (A) (A) (A) (A) (A) (A) (A) (A) (A) (A) (A)
                 (A) (A) (A) (A) (A) (A) (A) (A) (A) (A) (A) (A)
                 (A) (A) (A) (A) (A) (A) (A) (A) (A) (A) (A) (A)
                 (A) (A) (A) (A) (A) (A) (A) (A)
       Virtual   (A) (A) (A) (A) (A) (A) (A) (A) (A) (A) (A) (A)
                 (A) (A) (A) (A) (A) (A) (A) (A) (A) (A) (A) (A)
                 (A) (A) (A) (A) (A) (A) (A) (A) (A) (A) (A) (A)
                 (A) (A) (A) (A) (A) (A) (A) (A) (A) (A) (A) (A)
                 (A) (A) (A) (A) (A) (A) (A) (A) (A) (A) (A) (A)
                 (A) (A) (A) (A) (A) (A) (A) (A) (A) (A) (A) (A)
                 (A) (A) (A) (A) (A) (A) (A) (A) (A) (A) (A) (A)
                 (A) (A) (A) (A) (A) (A) (A) (A) (A) (A) (A) (A)
                 (A) (A) (A) (A) (A) (A) (A) (A) (A) (A) (A) (A)
                 (A) (A) (A) (A) (A) (A) (A) (A) (A) (A) (A) (A)
                 (A) (A) (A) (A) (A) (A) (A) (A) (A) (A) (A) (A)
                 (A) (A) (A) (A) (A) (A) (A) (A) (A) (A) (A) (A)
                 (A) (A) (A) (A) (A) (A) (A) (A) (A) (A) (A) (A)
                 (A) (A) (A) (A) (A) (A) (A) (A) (A) (A) (A) (A)
                 (A) (A) (A) (A) (A) (A) (A) (A) (A) (A) (A) (A)
                 (A) (A) (A) (A) (A) (A) (A) (A) (A) (A) (A) (A)
                 (A) (A) (A) (A) (A) (A) (A) (A) (A) (A) (A) (A)
                 (A) (A) (A) (A) (A) (A) (A) (A) (A) (A) (A) (A)
                 (A) (A) (A) (A) (A) (A) (A) (A) (A) (A) (A) (A)
                 (A) (A) (A) (A) (A) (A) (A) (A) (A) (A) (A) (A)
                 (A) (A) (A) (A) (A) (A) (A) (A) (A) (A) (A) (A)
                 (A) (A) (A) (A) (A) (A) (A) (A) (A) (A) (A) (A)
                 (A) (A) (A) (A) (A) (A) (A) (A) (A) (A) (A) (A)
                 (A) (A) (A) (A) (A) (A) (A) (A) (A) (A) (A) (A)
                 (A) (A) (A) (A) (A) (A) (A) (A) (A) (A) (A) (A)
                 (A) (A) (A) (A) (A) (A) (A) (A) (A) (A) (A) (A)
                 (A) (A) (A) (A) (A) (A) (A) (A) (A) (A) (A) (A)
                 (A) (A) (A) (A) (A) (A) (A) (A) (A) (A) (A) (A)
                 (A) (A) (A) (A) (A) (A) (A) (A) (A) (A) (A) (A)
                 (A) (A) (A) (A) (A) (A) (A) (A) (A) (A) (A) (A)
                 (A) (A) (A) (A) (A) (A) (A) (A) (A) (A) (A) (A)
                 (A) (A) (A) (A) (A) (A) (A) (A) (A) (A) (A) (A)
                 (A) (A) (A) (A) (A) (A) (A) (A) (A) (A) (A) (A)
                 (A) (A) (A) (A) (A) (A) (A) (A) (A) (A) (A) (A)
                 (A) (A) (A) (A) (A) (A) (A) (A) (A) (A) (A) (A)
 The electronic state is 1-A.
 Alpha  occ. eigenvalues --  -66.22792 -66.21745 -66.21494 -66.21024 -19.18578
 Alpha  occ. eigenvalues --  -19.18342 -19.17777 -19.17015 -19.16724 -19.16536
 Alpha  occ. eigenvalues --  -19.16445 -19.16252 -19.16172 -19.15996 -19.15986
 Alpha  occ. eigenvalues --  -19.15490 -19.15339 -19.15236 -19.14885 -19.14694
 Alpha  occ. eigenvalues --   -5.36852  -5.35825  -5.35572  -5.35084  -3.72836
 Alpha  occ. eigenvalues --   -3.72809  -3.72763  -3.71817  -3.71770  -3.71735
 Alpha  occ. eigenvalues --   -3.71540  -3.71532  -3.71493  -3.71049  -3.71040
 Alpha  occ. eigenvalues --   -3.71015  -2.13346  -1.29592  -1.29506  -1.29348
 Alpha  occ. eigenvalues --   -1.05669  -1.04766  -1.04162  -1.03485  -1.02554
 Alpha  occ. eigenvalues --   -1.02160  -1.01461  -1.00937  -1.00769  -1.00654
 Alpha  occ. eigenvalues --   -0.99821  -0.99293  -0.97365  -0.96269  -0.95718
 Alpha  occ. eigenvalues --   -0.95393  -0.60979  -0.59151  -0.58978  -0.58477
 Alpha  occ. eigenvalues --   -0.55530  -0.54522  -0.53876  -0.53031  -0.53004
 Alpha  occ. eigenvalues --   -0.52480  -0.52136  -0.51697  -0.48765  -0.47591
 Alpha  occ. eigenvalues --   -0.47190  -0.46702  -0.43364  -0.42640  -0.41850
 Alpha  occ. eigenvalues --   -0.41387  -0.41121  -0.40509  -0.39821  -0.39320
 Alpha  occ. eigenvalues --   -0.38803  -0.38670  -0.38648  -0.38137  -0.38005
 Alpha  occ. eigenvalues --   -0.37618  -0.37475  -0.37172  -0.36536  -0.36403
 Alpha  occ. eigenvalues --   -0.36090  -0.35628  -0.35463  -0.35085  -0.34907
 Alpha  occ. eigenvalues --   -0.34595  -0.33991  -0.33694  -0.33471  -0.33251
 Alpha  occ. eigenvalues --   -0.32810  -0.32187  -0.32043  -0.31289
 Alpha virt. eigenvalues --   -0.04316  -0.03143  -0.03027  -0.02756  -0.02082
 Alpha virt. eigenvalues --   -0.01161  -0.00541  -0.00115   0.00135   0.00275
 Alpha virt. eigenvalues --    0.00780   0.00931   0.01040   0.01962   0.02349
 Alpha virt. eigenvalues --    0.03218   0.03337   0.03856   0.03961   0.04071
 Alpha virt. eigenvalues --    0.04139   0.04745   0.05578   0.05856   0.06198
 Alpha virt. eigenvalues --    0.06493   0.07081   0.07450   0.07716   0.08666
 Alpha virt. eigenvalues --    0.08800   0.09065   0.09195   0.09707   0.09970
 Alpha virt. eigenvalues --    0.10377   0.10679   0.10836   0.11273   0.11700
 Alpha virt. eigenvalues --    0.11795   0.12571   0.13288   0.13330   0.13611
 Alpha virt. eigenvalues --    0.14064   0.14415   0.14907   0.15084   0.15287
 Alpha virt. eigenvalues --    0.15349   0.15750   0.16181   0.16704   0.16970
 Alpha virt. eigenvalues --    0.17388   0.17520   0.17699   0.18128   0.18383
 Alpha virt. eigenvalues --    0.18500   0.18790   0.19233   0.19678   0.19781
 Alpha virt. eigenvalues --    0.20108   0.20331   0.20675   0.20966   0.21204
 Alpha virt. eigenvalues --    0.21758   0.21969   0.22296   0.22472   0.22776
 Alpha virt. eigenvalues --    0.23385   0.23779   0.24055   0.24177   0.24526
 Alpha virt. eigenvalues --    0.24905   0.25112   0.25607   0.25886   0.26182
 Alpha virt. eigenvalues --    0.26577   0.26679   0.26901   0.27229   0.27432
 Alpha virt. eigenvalues --    0.27973   0.28265   0.28550   0.28852   0.29027
 Alpha virt. eigenvalues --    0.29489   0.29725   0.30069   0.30413   0.30710
 Alpha virt. eigenvalues --    0.30865   0.31374   0.31539   0.31610   0.32164
 Alpha virt. eigenvalues --    0.32295   0.32867   0.33064   0.33560   0.34030
 Alpha virt. eigenvalues --    0.34558   0.34650   0.35314   0.35754   0.36258
 Alpha virt. eigenvalues --    0.37036   0.37554   0.38114   0.38547   0.38749
 Alpha virt. eigenvalues --    0.39371   0.39940   0.40019   0.41117   0.41599
 Alpha virt. eigenvalues --    0.42699   0.43154   0.43923   0.44363   0.44965
 Alpha virt. eigenvalues --    0.45271   0.45567   0.46037   0.46595   0.47456
 Alpha virt. eigenvalues --    0.47933   0.48555   0.48901   0.49436   0.49556
 Alpha virt. eigenvalues --    0.50141   0.50901   0.51099   0.51365   0.53292
 Alpha virt. eigenvalues --    0.54119   0.54508   0.55146   0.56813   0.57313
 Alpha virt. eigenvalues --    0.58284   0.58601   0.58995   0.59346   0.60462
 Alpha virt. eigenvalues --    0.61167   0.61698   0.62121   0.64221   0.65901
 Alpha virt. eigenvalues --    0.66867   0.67904   0.68459   0.68780   0.69540
 Alpha virt. eigenvalues --    0.70039   0.70354   0.73020   0.74385   0.75107
 Alpha virt. eigenvalues --    0.75477   0.77406   0.78580   0.79072   0.80268
 Alpha virt. eigenvalues --    0.81210   0.81509   0.82557   0.84151   0.85397
 Alpha virt. eigenvalues --    0.86656   0.87644   0.89826   0.90724   0.91177
 Alpha virt. eigenvalues --    0.94477   0.95736   0.96235   0.96908   0.97507
 Alpha virt. eigenvalues --    0.98081   0.98766   0.99301   0.99787   1.00405
 Alpha virt. eigenvalues --    1.00675   1.01475   1.02051   1.03317   1.04043
 Alpha virt. eigenvalues --    1.04312   1.05570   1.06411   1.06690   1.07946
 Alpha virt. eigenvalues --    1.09759   1.12271   1.15233   1.16207   1.16487
 Alpha virt. eigenvalues --    1.18759   1.19092   1.19843   1.20600   1.21035
 Alpha virt. eigenvalues --    1.21310   1.21818   1.22428   1.22893   1.23006
 Alpha virt. eigenvalues --    1.23501   1.23970   1.24345   1.25249   1.25723
 Alpha virt. eigenvalues --    1.26045   1.27155   1.27560   1.28145   1.28569
 Alpha virt. eigenvalues --    1.29017   1.29843   1.30129   1.30921   1.31472
 Alpha virt. eigenvalues --    1.32519   1.32632   1.33078   1.33394   1.34436
 Alpha virt. eigenvalues --    1.35296   1.36079   1.36511   1.36908   1.37845
 Alpha virt. eigenvalues --    1.39147   1.39747   1.40250   1.41224   1.41504
 Alpha virt. eigenvalues --    1.42812   1.43803   1.44283   1.45276   1.46317
 Alpha virt. eigenvalues --    1.47055   1.48812   1.51182   1.51386   1.52615
 Alpha virt. eigenvalues --    1.56731   1.57265   1.57780   1.59249   1.59866
 Alpha virt. eigenvalues --    1.60027   1.61279   1.61941   1.62447   1.63022
 Alpha virt. eigenvalues --    1.63224   1.63839   1.65283   1.65428   1.66565
 Alpha virt. eigenvalues --    1.67207   1.67993   1.69326   1.69470   1.70155
 Alpha virt. eigenvalues --    1.71330   1.71576   1.71637   1.72669   1.73280
 Alpha virt. eigenvalues --    1.74075   1.74855   1.75659   1.76224   1.76839
 Alpha virt. eigenvalues --    1.77287   1.77437   1.78387   1.78717   1.79644
 Alpha virt. eigenvalues --    1.80550   1.81295   1.82219   1.82426   1.83175
 Alpha virt. eigenvalues --    1.83387   1.84648   1.85152   1.85949   1.86563
 Alpha virt. eigenvalues --    1.87190   1.88077   1.88567   1.89876   1.90440
 Alpha virt. eigenvalues --    1.91276   1.91431   1.92575   1.92844   1.93969
 Alpha virt. eigenvalues --    1.94628   1.94956   1.95745   1.97304   1.98338
 Alpha virt. eigenvalues --    1.99197   2.00526   2.01247   2.02713   2.03664
 Alpha virt. eigenvalues --    2.05903   2.06554   2.07904   2.09787   2.10439
 Alpha virt. eigenvalues --    2.11180   2.13045   2.14367   2.16100   2.16420
 Alpha virt. eigenvalues --    2.17787   2.18842   2.19319   2.21030   2.25830
 Alpha virt. eigenvalues --    2.32693   2.33436   2.35483   2.39482   2.40433
 Alpha virt. eigenvalues --    2.41158   2.41400   2.41719   2.42731   2.43773
 Alpha virt. eigenvalues --    2.44026   2.45590   2.46703   2.47640   2.49068
 Alpha virt. eigenvalues --    2.50200   2.50317   2.51687   2.52649   2.53390
 Alpha virt. eigenvalues --    2.55436   2.58397   2.59399   2.60091   2.60703
 Alpha virt. eigenvalues --    2.61151   2.61761   2.62070   2.62483   2.62807
 Alpha virt. eigenvalues --    2.63163   2.64051   2.64657   2.65003   2.65973
 Alpha virt. eigenvalues --    2.66368   2.66667   2.67381   2.67578   2.69390
 Alpha virt. eigenvalues --    2.70097   2.70354   2.71230   2.71671   2.72495
 Alpha virt. eigenvalues --    2.73119   2.74430   2.75572   2.76797   2.77517
 Alpha virt. eigenvalues --    2.78945   2.80545   2.81513   2.82481   2.83489
 Alpha virt. eigenvalues --    2.83761   2.84701   2.86691   2.87812   2.88143
 Alpha virt. eigenvalues --    3.14907   3.20480   3.35840   3.41055   3.46705
 Alpha virt. eigenvalues --    3.47842   3.48612   3.48725   3.51085   3.51106
 Alpha virt. eigenvalues --    3.52754   3.54191   3.60318   3.61088   3.62061
 Alpha virt. eigenvalues --    3.66206   4.34052   4.60420   7.86557  31.28210
          Condensed to atoms (all electrons):
               1          2          3          4          5          6
     1  Zr  15.171576  -0.134163   0.000971  -0.147898  -0.189100  -0.604126
     2  O   -0.134163   9.063302   0.018617  -0.042261  -0.056209   0.089831
     3  O    0.000971   0.018617   8.821124   0.014882  -0.043606  -0.005280
     4  O   -0.147898  -0.042261   0.014882   8.807958  -0.061487  -0.666414
     5  O   -0.189100  -0.056209  -0.043606  -0.061487   9.408867  -0.005379
     6  Si  -0.604126   0.089831  -0.005280  -0.666414  -0.005379  13.974034
     7  Si  -0.624780  -0.027328  -0.872178  -0.006221  -0.032587   0.086714
     8  Si  -0.596640  -0.991821  -0.022070   0.074637  -0.012226  -0.018708
     9  Si  -0.341909  -0.037876  -0.019220  -0.030092  -1.223786   0.041423
    10  O   -0.016098   0.000937  -0.002372   0.000794   0.127836  -0.002540
    11  O   -0.070352   0.003421   0.002998   0.001257   0.315220  -0.000722
    12  O    0.045039  -0.000107   0.004869   0.002051   0.155354  -0.003078
    13  O   -0.035654   0.187360   0.001608  -0.015416  -0.000759   0.034437
    14  O   -0.022286   0.261868  -0.018054  -0.009077   0.001616   0.030491
    15  O   -0.083698   0.291869  -0.000662   0.001215   0.000585   0.000166
    16  O   -0.123287   0.004682  -0.000483   0.344430   0.003167  -0.424840
    17  O   -0.091202  -0.039585   0.007618   0.217459   0.001126  -0.445421
    18  O   -0.030539  -0.014452   0.003689   0.199412  -0.000679  -0.449451
    19  O    0.000675   0.009000   0.265955   0.010555   0.002092  -0.008016
    20  O   -0.144712  -0.000583   0.160898  -0.000853   0.001334   0.009070
    21  O    0.037226   0.010378   0.147837   0.003471   0.000270  -0.012616
    22  H   -0.009668  -0.000017  -0.000007  -0.000009   0.005536   0.000097
    23  H   -0.007274  -0.000013  -0.000006  -0.000057  -0.025198   0.000087
    24  H   -0.005379  -0.000173  -0.000009   0.000003  -0.005118   0.000063
    25  H    0.016796  -0.020017  -0.000109  -0.000359   0.000021   0.002855
    26  H    0.007601   0.000632   0.000014  -0.000011  -0.000003  -0.000182
    27  H    0.006346  -0.019249   0.000879  -0.001691   0.000014   0.008155
    28  H    0.004976  -0.000011  -0.018292  -0.000014  -0.000015  -0.000288
    29  H    0.004067  -0.007058  -0.020236  -0.000137  -0.000070   0.000095
    30  H    0.000736  -0.000012   0.000077  -0.000456  -0.000008  -0.000695
    31  H    0.000151   0.000170  -0.000020  -0.018429  -0.000009   0.063638
    32  H    0.002096  -0.000025   0.000039   0.010497   0.000001   0.022745
    33  H   -0.016296   0.001025  -0.010127  -0.009686  -0.000097   0.053594
               7          8          9         10         11         12
     1  Zr  -0.624780  -0.596640  -0.341909  -0.016098  -0.070352   0.045039
     2  O   -0.027328  -0.991821  -0.037876   0.000937   0.003421  -0.000107
     3  O   -0.872178  -0.022070  -0.019220  -0.002372   0.002998   0.004869
     4  O   -0.006221   0.074637  -0.030092   0.000794   0.001257   0.002051
     5  O   -0.032587  -0.012226  -1.223786   0.127836   0.315220   0.155354
     6  Si   0.086714  -0.018708   0.041423  -0.002540  -0.000722  -0.003078
     7  Si  13.792570   0.183881   0.021125  -0.000135  -0.000739   0.004163
     8  Si   0.183881  13.793459   0.027503  -0.001003   0.001302  -0.000882
     9  Si   0.021125   0.027503  14.247681  -0.059823  -0.181932  -0.223877
    10  O   -0.000135  -0.001003  -0.059823   8.525580   0.010569   0.033721
    11  O   -0.000739   0.001302  -0.181932   0.010569   8.526888  -0.051327
    12  O    0.004163  -0.000882  -0.223877   0.033721  -0.051327   8.605996
    13  O    0.007219  -0.095656   0.000159   0.000000   0.000017   0.000010
    14  O    0.010995  -0.363459  -0.001391  -0.000002   0.000002   0.000022
    15  O   -0.002476  -0.303805  -0.000539   0.000000  -0.000025  -0.000020
    16  O    0.003712  -0.010376  -0.001099   0.000006  -0.000003  -0.000001
    17  O    0.000926   0.099031   0.002810  -0.000001   0.000002  -0.000006
    18  O   -0.000763   0.075374   0.004201  -0.000002  -0.000001  -0.000001
    19  O   -0.409936  -0.016425   0.001040   0.000008  -0.000001  -0.000023
    20  O   -0.105201   0.009708   0.003287   0.000003  -0.000003  -0.000030
    21  O    0.022197  -0.041108  -0.001995   0.000001   0.000001   0.000028
    22  H   -0.000205   0.000101   0.048258  -0.006308  -0.005085   0.219508
    23  H    0.000057   0.000060   0.080096   0.228816  -0.005956   0.005840
    24  H    0.000055  -0.000086   0.037706   0.007457   0.241592  -0.007372
    25  H   -0.000449   0.057431  -0.000202   0.000000  -0.000000  -0.000000
    26  H   -0.000390   0.045835  -0.000049  -0.000000   0.000000  -0.000000
    27  H    0.001032   0.067645  -0.000025   0.000000  -0.000000  -0.000000
    28  H    0.056486  -0.000065  -0.000139  -0.000000  -0.000000  -0.000005
    29  H    0.048205   0.021952  -0.000064   0.000000   0.000000  -0.000001
    30  H    0.040365   0.000124   0.000023  -0.000000  -0.000000   0.000000
    31  H    0.000153  -0.002054  -0.000052   0.000000  -0.000000   0.000000
    32  H   -0.000673   0.000057  -0.000003  -0.000000   0.000000  -0.000000
    33  H    0.020659   0.000132   0.000083  -0.000000   0.000000   0.000000
              13         14         15         16         17         18
     1  Zr  -0.035654  -0.022286  -0.083698  -0.123287  -0.091202  -0.030539
     2  O    0.187360   0.261868   0.291869   0.004682  -0.039585  -0.014452
     3  O    0.001608  -0.018054  -0.000662  -0.000483   0.007618   0.003689
     4  O   -0.015416  -0.009077   0.001215   0.344430   0.217459   0.199412
     5  O   -0.000759   0.001616   0.000585   0.003167   0.001126  -0.000679
     6  Si   0.034437   0.030491   0.000166  -0.424840  -0.445421  -0.449451
     7  Si   0.007219   0.010995  -0.002476   0.003712   0.000926  -0.000763
     8  Si  -0.095656  -0.363459  -0.303805  -0.010376   0.099031   0.075374
     9  Si   0.000159  -0.001391  -0.000539  -0.001099   0.002810   0.004201
    10  O    0.000000  -0.000002   0.000000   0.000006  -0.000001  -0.000002
    11  O    0.000017   0.000002  -0.000025  -0.000003   0.000002  -0.000001
    12  O    0.000010   0.000022  -0.000020  -0.000001  -0.000006  -0.000001
    13  O    8.628574   0.087017  -0.090992   0.003732  -0.030918  -0.045540
    14  O    0.087017   8.673987   0.055473   0.003632  -0.035804  -0.026942
    15  O   -0.090992   0.055473   8.776781  -0.000174   0.003618   0.001669
    16  O    0.003732   0.003632  -0.000174   8.902198  -0.091766  -0.114844
    17  O   -0.030918  -0.035804   0.003618  -0.091766   8.935055   0.227449
    18  O   -0.045540  -0.026942   0.001669  -0.114844   0.227449   9.013136
    19  O    0.000189  -0.000407   0.000140  -0.001526  -0.029871   0.000173
    20  O    0.000008  -0.000302   0.000037   0.000063  -0.001021   0.000016
    21  O   -0.000249   0.016243  -0.000596  -0.000210  -0.005622   0.000474
    22  H   -0.000000  -0.000000   0.000000   0.000000   0.000000  -0.000000
    23  H    0.000000   0.000000  -0.000000  -0.000000   0.000000  -0.000000
    24  H   -0.000000   0.000000   0.000002   0.000000  -0.000000  -0.000000
    25  H    0.218354  -0.011918   0.008926  -0.000055   0.000625   0.014867
    26  H   -0.005157  -0.010094   0.217047   0.000000  -0.000003   0.000006
    27  H   -0.009740   0.219143   0.004615   0.000189   0.017800  -0.000264
    28  H    0.000000  -0.000006  -0.000001  -0.000000   0.000004  -0.000000
    29  H    0.000793   0.017602  -0.002569  -0.000004  -0.000390   0.000006
    30  H    0.000001   0.000003   0.000000   0.000116  -0.000381  -0.000008
    31  H    0.002350   0.000167  -0.000018   0.003776  -0.000743   0.218057
    32  H   -0.000008  -0.000006   0.000000   0.233467  -0.003632   0.003880
    33  H    0.000234   0.002104  -0.000036  -0.000136   0.230978   0.002103
              19         20         21         22         23         24
     1  Zr   0.000675  -0.144712   0.037226  -0.009668  -0.007274  -0.005379
     2  O    0.009000  -0.000583   0.010378  -0.000017  -0.000013  -0.000173
     3  O    0.265955   0.160898   0.147837  -0.000007  -0.000006  -0.000009
     4  O    0.010555  -0.000853   0.003471  -0.000009  -0.000057   0.000003
     5  O    0.002092   0.001334   0.000270   0.005536  -0.025198  -0.005118
     6  Si  -0.008016   0.009070  -0.012616   0.000097   0.000087   0.000063
     7  Si  -0.409936  -0.105201   0.022197  -0.000205   0.000057   0.000055
     8  Si  -0.016425   0.009708  -0.041108   0.000101   0.000060  -0.000086
     9  Si   0.001040   0.003287  -0.001995   0.048258   0.080096   0.037706
    10  O    0.000008   0.000003   0.000001  -0.006308   0.228816   0.007457
    11  O   -0.000001  -0.000003   0.000001  -0.005085  -0.005956   0.241592
    12  O   -0.000023  -0.000030   0.000028   0.219508   0.005840  -0.007372
    13  O    0.000189   0.000008  -0.000249  -0.000000   0.000000  -0.000000
    14  O   -0.000407  -0.000302   0.016243  -0.000000   0.000000   0.000000
    15  O    0.000140   0.000037  -0.000596   0.000000  -0.000000   0.000002
    16  O   -0.001526   0.000063  -0.000210   0.000000  -0.000000   0.000000
    17  O   -0.029871  -0.001021  -0.005622   0.000000   0.000000  -0.000000
    18  O    0.000173   0.000016   0.000474  -0.000000  -0.000000  -0.000000
    19  O    8.873682   0.031893   0.024028  -0.000000   0.000000  -0.000000
    20  O    0.031893   8.655531  -0.050516   0.000000   0.000000  -0.000000
    21  O    0.024028  -0.050516   8.486658  -0.000000   0.000000   0.000000
    22  H   -0.000000   0.000000  -0.000000   0.360674   0.000055   0.000122
    23  H    0.000000   0.000000   0.000000   0.000055   0.350989   0.000014
    24  H   -0.000000  -0.000000   0.000000   0.000122   0.000014   0.365257
    25  H   -0.000024   0.000000  -0.000019   0.000000   0.000000   0.000000
    26  H    0.000001  -0.000000   0.000039  -0.000000  -0.000000  -0.000000
    27  H    0.000016   0.000193  -0.004038  -0.000000  -0.000000   0.000000
    28  H    0.004621   0.229598  -0.002036  -0.000000   0.000000  -0.000000
    29  H   -0.008565   0.007676   0.206508   0.000000   0.000000  -0.000000
    30  H    0.224135  -0.001481  -0.007167   0.000000  -0.000000  -0.000000
    31  H    0.000004  -0.000000  -0.000000  -0.000000  -0.000000   0.000000
    32  H    0.000095   0.000000   0.000001  -0.000000  -0.000000  -0.000000
    33  H    0.014777  -0.000072   0.001459  -0.000000  -0.000000  -0.000000
              25         26         27         28         29         30
     1  Zr   0.016796   0.007601   0.006346   0.004976   0.004067   0.000736
     2  O   -0.020017   0.000632  -0.019249  -0.000011  -0.007058  -0.000012
     3  O   -0.000109   0.000014   0.000879  -0.018292  -0.020236   0.000077
     4  O   -0.000359  -0.000011  -0.001691  -0.000014  -0.000137  -0.000456
     5  O    0.000021  -0.000003   0.000014  -0.000015  -0.000070  -0.000008
     6  Si   0.002855  -0.000182   0.008155  -0.000288   0.000095  -0.000695
     7  Si  -0.000449  -0.000390   0.001032   0.056486   0.048205   0.040365
     8  Si   0.057431   0.045835   0.067645  -0.000065   0.021952   0.000124
     9  Si  -0.000202  -0.000049  -0.000025  -0.000139  -0.000064   0.000023
    10  O    0.000000  -0.000000   0.000000  -0.000000   0.000000  -0.000000
    11  O   -0.000000   0.000000  -0.000000  -0.000000   0.000000  -0.000000
    12  O   -0.000000  -0.000000  -0.000000  -0.000005  -0.000001   0.000000
    13  O    0.218354  -0.005157  -0.009740   0.000000   0.000793   0.000001
    14  O   -0.011918  -0.010094   0.219143  -0.000006   0.017602   0.000003
    15  O    0.008926   0.217047   0.004615  -0.000001  -0.002569   0.000000
    16  O   -0.000055   0.000000   0.000189  -0.000000  -0.000004   0.000116
    17  O    0.000625  -0.000003   0.017800   0.000004  -0.000390  -0.000381
    18  O    0.014867   0.000006  -0.000264  -0.000000   0.000006  -0.000008
    19  O   -0.000024   0.000001   0.000016   0.004621  -0.008565   0.224135
    20  O    0.000000  -0.000000   0.000193   0.229598   0.007676  -0.001481
    21  O   -0.000019   0.000039  -0.004038  -0.002036   0.206508  -0.007167
    22  H    0.000000  -0.000000  -0.000000  -0.000000   0.000000   0.000000
    23  H    0.000000  -0.000000  -0.000000   0.000000   0.000000  -0.000000
    24  H    0.000000  -0.000000   0.000000  -0.000000  -0.000000  -0.000000
    25  H    0.298936  -0.000012   0.000110   0.000000   0.000001   0.000000
    26  H   -0.000012   0.366088   0.000037   0.000000   0.000021  -0.000000
    27  H    0.000110   0.000037   0.283437  -0.000000  -0.001494   0.000009
    28  H    0.000000   0.000000  -0.000000   0.349262  -0.000017  -0.000016
    29  H    0.000001   0.000021  -0.001494  -0.000017   0.285899   0.000155
    30  H    0.000000  -0.000000   0.000009  -0.000016   0.000155   0.334300
    31  H   -0.000487   0.000000   0.000013  -0.000000   0.000000  -0.000000
    32  H   -0.000001   0.000000  -0.000000   0.000000  -0.000000  -0.000000
    33  H    0.000005  -0.000000  -0.002402  -0.000002   0.000102  -0.001157
              31         32         33
     1  Zr   0.000151   0.002096  -0.016296
     2  O    0.000170  -0.000025   0.001025
     3  O   -0.000020   0.000039  -0.010127
     4  O   -0.018429   0.010497  -0.009686
     5  O   -0.000009   0.000001  -0.000097
     6  Si   0.063638   0.022745   0.053594
     7  Si   0.000153  -0.000673   0.020659
     8  Si  -0.002054   0.000057   0.000132
     9  Si  -0.000052  -0.000003   0.000083
    10  O    0.000000  -0.000000  -0.000000
    11  O   -0.000000   0.000000   0.000000
    12  O    0.000000  -0.000000   0.000000
    13  O    0.002350  -0.000008   0.000234
    14  O    0.000167  -0.000006   0.002104
    15  O   -0.000018   0.000000  -0.000036
    16  O    0.003776   0.233467  -0.000136
    17  O   -0.000743  -0.003632   0.230978
    18  O    0.218057   0.003880   0.002103
    19  O    0.000004   0.000095   0.014777
    20  O   -0.000000   0.000000  -0.000072
    21  O   -0.000000   0.000001   0.001459
    22  H   -0.000000  -0.000000  -0.000000
    23  H   -0.000000  -0.000000  -0.000000
    24  H    0.000000  -0.000000  -0.000000
    25  H   -0.000487  -0.000001   0.000005
    26  H    0.000000   0.000000  -0.000000
    27  H    0.000013  -0.000000  -0.002402
    28  H   -0.000000   0.000000  -0.000002
    29  H    0.000000  -0.000000   0.000102
    30  H   -0.000000  -0.000000  -0.001157
    31  H    0.331398   0.000001  -0.000038
    32  H    0.000001   0.349977   0.000157
    33  H   -0.000038   0.000157   0.269263
 Mulliken charges:
               1
     1  Zr  -0.003195
     2  O   -0.552134
     3  O   -0.419346
     4  O   -0.678053
     5  O   -0.366704
     6  Si   2.230259
     7  Si   1.783546
     8  Si   2.018152
     9  Si   1.608678
    10  O   -0.847447
    11  O   -0.787122
    12  O   -0.789872
    13  O   -0.841975
    14  O   -0.880619
    15  O   -0.876532
    16  O   -0.734368
    17  O   -0.968137
    18  O   -1.081027
    19  O   -0.988285
    20  O   -0.804543
    21  O   -0.830647
    22  H    0.386949
    23  H    0.372488
    24  H    0.365865
    25  H    0.414724
    26  H    0.378582
    27  H    0.429270
    28  H    0.375959
    29  H    0.447522
    30  H    0.411334
    31  H    0.401973
    32  H    0.381333
    33  H    0.443372
 Sum of Mulliken charges =  -0.00000
 Mulliken charges with hydrogens summed into heavy atoms:
               1
     1  Zr  -0.003195
     2  O   -0.552134
     3  O   -0.419346
     4  O   -0.678053
     5  O   -0.366704
     6  Si   2.230259
     7  Si   1.783546
     8  Si   2.018152
     9  Si   1.608678
    10  O   -0.474958
    11  O   -0.421257
    12  O   -0.402923
    13  O   -0.427251
    14  O   -0.451349
    15  O   -0.497950
    16  O   -0.353035
    17  O   -0.524764
    18  O   -0.679054
    19  O   -0.576952
    20  O   -0.428584
    21  O   -0.383125
 Electronic spatial extent (au):  <R**2>=           9849.8105
 Charge=             -0.0000 electrons
 Dipole moment (field-independent basis, Debye):
    X=              1.1070    Y=             -0.7481    Z=             -2.4015  Tot=              2.7482
 Quadrupole moment (field-independent basis, Debye-Ang):
   XX=           -160.2121   YY=           -154.4399   ZZ=           -157.7762
   XY=             -4.6192   XZ=              2.3551   YZ=              5.7705
 Traceless Quadrupole moment (field-independent basis, Debye-Ang):
   XX=             -2.7360   YY=              3.0362   ZZ=             -0.3002
   XY=             -4.6192   XZ=              2.3551   YZ=              5.7705
 Octapole moment (field-independent basis, Debye-Ang**2):
  XXX=             74.6525  YYY=              6.8985  ZZZ=            -18.6477  XYY=             -1.7822
  XXY=             19.3598  XXZ=             19.3030  XZZ=              5.4122  YZZ=            -17.3752
  YYZ=            -16.2407  XYZ=             27.4662
 Hexadecapole moment (field-independent basis, Debye-Ang**3):
 XXXX=          -6034.9195 YYYY=          -2828.0458 ZZZZ=          -2259.0425 XXXY=             56.5769
 XXXZ=            -33.9306 YYYX=              8.6155 YYYZ=            211.9183 ZZZX=           -184.2671
 ZZZY=            -51.8520 XXYY=          -1473.4739 XXZZ=          -1359.5517 YYZZ=           -922.4263
 XXYZ=             -1.8208 YYXZ=            137.9147 ZZXY=            -59.5503
 N-N= 2.834177026734D+03 E-N=-1.138097206526D+04  KE= 2.373156341180D+03
 PrsmSu:  requested number of processors reduced to:   2 ShMem   1 Linda.
 PrsmSu:  requested number of processors reduced to:  10 ShMem   1 Linda.
   1 Symmetry operations used in ECPInt.
 ECPInt:  NShTT=   13203 NPrTT=   78401 LenC2=   11528 LenP2D=   44662.
 LDataN:  DoStor=T MaxTD1= 9 Len=  602
 Number of processors reduced to  14 by ecpmxn.
 Calling FoFJK, ICntrl=      2127 FMM=F ISym2X=0 I1Cent= 0 IOpClX= 0 NMat=1 NMatS=1 NMatT=0.
 CoulSu:  requested number of processors reduced to:  10 ShMem   1 Linda.
 Defaulting to unpruned grid for atomic number  40.
 Defaulting to unpruned grid for atomic number  40.
 Defaulting to unpruned grid for atomic number  40.
 Defaulting to unpruned grid for atomic number  40.
 Defaulting to unpruned grid for atomic number  40.
 Defaulting to unpruned grid for atomic number  40.
 Defaulting to unpruned grid for atomic number  40.
 Defaulting to unpruned grid for atomic number  40.
 Defaulting to unpruned grid for atomic number  40.
 Defaulting to unpruned grid for atomic number  40.
 Defaulting to unpruned grid for atomic number  40.
 Defaulting to unpruned grid for atomic number  40.
 Defaulting to unpruned grid for atomic number  40.
 Defaulting to unpruned grid for atomic number  40.
 Defaulting to unpruned grid for atomic number  40.
 Defaulting to unpruned grid for atomic number  40.
 ***** Axes restored to original set *****
 -------------------------------------------------------------------
 Center     Atomic                   Forces (Hartrees/Bohr)
 Number     Number              X              Y              Z
 -------------------------------------------------------------------
      1       40          -0.000384213    0.000095968    0.000010607
      2        8          -0.000017392   -0.000006628    0.000035865
      3        8          -0.000005832   -0.000081223   -0.000004966
      4        8          -0.000011674   -0.000009223   -0.000035620
      5        8           0.000246321    0.000177109    0.000043624
      6       14           0.000015177    0.000011490    0.000022364
      7       14           0.000033403   -0.000029333    0.000009682
      8       14           0.000038391   -0.000004056   -0.000021287
      9       14           0.000187752   -0.000410286   -0.000110855
     10        8           0.000007928    0.000067981    0.000030729
     11        8           0.000004897    0.000068685    0.000002376
     12        8          -0.000021616    0.000090343    0.000041467
     13        8          -0.000015152    0.000000778    0.000005641
     14        8          -0.000023338    0.000019217    0.000002678
     15        8          -0.000009630    0.000000583    0.000004332
     16        8          -0.000003165   -0.000000103   -0.000010891
     17        8          -0.000000564    0.000000349   -0.000008830
     18        8          -0.000016530    0.000003082   -0.000000240
     19        8          -0.000005317    0.000008733   -0.000006014
     20        8          -0.000004456    0.000014964   -0.000001439
     21        8          -0.000011138    0.000007206   -0.000002957
     22        1          -0.000004520    0.000028200    0.000015049
     23        1          -0.000015963   -0.000017975   -0.000008550
     24        1          -0.000016816   -0.000011267   -0.000012063
     25        1           0.000004930   -0.000003156   -0.000001046
     26        1           0.000001785    0.000003014   -0.000000266
     27        1           0.000000958   -0.000004794   -0.000000028
     28        1           0.000005720   -0.000008906   -0.000000689
     29        1           0.000022740   -0.000007340   -0.000005033
     30        1           0.000001928    0.000000313    0.000001978
     31        1           0.000007992   -0.000002040   -0.000001221
     32        1          -0.000003240   -0.000000674    0.000005169
     33        1          -0.000009364   -0.000001009    0.000000434
 -------------------------------------------------------------------
 Cartesian Forces:  Max     0.000410286 RMS     0.000071614

 GradGradGradGradGradGradGradGradGradGradGradGradGradGradGradGradGradGrad
 Berny optimization.
 FormGI is forming the generalized inverse of G from B-inverse, IUseBI=4.
 Internal  Forces:  Max     0.000382377 RMS     0.000049705
 Search for a local minimum.
 Step number   1 out of a maximum of  148
 All quantities printed in internal units (Hartrees-Bohrs-Radians)
 Mixed Optimization -- En-DIIS/RFO-DIIS
 Second derivative matrix not updated -- first step.
 ITU=  0
     Eigenvalues ---    0.00230   0.00230   0.00230   0.03240   0.03358
     Eigenvalues ---    0.03498   0.03580   0.03665   0.03665   0.03680
     Eigenvalues ---    0.03686   0.03693   0.03739   0.03789   0.03792
     Eigenvalues ---    0.03816   0.03834   0.03850   0.05521   0.09402
     Eigenvalues ---    0.09687   0.11077   0.11224   0.11833   0.11884
     Eigenvalues ---    0.11890   0.12177   0.12239   0.12299   0.12782
     Eigenvalues ---    0.12895   0.13099   0.13313   0.16000   0.16000
     Eigenvalues ---    0.16000   0.16000   0.16000   0.16000   0.16000
     Eigenvalues ---    0.16000   0.16000   0.16000   0.16000   0.16000
     Eigenvalues ---    0.19173   0.19314   0.19332   0.20013   0.20203
     Eigenvalues ---    0.20204   0.20208   0.20515   0.20653   0.20795
     Eigenvalues ---    0.20989   0.21175   0.21186   0.21227   0.25000
     Eigenvalues ---    0.25000   0.25000   0.38002   0.39187   0.40659
     Eigenvalues ---    0.41547   0.42502   0.42509   0.42671   0.42743
     Eigenvalues ---    0.42824   0.43363   0.43951   0.43980   0.44273
     Eigenvalues ---    0.44485   0.44689   0.44768   0.50655   0.51353
     Eigenvalues ---    0.52036   0.52548   0.54334   0.54624   0.54643
     Eigenvalues ---    0.54649   0.54689   0.54693   0.54711   0.54765
     Eigenvalues --- 1000.000001000.000001000.000001000.000001000.00000
     Eigenvalues --- 1000.000001000.000001000.000001000.000001000.00000
     Eigenvalues --- 1000.000001000.000001000.000001000.000001000.00000
     Eigenvalues --- 1000.000001000.000001000.000001000.000001000.00000
     Eigenvalues --- 1000.000001000.000001000.000001000.000001000.00000
     Eigenvalues --- 1000.000001000.000001000.000001000.000001000.00000
     Eigenvalues --- 1000.000001000.000001000.000001000.000001000.00000
     Eigenvalues --- 1000.000001000.000001000.000001000.000001000.00000
     Eigenvalues --- 1000.000001000.000001000.000001000.000001000.00000
     Eigenvalues --- 1000.000001000.000001000.00000
 RFO step:  Lambda=-1.36809973D-06 EMin= 2.30000000D-03
 Linear search not attempted -- first point.
 Iteration  1 RMS(Cart)=  0.00305636 RMS(Int)=  0.00000250
 Iteration  2 RMS(Cart)=  0.00000434 RMS(Int)=  0.00000003
 Iteration  3 RMS(Cart)=  0.00000000 RMS(Int)=  0.00000003
 Iteration  1 RMS(Cart)=  0.00000001 RMS(Int)=  0.00000000
 Variable       Old X    -DE/DX   Delta X   Delta X   Delta X     New X
                                 (Linear)    (Quad)   (Total)
    R1        3.67647   0.00003   0.00000   0.00013   0.00013   3.67660
    R2        3.69189  -0.00010   0.00000  -0.00050  -0.00050   3.69139
    R3        3.73835   0.00003   0.00000   0.00017   0.00017   3.73852
    R4        3.70232   0.00038   0.00000   0.00189   0.00189   3.70421
    R5        3.11688  -0.00001   0.00000  -0.00001  -0.00001   3.11686
    R6        3.09579  -0.00004   0.00000  -0.00008  -0.00008   3.09571
    R7        3.10213   0.00000   0.00000   0.00000   0.00000   3.10214
    R8        3.09246   0.00011   0.00000   0.00025   0.00025   3.09272
    R9        3.11587   0.00001   0.00000   0.00001   0.00001   3.11589
   R10        3.11989   0.00000   0.00000   0.00000   0.00000   3.11989
   R11        3.14367   0.00000   0.00000   0.00001   0.00001   3.14368
   R12        3.18062   0.00001   0.00000   0.00001   0.00001   3.18064
   R13        3.10924   0.00000   0.00000   0.00001   0.00001   3.10925
   R14        3.09339  -0.00001   0.00000  -0.00003  -0.00003   3.09336
   R15        3.10179   0.00001   0.00000   0.00001   0.00001   3.10180
   R16        3.16373   0.00002   0.00000   0.00005   0.00005   3.16379
   R17        3.09830   0.00000   0.00000   0.00001   0.00001   3.09831
   R18        3.11980  -0.00002   0.00000  -0.00004  -0.00004   3.11976
   R19        3.13204  -0.00006   0.00000  -0.00014  -0.00014   3.13190
   R20        3.11778   0.00013   0.00000   0.00031   0.00031   3.11809
   R21        1.82151   0.00001   0.00000   0.00002   0.00002   1.82152
   R22        1.82106   0.00000   0.00000   0.00000   0.00000   1.82106
   R23        1.82090   0.00001   0.00000   0.00002   0.00002   1.82091
   R24        1.84078   0.00000   0.00000   0.00000   0.00000   1.84078
   R25        1.84565   0.00000   0.00000   0.00000   0.00000   1.84565
   R26        1.82041  -0.00000   0.00000  -0.00000  -0.00000   1.82041
   R27        1.82109  -0.00001   0.00000  -0.00001  -0.00001   1.82108
   R28        1.85910  -0.00000   0.00000  -0.00001  -0.00001   1.85910
   R29        1.82145   0.00000   0.00000   0.00001   0.00001   1.82146
   R30        1.82428  -0.00000   0.00000  -0.00000  -0.00000   1.82428
   R31        1.82168  -0.00001   0.00000  -0.00001  -0.00001   1.82167
   R32        1.85224  -0.00000   0.00000  -0.00000  -0.00000   1.85224
    A1        1.85172  -0.00002   0.00000  -0.00025  -0.00025   1.85147
    A2        1.80155   0.00001   0.00000   0.00007   0.00007   1.80162
    A3        1.96889   0.00001   0.00000  -0.00002  -0.00002   1.96887
    A4        1.83430  -0.00000   0.00000   0.00011   0.00011   1.83441
    A5        2.01802   0.00002   0.00000   0.00008   0.00008   2.01811
    A6        1.97057  -0.00002   0.00000   0.00000   0.00000   1.97057
    A7        2.46524  -0.00001   0.00000  -0.00006  -0.00006   2.46518
    A8        2.58826  -0.00002   0.00000  -0.00008  -0.00008   2.58817
    A9        2.35483   0.00002   0.00000   0.00008   0.00008   2.35491
   A10        2.82744   0.00031   0.00000   0.00000  -0.00000   2.82744
   A11        1.91978  -0.00001   0.00000  -0.00003  -0.00003   1.91975
   A12        1.91546   0.00003   0.00000   0.00016   0.00016   1.91563
   A13        1.95201  -0.00000   0.00000  -0.00002  -0.00002   1.95199
   A14        2.00708  -0.00001   0.00000  -0.00005  -0.00005   2.00703
   A15        1.88610  -0.00000   0.00000  -0.00004  -0.00004   1.88606
[...]
 Alpha virt. eigenvalues --    3.52744   3.54204   3.60311   3.61072   3.62055
 Alpha virt. eigenvalues --    3.66217   4.34045   4.60544   7.86233  31.28161
          Condensed to atoms (all electrons):
               1          2          3          4          5          6
     1  Zr  15.168396  -0.133419   0.000979  -0.147386  -0.187290  -0.604522
     2  O   -0.133419   9.062829   0.018654  -0.042308  -0.056125   0.089744
     3  O    0.000979   0.018654   8.821014   0.014917  -0.043577  -0.005268
     4  O   -0.147386  -0.042308   0.014917   8.807387  -0.061451  -0.666119
     5  O   -0.187290  -0.056125  -0.043577  -0.061451   9.407009  -0.005377
     6  Si  -0.604522   0.089744  -0.005268  -0.666119  -0.005377  13.973867
     7  Si  -0.624786  -0.027435  -0.872435  -0.006280  -0.032585   0.086729
     8  Si  -0.596848  -0.991927  -0.022205   0.074648  -0.012211  -0.018598
     9  Si  -0.342915  -0.037867  -0.019167  -0.030054  -1.223398   0.041521
    10  O   -0.016026   0.000933  -0.002378   0.000793   0.128041  -0.002547
    11  O   -0.070462   0.003415   0.002996   0.001258   0.315113  -0.000719
    12  O    0.045258  -0.000094   0.004905   0.002054   0.155977  -0.003082
    13  O   -0.035592   0.187404   0.001609  -0.015410  -0.000758   0.034369
    14  O   -0.022072   0.261756  -0.018005  -0.009143   0.001610   0.030573
    15  O   -0.083616   0.291762  -0.000658   0.001218   0.000584   0.000156
    16  O   -0.123107   0.004681  -0.000485   0.344502   0.003161  -0.424979
    17  O   -0.090924  -0.039591   0.007646   0.217248   0.001123  -0.445244
    18  O   -0.030506  -0.014457   0.003695   0.199355  -0.000674  -0.449252
    19  O    0.000780   0.009003   0.266050   0.010547   0.002090  -0.008070
    20  O   -0.144612  -0.000582   0.160874  -0.000858   0.001330   0.009081
    21  O    0.037216   0.010358   0.148046   0.003476   0.000269  -0.012643
    22  H   -0.009641  -0.000017  -0.000007  -0.000009   0.005463   0.000097
    23  H   -0.007257  -0.000013  -0.000006  -0.000057  -0.025175   0.000087
    24  H   -0.005343  -0.000173  -0.000009   0.000003  -0.005086   0.000063
    25  H    0.016781  -0.020014  -0.000109  -0.000358   0.000021   0.002860
    26  H    0.007593   0.000634   0.000014  -0.000011  -0.000003  -0.000181
    27  H    0.006343  -0.019239   0.000877  -0.001685   0.000014   0.008155
    28  H    0.004965  -0.000011  -0.018303  -0.000014  -0.000015  -0.000287
    29  H    0.004078  -0.007062  -0.020246  -0.000136  -0.000070   0.000099
    30  H    0.000736  -0.000012   0.000081  -0.000456  -0.000008  -0.000692
    31  H    0.000127   0.000171  -0.000020  -0.018430  -0.000009   0.063665
    32  H    0.002088  -0.000025   0.000039   0.010500   0.000001   0.022762
    33  H   -0.016350   0.001023  -0.010122  -0.009679  -0.000096   0.053607
               7          8          9         10         11         12
     1  Zr  -0.624786  -0.596848  -0.342915  -0.016026  -0.070462   0.045258
     2  O   -0.027435  -0.991927  -0.037867   0.000933   0.003415  -0.000094
     3  O   -0.872435  -0.022205  -0.019167  -0.002378   0.002996   0.004905
     4  O   -0.006280   0.074648  -0.030054   0.000793   0.001258   0.002054
     5  O   -0.032585  -0.012211  -1.223398   0.128041   0.315113   0.155977
     6  Si   0.086729  -0.018598   0.041521  -0.002547  -0.000719  -0.003082
     7  Si  13.792997   0.183972   0.021057  -0.000129  -0.000740   0.004176
     8  Si   0.183972  13.793976   0.027478  -0.001003   0.001303  -0.000884
     9  Si   0.021057   0.027478  14.248943  -0.060074  -0.181743  -0.225517
    10  O   -0.000129  -0.001003  -0.060074   8.525660   0.009985   0.034322
    11  O   -0.000740   0.001303  -0.181743   0.009985   8.526812  -0.051147
    12  O    0.004176  -0.000884  -0.225517   0.034322  -0.051147   8.606951
    13  O    0.007210  -0.095761   0.000157   0.000000   0.000017   0.000010
    14  O    0.010953  -0.363527  -0.001390  -0.000002   0.000002   0.000022
    15  O   -0.002487  -0.303683  -0.000539   0.000000  -0.000024  -0.000020
    16  O    0.003696  -0.010407  -0.001104   0.000006  -0.000003  -0.000001
    17  O    0.000896   0.099070   0.002811  -0.000001   0.000002  -0.000006
    18  O   -0.000766   0.075399   0.004196  -0.000002  -0.000001  -0.000001
    19  O   -0.410004  -0.016439   0.001032   0.000008  -0.000001  -0.000023
    20  O   -0.105018   0.009701   0.003278   0.000003  -0.000003  -0.000030
    21  O    0.022073  -0.041079  -0.001994   0.000001   0.000001   0.000028
    22  H   -0.000207   0.000101   0.048291  -0.006317  -0.005067   0.219455
    23  H    0.000057   0.000059   0.079993   0.228829  -0.005938   0.005841
    24  H    0.000055  -0.000086   0.037635   0.007448   0.241550  -0.007360
    25  H   -0.000448   0.057427  -0.000201   0.000000  -0.000000  -0.000000
    26  H   -0.000390   0.045841  -0.000049  -0.000000   0.000000  -0.000000
    27  H    0.001026   0.067632  -0.000025   0.000000  -0.000000  -0.000000
    28  H    0.056503  -0.000064  -0.000139  -0.000000  -0.000000  -0.000005
    29  H    0.048202   0.021970  -0.000063   0.000000   0.000000  -0.000001
    30  H    0.040359   0.000123   0.000023  -0.000000  -0.000000   0.000000
    31  H    0.000153  -0.002058  -0.000052   0.000000  -0.000000   0.000000
    32  H   -0.000671   0.000057  -0.000003  -0.000000   0.000000  -0.000000
    33  H    0.020666   0.000138   0.000082  -0.000000   0.000000   0.000000
              13         14         15         16         17         18
     1  Zr  -0.035592  -0.022072  -0.083616  -0.123107  -0.090924  -0.030506
     2  O    0.187404   0.261756   0.291762   0.004681  -0.039591  -0.014457
     3  O    0.001609  -0.018005  -0.000658  -0.000485   0.007646   0.003695
     4  O   -0.015410  -0.009143   0.001218   0.344502   0.217248   0.199355
     5  O   -0.000758   0.001610   0.000584   0.003161   0.001123  -0.000674
     6  Si   0.034369   0.030573   0.000156  -0.424979  -0.445244  -0.449252
     7  Si   0.007210   0.010953  -0.002487   0.003696   0.000896  -0.000766
     8  Si  -0.095761  -0.363527  -0.303683  -0.010407   0.099070   0.075399
     9  Si   0.000157  -0.001390  -0.000539  -0.001104   0.002811   0.004196
    10  O    0.000000  -0.000002   0.000000   0.000006  -0.000001  -0.000002
    11  O    0.000017   0.000002  -0.000024  -0.000003   0.000002  -0.000001
    12  O    0.000010   0.000022  -0.000020  -0.000001  -0.000006  -0.000001
    13  O    8.628543   0.087037  -0.090985   0.003731  -0.030905  -0.045535
    14  O    0.087037   8.673917   0.055509   0.003632  -0.035865  -0.026969
    15  O   -0.090985   0.055509   8.776611  -0.000174   0.003620   0.001670
    16  O    0.003731   0.003632  -0.000174   8.902186  -0.091860  -0.114780
    17  O   -0.030905  -0.035865   0.003620  -0.091860   8.934777   0.227424
    18  O   -0.045535  -0.026969   0.001670  -0.114780   0.227424   9.012802
    19  O    0.000189  -0.000389   0.000140  -0.001531  -0.029816   0.000176
    20  O    0.000008  -0.000303   0.000037   0.000063  -0.001028   0.000016
    21  O   -0.000247   0.016173  -0.000601  -0.000211  -0.005607   0.000475
    22  H   -0.000000  -0.000000   0.000000   0.000000   0.000000  -0.000000
    23  H    0.000000   0.000000  -0.000000  -0.000000   0.000000  -0.000000
    24  H   -0.000000   0.000000   0.000002   0.000000  -0.000000  -0.000000
    25  H    0.218371  -0.011920   0.008922  -0.000054   0.000622   0.014859
    26  H   -0.005156  -0.010101   0.217064   0.000000  -0.000003   0.000006
    27  H   -0.009737   0.219165   0.004618   0.000189   0.017799  -0.000261
    28  H    0.000000  -0.000006  -0.000001  -0.000000   0.000004  -0.000000
    29  H    0.000794   0.017601  -0.002569  -0.000004  -0.000389   0.000006
    30  H    0.000001   0.000003   0.000000   0.000116  -0.000381  -0.000008
    31  H    0.002352   0.000168  -0.000018   0.003762  -0.000735   0.218068
    32  H   -0.000008  -0.000006   0.000000   0.233447  -0.003629   0.003876
    33  H    0.000234   0.002105  -0.000036  -0.000132   0.231009   0.002100
              19         20         21         22         23         24
     1  Zr   0.000780  -0.144612   0.037216  -0.009641  -0.007257  -0.005343
     2  O    0.009003  -0.000582   0.010358  -0.000017  -0.000013  -0.000173
     3  O    0.266050   0.160874   0.148046  -0.000007  -0.000006  -0.000009
     4  O    0.010547  -0.000858   0.003476  -0.000009  -0.000057   0.000003
     5  O    0.002090   0.001330   0.000269   0.005463  -0.025175  -0.005086
     6  Si  -0.008070   0.009081  -0.012643   0.000097   0.000087   0.000063
     7  Si  -0.410004  -0.105018   0.022073  -0.000207   0.000057   0.000055
     8  Si  -0.016439   0.009701  -0.041079   0.000101   0.000059  -0.000086
     9  Si   0.001032   0.003278  -0.001994   0.048291   0.079993   0.037635
    10  O    0.000008   0.000003   0.000001  -0.006317   0.228829   0.007448
    11  O   -0.000001  -0.000003   0.000001  -0.005067  -0.005938   0.241550
    12  O   -0.000023  -0.000030   0.000028   0.219455   0.005841  -0.007360
    13  O    0.000189   0.000008  -0.000247  -0.000000   0.000000  -0.000000
    14  O   -0.000389  -0.000303   0.016173  -0.000000   0.000000   0.000000
    15  O    0.000140   0.000037  -0.000601   0.000000  -0.000000   0.000002
    16  O   -0.001531   0.000063  -0.000211   0.000000  -0.000000   0.000000
    17  O   -0.029816  -0.001028  -0.005607   0.000000   0.000000  -0.000000
    18  O    0.000176   0.000016   0.000475  -0.000000  -0.000000  -0.000000
    19  O    8.873607   0.031831   0.024032  -0.000000   0.000000  -0.000000
    20  O    0.031831   8.655295  -0.050557   0.000000   0.000000  -0.000000
    21  O    0.024032  -0.050557   8.486664  -0.000000   0.000000   0.000000
    22  H   -0.000000   0.000000  -0.000000   0.360736   0.000054   0.000121
    23  H    0.000000   0.000000   0.000000   0.000054   0.351099   0.000015
    24  H   -0.000000  -0.000000   0.000000   0.000121   0.000015   0.365263
    25  H   -0.000024   0.000000  -0.000019   0.000000   0.000000   0.000000
    26  H    0.000001  -0.000000   0.000038  -0.000000  -0.000000  -0.000000
    27  H    0.000014   0.000193  -0.004034  -0.000000  -0.000000   0.000000
    28  H    0.004629   0.229611  -0.002044  -0.000000   0.000000  -0.000000
    29  H   -0.008567   0.007672   0.206487   0.000000   0.000000  -0.000000
    30  H    0.224131  -0.001482  -0.007167   0.000000  -0.000000  -0.000000
    31  H    0.000004  -0.000000  -0.000000  -0.000000  -0.000000   0.000000
    32  H    0.000095   0.000000   0.000001  -0.000000  -0.000000  -0.000000
    33  H    0.014787  -0.000070   0.001458  -0.000000  -0.000000  -0.000000
              25         26         27         28         29         30
     1  Zr   0.016781   0.007593   0.006343   0.004965   0.004078   0.000736
     2  O   -0.020014   0.000634  -0.019239  -0.000011  -0.007062  -0.000012
     3  O   -0.000109   0.000014   0.000877  -0.018303  -0.020246   0.000081
     4  O   -0.000358  -0.000011  -0.001685  -0.000014  -0.000136  -0.000456
     5  O    0.000021  -0.000003   0.000014  -0.000015  -0.000070  -0.000008
     6  Si   0.002860  -0.000181   0.008155  -0.000287   0.000099  -0.000692
     7  Si  -0.000448  -0.000390   0.001026   0.056503   0.048202   0.040359
     8  Si   0.057427   0.045841   0.067632  -0.000064   0.021970   0.000123
     9  Si  -0.000201  -0.000049  -0.000025  -0.000139  -0.000063   0.000023
    10  O    0.000000  -0.000000   0.000000  -0.000000   0.000000  -0.000000
    11  O   -0.000000   0.000000  -0.000000  -0.000000   0.000000  -0.000000
    12  O   -0.000000  -0.000000  -0.000000  -0.000005  -0.000001   0.000000
    13  O    0.218371  -0.005156  -0.009737   0.000000   0.000794   0.000001
    14  O   -0.011920  -0.010101   0.219165  -0.000006   0.017601   0.000003
    15  O    0.008922   0.217064   0.004618  -0.000001  -0.002569   0.000000
    16  O   -0.000054   0.000000   0.000189  -0.000000  -0.000004   0.000116
    17  O    0.000622  -0.000003   0.017799   0.000004  -0.000389  -0.000381
    18  O    0.014859   0.000006  -0.000261  -0.000000   0.000006  -0.000008
    19  O   -0.000024   0.000001   0.000014   0.004629  -0.008567   0.224131
    20  O    0.000000  -0.000000   0.000193   0.229611   0.007672  -0.001482
    21  O   -0.000019   0.000038  -0.004034  -0.002044   0.206487  -0.007167
    22  H    0.000000  -0.000000  -0.000000  -0.000000   0.000000   0.000000
    23  H    0.000000  -0.000000  -0.000000   0.000000   0.000000  -0.000000
    24  H    0.000000  -0.000000   0.000000  -0.000000  -0.000000  -0.000000
    25  H    0.298955  -0.000012   0.000110   0.000000   0.000001   0.000000
    26  H   -0.000012   0.366074   0.000037   0.000000   0.000021  -0.000000
    27  H    0.000110   0.000037   0.283442  -0.000000  -0.001494   0.000009
    28  H    0.000000   0.000000  -0.000000   0.349260  -0.000017  -0.000016
    29  H    0.000001   0.000021  -0.001494  -0.000017   0.285873   0.000155
    30  H    0.000000  -0.000000   0.000009  -0.000016   0.000155   0.334312
    31  H   -0.000490   0.000000   0.000013  -0.000000   0.000000  -0.000000
    32  H   -0.000001   0.000000  -0.000000   0.000000  -0.000000  -0.000000
    33  H    0.000005  -0.000000  -0.002401  -0.000002   0.000102  -0.001155
              31         32         33
     1  Zr   0.000127   0.002088  -0.016350
     2  O    0.000171  -0.000025   0.001023
     3  O   -0.000020   0.000039  -0.010122
     4  O   -0.018430   0.010500  -0.009679
     5  O   -0.000009   0.000001  -0.000096
     6  Si   0.063665   0.022762   0.053607
     7  Si   0.000153  -0.000671   0.020666
     8  Si  -0.002058   0.000057   0.000138
     9  Si  -0.000052  -0.000003   0.000082
    10  O    0.000000  -0.000000  -0.000000
    11  O   -0.000000   0.000000   0.000000
    12  O    0.000000  -0.000000   0.000000
    13  O    0.002352  -0.000008   0.000234
    14  O    0.000168  -0.000006   0.002105
    15  O   -0.000018   0.000000  -0.000036
    16  O    0.003762   0.233447  -0.000132
    17  O   -0.000735  -0.003629   0.231009
    18  O    0.218068   0.003876   0.002100
    19  O    0.000004   0.000095   0.014787
    20  O   -0.000000   0.000000  -0.000070
    21  O   -0.000000   0.000001   0.001458
    22  H   -0.000000  -0.000000  -0.000000
    23  H   -0.000000  -0.000000  -0.000000
    24  H    0.000000  -0.000000  -0.000000
    25  H   -0.000490  -0.000001   0.000005
    26  H    0.000000   0.000000  -0.000000
    27  H    0.000013  -0.000000  -0.002401
    28  H   -0.000000   0.000000  -0.000002
    29  H    0.000000  -0.000000   0.000102
    30  H   -0.000000  -0.000000  -0.001155
    31  H    0.331438   0.000001  -0.000038
    32  H    0.000001   0.349991   0.000157
    33  H   -0.000038   0.000157   0.269304
 Mulliken charges:
               1
     1  Zr  -0.002665
     2  O   -0.551996
     3  O   -0.419399
     4  O   -0.678063
     5  O   -0.367897
     6  Si   2.230145
     7  Si   1.783603
     8  Si   2.017886
     9  Si   1.609798
    10  O   -0.847551
    11  O   -0.786606
    12  O   -0.790828
    13  O   -0.841944
    14  O   -0.880530
    15  O   -0.876504
    16  O   -0.734342
    17  O   -0.968065
    18  O   -1.080913
    19  O   -0.988280
    20  O   -0.804452
    21  O   -0.830596
    22  H    0.386948
    23  H    0.372411
    24  H    0.365903
    25  H    0.414714
    26  H    0.378582
    27  H    0.429243
    28  H    0.375951
    29  H    0.447558
    30  H    0.411327
    31  H    0.401930
    32  H    0.381327
    33  H    0.443303
 Sum of Mulliken charges =  -0.00000
 Mulliken charges with hydrogens summed into heavy atoms:
               1
     1  Zr  -0.002665
     2  O   -0.551996
     3  O   -0.419399
     4  O   -0.678063
     5  O   -0.367897
     6  Si   2.230145
     7  Si   1.783603
     8  Si   2.017886
     9  Si   1.609798
    10  O   -0.475140
    11  O   -0.420703
    12  O   -0.403880
    13  O   -0.427229
    14  O   -0.451287
    15  O   -0.497922
    16  O   -0.353014
    17  O   -0.524762
    18  O   -0.678983
    19  O   -0.576953
    20  O   -0.428500
    21  O   -0.383039
 Electronic spatial extent (au):  <R**2>=           9850.9035
 Charge=              0.0000 electrons
 Dipole moment (field-independent basis, Debye):
    X=              1.1034    Y=             -0.7526    Z=             -2.4046  Tot=              2.7506
 Quadrupole moment (field-independent basis, Debye-Ang):
   XX=           -160.2638   YY=           -154.4182   ZZ=           -157.7788
   XY=             -4.6356   XZ=              2.3369   YZ=              5.7689
 Traceless Quadrupole moment (field-independent basis, Debye-Ang):
   XX=             -2.7768   YY=              3.0687   ZZ=             -0.2919
   XY=             -4.6356   XZ=              2.3369   YZ=              5.7689
 Octapole moment (field-independent basis, Debye-Ang**2):
  XXX=             74.3695  YYY=              6.8402  ZZZ=            -18.6682  XYY=             -1.6809
  XXY=             19.3497  XXZ=             19.2214  XZZ=              5.4363  YZZ=            -17.3278
  YYZ=            -16.2146  XYZ=             27.5131
 Hexadecapole moment (field-independent basis, Debye-Ang**3):
 XXXX=          -6038.9741 YYYY=          -2827.3611 ZZZZ=          -2258.9288 XXXY=             56.2797
 XXXZ=            -34.4381 YYYX=              8.7400 YYYZ=            211.7671 ZZZX=           -184.4646
 ZZZY=            -51.7424 XXYY=          -1473.6913 XXZZ=          -1359.6599 YYZZ=           -922.5909
 XXYZ=             -1.7978 YYXZ=            137.9790 ZZXY=            -59.7878
 N-N= 2.834105651832D+03 E-N=-1.138082740679D+04  KE= 2.373154868738D+03
 1\1\GINC-GRA711\FOpt\RB3LYP\Gen\H12O16Si4Zr1\SARASHS\12-Aug-2020\0\\#n
  B3LYP/Gen Pseudo=cards EmpiricalDispersion=GD3 Opt=modredundant\\Titl
 e\\0,1\Zr,0.6577918177,-0.1250047548,-0.0717050692\O,-0.2230784835,-0.
 9058282784,1.477304255\O,0.1027126026,1.7471042209,-0.1228235039\O,-0.
 2685753774,-0.9786051812,-1.5970701112\O,2.592777963,-0.4368189863,-0.
 082974993\Si,-1.8314309558,-1.332453128,-1.9535224503\Si,-1.1156568077
 ,2.8415480026,-0.0827117172\Si,-1.7239630798,-1.1524648894,2.115157608
 8\Si,4.2082766182,-0.199298581,0.0271304478\O,4.95483304,-0.0092600867
 ,-1.4330257606\O,4.9361431205,-1.516895237,0.7202924962\O,4.3764422343
 ,1.2003196969,0.8850061003\O,-2.3194151245,-2.6236918199,1.6966827119\
 O,-2.7246316381,0.0652926269,1.5505793111\O,-1.5976937245,-1.018544788
 2,3.7443422164\O,-2.0015321323,-1.5602052532,-3.577697251\O,-2.8256469
 24,-0.1867875049,-1.3018668172\O,-2.3445770477,-2.7142751709,-1.182345
 4767\O,-2.0404744031,2.4397638919,-1.4303449749\O,-0.6355246738,4.4002
 760683,-0.2995269971\O,-1.9657923183,2.7605002635,1.3137876863\H,5.247
 9341263,1.611358907,0.8822229906\H,5.337607564,-0.8065926976,-1.816276
 7628\H,4.5076161467,-1.9046079296,1.4914648615\H,-2.4056662768,-2.8095
 425343,0.7443739532\H,-2.3817727715,-1.2229579281,4.2653176862\H,-3.06
 07662466,-0.0831262947,0.6456662923\H,-0.5268634054,4.9267242002,0.500
 6747477\H,-2.2691093289,1.8687848808,1.5851057454\H,-2.6483156998,3.12
 71890824,-1.7302009716\H,-2.3038781542,-3.5295745781,-1.6948830191\H,-
 1.2711862791,-1.2637146424,-4.132099018\H,-2.6109943805,0.7545684233,-
 1.490484217\\Version=ES64L-G16RevB.01\State=1-A\HF=-2416.9468553\RMSD=
 3.486e-09\RMSF=1.721e-05\Dipole=0.4428556,-0.2893879,-0.9440528\Quadru
 pole=-1.9476114,2.1650567,-0.2174453,-3.5373404,1.6567966,4.304426\PG=
 C01 [X(H12O16Si4Zr1)]\\@


 I WANT TO KNOW HOW GOD CREATED THE WORLD.  I AM NOT INTERESTED IN
 THIS OR THAT PHENOMENON, IN THE SPECTRUM OF THIS OR THAT ELEMENT.
 I WANT TO KNOW HIS THOUGHTS, THE REST ARE DETAILS.
     -- ALBERT EINSTEIN
 Job cpu time:       0 days  9 hours 55 minutes 47.8 seconds.
 Elapsed time:       0 days  0 hours 44 minutes 51.4 seconds.
 File lengths (MBytes):  RWF=    167 Int=      0 D2E=      0 Chk=     21 Scr=      1
 Normal termination of Gaussian 16 at Wed Aug 12 20:27:55 2020.
