 Entering Gaussian System, Link 0=g16
 Initial command:
 /opt/software/gaussian/g16.b01/l1.exe "/localscratch/sarashs.36760139.0/Gau-58635.inp" -scrdir="/localscratch/sarashs.36760139.0/"
 Entering Link 1 = /opt/software/gaussian/g16.b01/l1.exe PID=     58636.
  
 Copyright (c) 1988-2017, Gaussian, Inc.  All Rights Reserved.
  
 This is part of the Gaussian(R) 16 program.  It is based on
 the Gaussian(R) 09 system (copyright 2009, Gaussian, Inc.),
 the Gaussian(R) 03 system (copyright 2003, Gaussian, Inc.),
 the Gaussian(R) 98 system (copyright 1998, Gaussian, Inc.),
 the Gaussian(R) 94 system (copyright 1995, Gaussian, Inc.),
 the Gaussian 92(TM) system (copyright 1992, Gaussian, Inc.),
 the Gaussian 90(TM) system (copyright 1990, Gaussian, Inc.),
 the Gaussian 88(TM) system (copyright 1988, Gaussian, Inc.),
 the Gaussian 86(TM) system (copyright 1986, Carnegie Mellon
 University), and the Gaussian 82(TM) system (copyright 1983,
 Carnegie Mellon University). Gaussian is a federally registered
 trademark of Gaussian, Inc.
  
 This software contains proprietary and confidential information,
 including trade secrets, belonging to Gaussian, Inc.
  
 This software is provided under written license and may be
 used, copied, transmitted, or stored only in accord with that
 written license.
  
 The following legend is applicable only to US Government
 contracts under FAR:
  
                    RESTRICTED RIGHTS LEGEND
  
 Use, reproduction and disclosure by the US Government is
 subject to restrictions as set forth in subparagraphs (a)
 and (c) of the Commercial Computer Software - Restricted
 Rights clause in FAR 52.227-19.
  
 Gaussian, Inc.
 340 Quinnipiac St., Bldg. 40, Wallingford CT 06492
  
  
 ---------------------------------------------------------------
 Warning -- This program may not be used in any manner that
 competes with the business of Gaussian, Inc. or will provide
 assistance to any competitor of Gaussian, Inc.  The licensee
 of this program is prohibited from giving any competitor of
 Gaussian, Inc. access to this program.  By using this program,
 the user acknowledges that Gaussian, Inc. is engaged in the
 business of creating and licensing software in the field of
 computational chemistry and represents and warrants to the
 licensee that it is not a competitor of Gaussian, Inc. and that
 it will not use this program in any manner prohibited above.
 ---------------------------------------------------------------
  

 Cite this work as:
 Gaussian 16, Revision B.01,
 M. J. Frisch, G. W. Trucks, H. B. Schlegel, G. E. Scuseria, 
 M. A. Robb, J. R. Cheeseman, G. Scalmani, V. Barone, 
 G. A. Petersson, H. Nakatsuji, X. Li, M. Caricato, A. V. Marenich, 
 J. Bloino, B. G. Janesko, R. Gomperts, B. Mennucci, H. P. Hratchian, 
 J. V. Ortiz, A. F. Izmaylov, J. L. Sonnenberg, D. Williams-Young, 
 F. Ding, F. Lipparini, F. Egidi, J. Goings, B. Peng, A. Petrone, 
 T. Henderson, D. Ranasinghe, V. G. Zakrzewski, J. Gao, N. Rega, 
 G. Zheng, W. Liang, M. Hada, M. Ehara, K. Toyota, R. Fukuda, 
 J. Hasegawa, M. Ishida, T. Nakajima, Y. Honda, O. Kitao, H. Nakai, 
 T. Vreven, K. Throssell, J. A. Montgomery, Jr., J. E. Peralta, 
 F. Ogliaro, M. J. Bearpark, J. J. Heyd, E. N. Brothers, K. N. Kudin, 
 V. N. Staroverov, T. A. Keith, R. Kobayashi, J. Normand, 
 K. Raghavachari, A. P. Rendell, J. C. Burant, S. S. Iyengar, 
 J. Tomasi, M. Cossi, J. M. Millam, M. Klene, C. Adamo, R. Cammi, 
 J. W. Ochterski, R. L. Martin, K. Morokuma, O. Farkas, 
 J. B. Foresman, and D. J. Fox, Gaussian, Inc., Wallingford CT, 2016.
 
 ******************************************
 Gaussian 16:  ES64L-G16RevB.01 20-Dec-2017
                 2-Aug-2020 
 ******************************************
 %NProcShared=16
 Will use up to   16 processors via shared memory.
 ------------------------------------------------------------------
 #n B3LYP/Gen Pseudo=cards EmpiricalDispersion=GD3 Opt=modredundant
 ------------------------------------------------------------------
 1/18=120,19=15,26=3,38=1/1,3;
 2/9=110,12=2,17=6,18=5,40=1/2;
 3/5=7,11=2,16=1,17=8,25=1,30=1,71=1,74=-5,124=31/1,2,3;
 4//1;
 5/5=2,38=5/2;
 6/7=2,8=2,9=2,10=2,28=1/1;
 7//1,2,3,16;
 1/18=20,19=15,26=3/3(2);
 2/9=110/2;
 99//99;
 2/9=110/2;
 3/5=7,6=1,11=2,16=1,17=8,25=1,30=1,71=1,74=-5,82=7,124=31/1,2,3;
 4/5=5,16=3,69=1/1;
 5/5=2,38=5/2;
 7//1,2,3,16;
 1/18=20,19=15,26=3/3(-5);
 2/9=110/2;
 6/7=2,8=2,9=2,10=2,19=2,28=1/1;
 99/9=1/99;
 -----
 Title
 -----
 Symbolic Z-matrix:
 Charge =  0 Multiplicity = 1
 Zr                    0.64646  -0.19013  -0.1519 
 O                    -0.19212  -0.93131   1.43939 
 O                     0.17263   1.70395  -0.1904 
 O                    -0.37772  -1.01692  -1.62844 
 O                     2.5678   -0.57883  -0.26812 
 Si                   -1.96924  -1.33216  -1.87829 
 Si                   -0.98958   2.85681  -0.11809 
 Si                   -1.67476  -1.05152   2.17706 
 Si                    3.88296   0.22608   0.28008 
 O                     4.54704   1.26122  -0.82034 
 O                     5.09135  -0.84215   0.66136 
 O                     3.33048   1.11462   1.5576 
 O                    -2.33574  -2.51245   1.83004 
 O                    -2.6209    0.20928   1.64149 
 O                    -1.552    -0.82432   3.7965 
 O                    -2.25427  -1.59164  -3.48183 
 O                    -2.88371  -0.13912  -1.19557 
 O                    -2.46027  -2.68598  -1.04579 
 O                    -2.00825   2.45605  -1.3967 
 O                    -0.44623   4.38142  -0.41555 
 O                    -1.75835   2.86715   1.32642 
 H                     3.90338   1.81955   1.87928 
 H                     5.27263   0.90914  -1.34817 
 H                     4.83885  -1.64683   1.12715 
 H                    -2.40738  -2.74575   0.88712 
 H                    -0.93391  -1.38513   4.27638 
 H                    -3.02928   0.04705   0.77024 
 H                    -0.29029   4.93346   0.35924 
 H                    -2.09489   2.00321   1.64266 
 H                    -2.6086    3.15807  -1.6773 
 H                    -2.56602  -3.49143  -1.56436 
 H                    -1.55278  -1.33714  -4.09141 
 H                    -2.64046   0.78995  -1.40829 
 
 The following ModRedundant input section has been read:
 A       1       5       9 F                                                   
 

 GradGradGradGradGradGradGradGradGradGradGradGradGradGradGradGradGradGrad
 Berny optimization.
 Initialization pass.
                           ----------------------------
                           !    Initial Parameters    !
                           ! (Angstroms and Degrees)  !
 --------------------------                            --------------------------
 ! Name  Definition              Value          Derivative Info.                !
 --------------------------------------------------------------------------------
 ! R1    R(1,2)                  1.9454         estimate D2E/DX2                !
 ! R2    R(1,3)                  1.9528         estimate D2E/DX2                !
 ! R3    R(1,4)                  1.9781         estimate D2E/DX2                !
 ! R4    R(1,5)                  1.9637         estimate D2E/DX2                !
 ! R5    R(2,8)                  1.6604         estimate D2E/DX2                !
 ! R6    R(3,7)                  1.6386         estimate D2E/DX2                !
 ! R7    R(4,6)                  1.6416         estimate D2E/DX2                !
 ! R8    R(5,9)                  1.6365         estimate D2E/DX2                !
 ! R9    R(6,16)                 1.6492         estimate D2E/DX2                !
 ! R10   R(6,17)                 1.651          estimate D2E/DX2                !
 ! R11   R(6,18)                 1.6634         estimate D2E/DX2                !
 ! R12   R(7,19)                 1.6832         estimate D2E/DX2                !
 ! R13   R(7,20)                 1.6456         estimate D2E/DX2                !
 ! R14   R(7,21)                 1.6364         estimate D2E/DX2                !
 ! R15   R(8,13)                 1.6406         estimate D2E/DX2                !
 ! R16   R(8,14)                 1.6648         estimate D2E/DX2                !
 ! R17   R(8,15)                 1.6399         estimate D2E/DX2                !
 ! R18   R(9,10)                 1.6503         estimate D2E/DX2                !
 ! R19   R(9,11)                 1.6573         estimate D2E/DX2                !
 ! R20   R(9,12)                 1.6513         estimate D2E/DX2                !
 ! R21   R(10,23)                0.9639         estimate D2E/DX2                !
 ! R22   R(11,24)                0.9634         estimate D2E/DX2                !
 ! R23   R(12,22)                0.9636         estimate D2E/DX2                !
 ! R24   R(13,25)                0.974          estimate D2E/DX2                !
 ! R25   R(14,27)                0.9758         estimate D2E/DX2                !
 ! R26   R(15,26)                0.9627         estimate D2E/DX2                !
 ! R27   R(16,32)                0.9636         estimate D2E/DX2                !
 ! R28   R(17,33)                0.9837         estimate D2E/DX2                !
 ! R29   R(18,31)                0.9638         estimate D2E/DX2                !
 ! R30   R(19,30)                0.9654         estimate D2E/DX2                !
 ! R31   R(20,28)                0.964          estimate D2E/DX2                !
 ! R32   R(21,29)                0.9796         estimate D2E/DX2                !
 ! A1    A(2,1,3)              106.3234         estimate D2E/DX2                !
 ! A2    A(2,1,4)              103.1879         estimate D2E/DX2                !
 ! A3    A(2,1,5)              113.2501         estimate D2E/DX2                !
 ! A4    A(3,1,4)              105.3705         estimate D2E/DX2                !
 ! A5    A(3,1,5)              115.3549         estimate D2E/DX2                !
 ! A6    A(4,1,5)              112.3142         estimate D2E/DX2                !
 ! A7    A(1,2,8)              140.8859         estimate D2E/DX2                !
 ! A8    A(1,3,7)              148.6074         estimate D2E/DX2                !
 ! A9    A(1,4,6)              134.0964         estimate D2E/DX2                !
 ! A10   A(1,5,9)              132.0            Frozen                          !
 ! A11   A(4,6,16)             110.2282         estimate D2E/DX2                !
 ! A12   A(4,6,17)             109.5909         estimate D2E/DX2                !
 ! A13   A(4,6,18)             111.4884         estimate D2E/DX2                !
 ! A14   A(16,6,17)            114.8371         estimate D2E/DX2                !
 ! A15   A(16,6,18)            107.9112         estimate D2E/DX2                !
 ! A16   A(17,6,18)            102.5719         estimate D2E/DX2                !
 ! A17   A(3,7,19)             103.1918         estimate D2E/DX2                !
 ! A18   A(3,7,20)             114.1832         estimate D2E/DX2                !
 ! A19   A(3,7,21)             112.1241         estimate D2E/DX2                !
 ! A20   A(19,7,20)            106.4451         estimate D2E/DX2                !
 ! A21   A(19,7,21)            112.8144         estimate D2E/DX2                !
 ! A22   A(20,7,21)            107.9884         estimate D2E/DX2                !
 ! A23   A(2,8,13)             109.2843         estimate D2E/DX2                !
 ! A24   A(2,8,14)             108.0427         estimate D2E/DX2                !
 ! A25   A(2,8,15)             111.2146         estimate D2E/DX2                !
 ! A26   A(13,8,14)            112.1704         estimate D2E/DX2                !
 ! A27   A(13,8,15)            111.2482         estimate D2E/DX2                !
 ! A28   A(14,8,15)            104.7916         estimate D2E/DX2                !
 ! A29   A(5,9,10)             114.113          estimate D2E/DX2                !
 ! A30   A(5,9,11)             110.2431         estimate D2E/DX2                !
 ! A31   A(5,9,12)             104.7701         estimate D2E/DX2                !
 ! A32   A(10,9,11)            105.3253         estimate D2E/DX2                !
 ! A33   A(10,9,12)            108.2396         estimate D2E/DX2                !
 ! A34   A(11,9,12)            114.38           estimate D2E/DX2                !
 ! A35   A(9,10,23)            116.0374         estimate D2E/DX2                !
 ! A36   A(9,11,24)            117.2887         estimate D2E/DX2                !
 ! A37   A(9,12,22)            116.9342         estimate D2E/DX2                !
 ! A38   A(8,13,25)            116.5961         estimate D2E/DX2                !
 ! A39   A(8,14,27)            113.5263         estimate D2E/DX2                !
 ! A40   A(8,15,26)            117.3612         estimate D2E/DX2                !
 ! A41   A(6,16,32)            116.5984         estimate D2E/DX2                !
 ! A42   A(6,17,33)            117.1373         estimate D2E/DX2                !
 ! A43   A(6,18,31)            116.3135         estimate D2E/DX2                !
 ! A44   A(7,19,30)            115.0881         estimate D2E/DX2                !
 ! A45   A(7,20,28)            116.018          estimate D2E/DX2                !
 ! A46   A(7,21,29)            116.1544         estimate D2E/DX2                !
 ! D1    D(3,1,2,8)             54.013          estimate D2E/DX2                !
 ! D2    D(4,1,2,8)            -56.615          estimate D2E/DX2                !
 ! D3    D(5,1,2,8)           -178.2908         estimate D2E/DX2                !
 ! D4    D(2,1,3,7)            -51.1331         estimate D2E/DX2                !
 ! D5    D(4,1,3,7)             57.9568         estimate D2E/DX2                !
 ! D6    D(5,1,3,7)           -177.5709         estimate D2E/DX2                !
 ! D7    D(2,1,4,6)             41.2968         estimate D2E/DX2                !
 ! D8    D(3,1,4,6)            -70.0365         estimate D2E/DX2                !
 ! D9    D(5,1,4,6)            163.602          estimate D2E/DX2                !
 ! D10   D(2,1,5,9)            -89.6358         estimate D2E/DX2                !
 ! D11   D(3,1,5,9)             33.1909         estimate D2E/DX2                !
 ! D12   D(4,1,5,9)            153.9575         estimate D2E/DX2                !
 ! D13   D(1,2,8,13)            98.0767         estimate D2E/DX2                !
 ! D14   D(1,2,8,14)           -24.2296         estimate D2E/DX2                !
 ! D15   D(1,2,8,15)          -138.7156         estimate D2E/DX2                !
 ! D16   D(1,3,7,19)           -58.6416         estimate D2E/DX2                !
 ! D17   D(1,3,7,20)          -173.7291         estimate D2E/DX2                !
 ! D18   D(1,3,7,21)            63.0404         estimate D2E/DX2                !
 ! D19   D(1,4,6,16)           161.8736         estimate D2E/DX2                !
 ! D20   D(1,4,6,17)            34.551          estimate D2E/DX2                !
 ! D21   D(1,4,6,18)           -78.3045         estimate D2E/DX2                !
 ! D22   D(1,5,9,10)           -93.0137         estimate D2E/DX2                !
 ! D23   D(1,5,9,11)           148.712          estimate D2E/DX2                !
 ! D24   D(1,5,9,12)            25.1921         estimate D2E/DX2                !
 ! D25   D(4,6,16,32)          -13.7229         estimate D2E/DX2                !
 ! D26   D(17,6,16,32)         110.6319         estimate D2E/DX2                !
 ! D27   D(18,6,16,32)        -135.686          estimate D2E/DX2                !
 ! D28   D(4,6,17,33)           49.7998         estimate D2E/DX2                !
 ! D29   D(16,6,17,33)         -74.8906         estimate D2E/DX2                !
 ! D30   D(18,6,17,33)         168.3378         estimate D2E/DX2                !
 ! D31   D(4,6,18,31)         -102.9126         estimate D2E/DX2                !
 ! D32   D(16,6,18,31)          18.2691         estimate D2E/DX2                !
 ! D33   D(17,6,18,31)         139.8941         estimate D2E/DX2                !
 ! D34   D(3,7,19,30)         -162.9704         estimate D2E/DX2                !
 ! D35   D(20,7,19,30)         -42.4468         estimate D2E/DX2                !
 ! D36   D(21,7,19,30)          75.8144         estimate D2E/DX2                !
 ! D37   D(3,7,20,28)         -100.1112         estimate D2E/DX2                !
 ! D38   D(19,7,20,28)         146.7232         estimate D2E/DX2                !
 ! D39   D(21,7,20,28)          25.3303         estimate D2E/DX2                !
 ! D40   D(3,7,21,29)          -50.5298         estimate D2E/DX2                !
 ! D41   D(19,7,21,29)          65.4642         estimate D2E/DX2                !
 ! D42   D(20,7,21,29)        -177.1813         estimate D2E/DX2                !
 ! D43   D(2,8,13,25)          -54.0971         estimate D2E/DX2                !
 ! D44   D(14,8,13,25)          65.6987         estimate D2E/DX2                !
 ! D45   D(15,8,13,25)        -177.2849         estimate D2E/DX2                !
 ! D46   D(2,8,14,27)           81.1206         estimate D2E/DX2                !
 ! D47   D(13,8,14,27)         -39.3971         estimate D2E/DX2                !
 ! D48   D(15,8,14,27)        -160.2179         estimate D2E/DX2                !
 ! D49   D(2,8,15,26)          -54.9076         estimate D2E/DX2                !
 ! D50   D(13,8,15,26)          67.168          estimate D2E/DX2                !
 ! D51   D(14,8,15,26)        -171.403          estimate D2E/DX2                !
 ! D52   D(5,9,10,23)          -94.3737         estimate D2E/DX2                !
 ! D53   D(11,9,10,23)          26.6718         estimate D2E/DX2                !
 ! D54   D(12,9,10,23)         149.4207         estimate D2E/DX2                !
 ! D55   D(5,9,11,24)          -42.158          estimate D2E/DX2                !
 ! D56   D(10,9,11,24)        -165.7            estimate D2E/DX2                !
 ! D57   D(12,9,11,24)          75.582          estimate D2E/DX2                !
 ! D58   D(5,9,12,22)         -165.3206         estimate D2E/DX2                !
 ! D59   D(10,9,12,22)         -43.1978         estimate D2E/DX2                !
 ! D60   D(11,9,12,22)          73.8592         estimate D2E/DX2                !
 --------------------------------------------------------------------------------
 Trust Radius=3.00D-01 FncErr=1.00D-07 GrdErr=1.00D-06 EigMax=2.50D+02 EigMin=1.00D-04
 Number of steps in this run=    148 maximum allowed number of steps=    198.
 GradGradGradGradGradGradGradGradGradGradGradGradGradGradGradGradGradGrad

                          Input orientation:                          
 ---------------------------------------------------------------------
 Center     Atomic      Atomic             Coordinates (Angstroms)
 Number     Number       Type             X           Y           Z
 ---------------------------------------------------------------------
      1         40           0        0.646460   -0.190130   -0.151900
      2          8           0       -0.192120   -0.931310    1.439390
      3          8           0        0.172630    1.703950   -0.190400
      4          8           0       -0.377720   -1.016920   -1.628440
      5          8           0        2.567800   -0.578830   -0.268120
      6         14           0       -1.969240   -1.332160   -1.878290
      7         14           0       -0.989580    2.856810   -0.118090
      8         14           0       -1.674760   -1.051520    2.177060
      9         14           0        3.882960    0.226080    0.280080
     10          8           0        4.547040    1.261220   -0.820340
     11          8           0        5.091350   -0.842150    0.661360
     12          8           0        3.330480    1.114620    1.557600
     13          8           0       -2.335740   -2.512450    1.830040
     14          8           0       -2.620900    0.209280    1.641490
     15          8           0       -1.552000   -0.824320    3.796500
     16          8           0       -2.254270   -1.591640   -3.481830
     17          8           0       -2.883710   -0.139120   -1.195570
     18          8           0       -2.460270   -2.685980   -1.045790
     19          8           0       -2.008250    2.456050   -1.396700
     20          8           0       -0.446230    4.381420   -0.415550
     21          8           0       -1.758350    2.867150    1.326420
     22          1           0        3.903380    1.819550    1.879280
     23          1           0        5.272630    0.909140   -1.348170
     24          1           0        4.838850   -1.646830    1.127150
     25          1           0       -2.407380   -2.745750    0.887120
     26          1           0       -0.933910   -1.385130    4.276380
     27          1           0       -3.029280    0.047050    0.770240
     28          1           0       -0.290290    4.933460    0.359240
     29          1           0       -2.094890    2.003210    1.642660
     30          1           0       -2.608600    3.158070   -1.677300
     31          1           0       -2.566020   -3.491430   -1.564360
     32          1           0       -1.552780   -1.337140   -4.091410
     33          1           0       -2.640460    0.789950   -1.408290
 ---------------------------------------------------------------------
                    Distance matrix (angstroms):
                    1          2          3          4          5
     1  Zr   0.000000
     2  O    1.945448   0.000000
     3  O    1.952828   3.119912   0.000000
     4  O    1.978054   3.074631   3.126336   0.000000
     5  O    1.963706   3.264505   3.309677   3.273909   0.000000
     6  Si   3.335647   3.784949   4.080998   1.641565   4.872872
     7  Si   3.458557   4.172714   1.638611   4.202537   4.947836
     8  Si   3.399134   1.660370   4.075577   4.020614   4.919518
     9  Si   3.291621   4.392019   4.021443   4.831241   1.636475
    10  O    4.215181   5.689746   4.441655   5.486001   2.758282
    11  O    4.565476   5.341192   5.603742   5.931649   2.702143
    12  O    3.439292   4.075354   3.657162   5.333391   2.604363
    13  O    4.267877   2.692159   5.305858   4.246356   5.673259
    14  O    3.748522   2.690866   3.659736   4.150646   5.584831
    15  O    4.563473   2.723360   5.026119   5.553918   5.792595
    16  O    4.633238   5.376514   5.252073   2.699407   5.882693
    17  O    3.681569   3.849056   3.707895   2.690334   5.547294
    18  O    4.084125   3.794666   5.189927   2.731713   5.506936
    19  O    3.949592   4.776604   2.603277   3.843677   5.605749
    20  O    4.707712   5.632981   2.757268   5.533342   5.806048
    21  O    4.161190   4.110248   2.717068   5.071818   5.756119
    22  H    4.332671   4.953166   4.267954   6.219122   3.485302
    23  H    4.903153   6.404783   5.289816   5.976179   3.270576
    24  H    4.618883   5.091181   5.893834   5.933183   2.871423
    25  H    4.115422   2.916260   5.255219   3.665572   5.548201
    26  H    4.851315   2.967274   5.542470   5.942375   5.793494
    27  H    3.797060   3.074805   3.731002   3.730478   5.726886
    28  H    5.233540   5.964217   3.308494   6.274196   6.240801
    29  H    3.942865   3.503321   2.931094   4.771787   5.662039
    30  H    4.912505   5.681211   3.472834   4.733894   6.537991
    31  H    4.818055   4.605663   6.031579   3.303931   6.043144
    32  H    4.655322   5.710153   5.238621   2.747640   5.672016
    33  H    3.652796   4.131148   3.198770   2.904004   5.504500
                    6          7          8          9         10
     6  Si   0.000000
     7  Si   4.648172   0.000000
     8  Si   4.075701   4.583910   0.000000
     9  Si   6.429224   5.551660   6.009912   0.000000
    10  O    7.092727   5.804586   7.283129   1.650285   0.000000
    11  O    7.519432   7.160137   6.936961   1.657316   2.629805
    12  O    6.773412   4.950362   5.488927   1.651301   2.675090
    13  O    3.908851   5.868246   1.640620   6.969516   8.284791
    14  O    3.897377   3.573058   1.664822   6.644841   7.651572
    15  O    5.712725   5.402874   1.639901   6.557998   7.928618
    16  O    1.649216   5.718645   5.714070   7.424397   7.840928
    17  O    1.650971   3.704631   3.697116   6.935325   7.570852
    18  O    1.663429   5.809137   3.698006   7.104547   8.045720
    19  O    3.818898   1.683194   5.018568   6.518490   6.688171
    20  O    6.091319   1.645645   6.143920   6.040914   5.901885
    21  O    5.286667   1.636375   4.010804   6.316206   6.851681
    22  H    7.651162   5.385764   6.280713   2.257655   2.830897
    23  H    7.599285   6.672465   8.033534   2.246987   0.963870
    24  H    7.448609   7.470207   6.624486   2.266946   3.512069
    25  H    3.136510   5.865943   2.251909   6.983455   8.205802
    26  H    6.241368   6.108070   2.251066   6.462867   7.938547
    27  H    3.168693   3.583889   2.240697   6.931910   7.836120
    28  H    6.861735   2.242616   6.406342   6.291400   6.186802
    29  H    4.851553   2.247350   3.129452   6.383534   7.122651
    30  H    4.539972   2.267845   5.783493   7.387033   7.452221
    31  H    2.262111   6.699031   4.554748   7.668845   8.587018
    32  H    2.251969   5.804626   6.276159   7.148486   7.393185
    33  H    2.274816   2.943116   4.144674   6.761919   7.226890
                   11         12         13         14         15
    11  O    0.000000
    12  O    2.780802   0.000000
    13  O    7.701778   6.733195   0.000000
    14  O    7.845060   6.020432   2.743115   0.000000
    15  O    7.345987   5.710584   2.707581   2.618195   0.000000
    16  O    8.466752   7.994319   5.391706   5.442990   7.352282
    17  O    8.218517   6.911437   3.884235   2.870429   5.211882
    18  O    7.958708   7.399661   2.883751   3.953455   5.266736
    19  O    8.094322   6.247348   5.933388   3.828043   6.159409
    20  O    7.688317   5.369250   7.492554   5.134915   6.787033
    21  O    7.817903   5.387114   5.433885   2.812034   4.446440
    22  H    3.158995   0.963649   7.595740   6.724265   6.358219
    23  H    2.671720   3.501095   8.927239   8.469692   8.720555
    24  H    0.963445   3.175858   7.260723   7.704386   6.974591
    25  H    7.739872   6.948024   0.973991   3.057265   3.589994
    26  H    7.047479   5.641413   3.036537   3.511513   0.962719
    27  H    8.169894   6.496629   2.855734   0.975792   3.478490
    28  H    7.900063   5.397183   7.860578   5.421604   6.823394
    29  H    7.791089   5.498315   4.525959   1.869458   3.595648
    30  H    8.986675   7.064909   6.673131   4.439581   6.851155
    31  H    8.402847   8.107468   3.540252   4.896503   6.072934
    32  H    8.184027   7.859305   6.087524   6.033112   7.904563
    33  H    8.168726   6.674881   4.635243   3.104629   5.557018
                   16         17         18         19         20
    16  O    0.000000
    17  O    2.780826   0.000000
    18  O    2.678490   2.586162   0.000000
    19  O    4.559834   2.746232   5.173774   0.000000
    20  O    6.953311   5.194711   7.375751   2.666385   0.000000
    21  O    6.576170   4.082221   6.079254   2.765291   2.655020
    22  H    8.848411   7.704264   8.327777   6.788560   5.545136
    23  H    8.213442   8.224842   8.533116   7.443554   6.755136
    24  H    8.459202   8.204033   7.686264   8.371751   8.164055
    25  H    4.521409   3.370313   1.934557   5.695073   7.505972
    26  H    7.872472   5.941086   5.687484   6.934891   7.450177
    27  H    4.622342   1.979964   3.330344   3.397265   5.183147
    28  H    7.822274   5.905449   8.046042   3.488878   0.964036
    29  H    6.261689   3.642439   5.417543   3.074131   3.551083
    30  H    5.093292   3.343533   5.879943   0.965396   2.786475
    31  H    2.717183   3.387464   0.963767   5.975930   8.233774
    32  H    0.963559   3.404778   3.452348   4.675169   6.887549
    33  H    3.181302   0.983662   3.499423   1.782053   4.324215
                   21         22         23         24         25
    21  O    0.000000
    22  H    5.784316   0.000000
    23  H    7.773153   3.622171   0.000000
    24  H    7.996172   3.668323   3.584460   0.000000
    25  H    5.667351   7.851881   8.794163   7.333014   0.000000
    26  H    5.240596   6.278171   8.684491   6.581101   3.938208
    27  H    3.142859   7.241098   8.611189   8.056307   2.863591
    28  H    2.712983   5.440021   7.075060   8.378423   7.983169
    29  H    0.979622   6.005744   8.026357   7.852725   4.818829
    30  H    3.135266   7.539680   8.202426   9.296048   6.439863
    31  H    7.031392   9.050873   8.992007   8.091902   2.567286
    32  H    6.860845   8.682368   7.691382   8.257252   5.244071
    33  H    3.545633   7.395271   7.914216   8.264770   4.221896
                   26         27         28         29         30
    26  H    0.000000
    27  H    4.328364   0.000000
    28  H    7.462092   5.616760   0.000000
    29  H    4.445807   2.336828   3.672889   0.000000
    30  H    7.674084   3.980687   3.560065   3.552426   0.000000
    31  H    6.419854   4.264482   8.936328   6.379499   6.650595
    32  H    8.390781   5.266087   7.792470   6.658181   5.210527
    33  H    6.321294   2.334325   5.080958   3.328354   2.383563
                   31         32         33
    31  H    0.000000
    32  H    3.471830   0.000000
    33  H    4.284870   3.592589   0.000000
 Stoichiometry    H12O16Si4Zr
 Framework group  C1[X(H12O16Si4Zr)]
 Deg. of freedom    93
 Full point group                 C1      NOp   1
 Largest Abelian subgroup         C1      NOp   1
 Largest concise Abelian subgroup C1      NOp   1
                         Standard orientation:                         
 ---------------------------------------------------------------------
 Center     Atomic      Atomic             Coordinates (Angstroms)
 Number     Number       Type             X           Y           Z
 ---------------------------------------------------------------------
      1         40           0        0.618683   -0.407665   -0.306556
      2          8           0       -0.211015   -1.130073    1.297968
      3          8           0        0.496167    1.535825   -0.160365
      4          8           0       -0.653551   -0.907128   -1.736470
      5          8           0        2.421583   -1.114449   -0.632363
      6         14           0       -2.290651   -0.915508   -1.857173
      7         14           0       -0.427112    2.863030    0.106341
      8         14           0       -1.627012   -1.054603    2.161730
      9         14           0        3.900847   -0.604292   -0.153231
     10          8           0        4.652272    0.392959   -1.232255
     11          8           0        4.921027   -1.897167    0.032247
     12          8           0        3.623256    0.249289    1.232820
     13          8           0       -2.568557   -2.340413    1.772088
     14          8           0       -2.367436    0.395022    1.812455
     15          8           0       -1.335971   -0.998164    3.774611
     16          8           0       -2.745329   -0.976638   -3.441295
     17          8           0       -2.915062    0.353159   -1.004940
     18          8           0       -2.951917   -2.231531   -1.083993
     19          8           0       -1.600552    2.762626   -1.096197
     20          8           0        0.359269    4.289503   -0.128024
     21          8           0       -1.063261    2.878416    1.613922
     22          1           0        4.338783    0.811503    1.549925
     23          1           0        5.257092   -0.031955   -1.850871
     24          1           0        4.564238   -2.683669    0.459264
     25          1           0       -2.756570   -2.472290    0.825558
     26          1           0       -0.794021   -1.699080    4.151221
     27          1           0       -2.866797    0.385317    0.974174
     28          1           0        0.674514    4.734204    0.667103
     29          1           0       -1.525149    2.061887    1.896052
     30          1           0       -2.083483    3.581071   -1.266237
     31          1           0       -3.243655   -2.956402   -1.648173
     32          1           0       -2.060195   -0.795264   -4.094089
     33          1           0       -2.524471    1.240607   -1.170672
 ---------------------------------------------------------------------
 Rotational constants (GHZ):           0.2182023           0.1418224           0.1326701
 General basis read from cards:  (5D, 7F)
 ======================================================================================================
                                       Pseudopotential Parameters
 ======================================================================================================
  Center     Atomic      Valence      Angular      Power
  Number     Number     Electrons     Momentum     of R      Exponent        Coefficient   SO-Coeffient
 ======================================================================================================
    1         40           12
                                      G and up 
                                                     2        1.0000000        0.00000000    0.00000000
                                      S - G
                                                     2        8.6365280      150.24299400    0.00000000
                                                     2        3.7176390       18.78003600    0.00000000
                                      P - G
                                                     2        7.6267280       33.19279100    0.00000000
                                                     2        7.4532070       66.38903900    0.00000000
                                                     2        3.3583890        4.62072600    0.00000000
                                                     2        3.2297380        9.26027000    0.00000000
                                      D - G
                                                     2        5.9380860       13.99338300    0.00000000
                                                     2        5.8255440       20.99588200    0.00000000
                                                     2        2.2050190        2.28516600    0.00000000
                                                     2        2.2062920        3.44126000    0.00000000
                                      F - G
                                                     2        4.8002150       -5.23932000    0.00000000
                                                     2        4.7989920       -6.98742400    0.00000000
    2          8
                                   No pseudopotential on this center.
    3          8
                                   No pseudopotential on this center.
    4          8
                                   No pseudopotential on this center.
    5          8
                                   No pseudopotential on this center.
    6         14
                                   No pseudopotential on this center.
    7         14
                                   No pseudopotential on this center.
    8         14
                                   No pseudopotential on this center.
    9         14
                                   No pseudopotential on this center.
   10          8
                                   No pseudopotential on this center.
   11          8
                                   No pseudopotential on this center.
   12          8
                                   No pseudopotential on this center.
   13          8
                                   No pseudopotential on this center.
   14          8
                                   No pseudopotential on this center.
   15          8
                                   No pseudopotential on this center.
   16          8
                                   No pseudopotential on this center.
   17          8
                                   No pseudopotential on this center.
   18          8
                                   No pseudopotential on this center.
   19          8
                                   No pseudopotential on this center.
   20          8
                                   No pseudopotential on this center.
   21          8
                                   No pseudopotential on this center.
   22          1
                                   No pseudopotential on this center.
   23          1
                                   No pseudopotential on this center.
   24          1
                                   No pseudopotential on this center.
   25          1
                                   No pseudopotential on this center.
   26          1
                                   No pseudopotential on this center.
   27          1
                                   No pseudopotential on this center.
   28          1
                                   No pseudopotential on this center.
   29          1
                                   No pseudopotential on this center.
   30          1
                                   No pseudopotential on this center.
   31          1
                                   No pseudopotential on this center.
   32          1
                                   No pseudopotential on this center.
   33          1
                                   No pseudopotential on this center.
 ======================================================================================================
 There are   570 symmetry adapted cartesian basis functions of A   symmetry.
 There are   524 symmetry adapted basis functions of A   symmetry.
   524 basis functions,  1074 primitive gaussians,   570 cartesian basis functions
   104 alpha electrons      104 beta electrons
       nuclear repulsion energy      2871.4877774424 Hartrees.
 NAtoms=   33 NActive=   33 NUniq=   33 SFac= 1.00D+00 NAtFMM=   60 NAOKFM=F Big=F
 Integral buffers will be    131072 words long.
 Raffenetti 2 integral format.
 Two-electron integral symmetry is turned on.
 Nuclear repulsion after empirical dispersion term =     2871.4463320116 Hartrees.
 One-electron integrals computed using PRISM.
 PrsmSu:  requested number of processors reduced to:   4 ShMem   1 Linda.
   1 Symmetry operations used in ECPInt.
 ECPInt:  NShTT=   13203 NPrTT=   78401 LenC2=   11619 LenP2D=   45141.
 LDataN:  DoStor=T MaxTD1= 8 Len=  415
 Number of processors reduced to  13 by ecpmxn.
 NBasis=   524 RedAO= T EigKep=  2.67D-05  NBF=   524
 NBsUse=   524 1.00D-06 EigRej= -1.00D+00 NBFU=   524
 Defaulting to unpruned grid for atomic number  40.
 ExpMin= 1.01D-02 ExpMax= 1.61D+04 ExpMxC= 2.43D+03 IAcc=3 IRadAn=         5 AccDes= 0.00D+00
 Harris functional with IExCor=  402 and IRadAn=       5 diagonalized for initial guess.
 HarFok:  IExCor=  402 AccDes= 0.00D+00 IRadAn=         5 IDoV= 1 UseB2=F ITyADJ=14
 ICtDFT=  3500011 ScaDFX=  1.000000  1.000000  1.000000  1.000000
 Defaulting to unpruned grid for atomic number  40.
 FoFCou: FMM=F IPFlag=           0 FMFlag=      100000 FMFlg1=           0
         NFxFlg=           0 DoJE=T BraDBF=F KetDBF=T FulRan=T
         wScrn=  0.000000 ICntrl=       500 IOpCl=  0 I1Cent=   200000004 NGrid=           0
         NMat0=    1 NMatS0=      1 NMatT0=    0 NMatD0=    1 NMtDS0=    0 NMtDT0=    0
 Petite list used in FoFCou.
 Requested convergence on RMS density matrix=1.00D-08 within 128 cycles.
 Requested convergence on MAX density matrix=1.00D-06.
 Requested convergence on             energy=1.00D-06.
 No special actions if energy rises.
 Defaulting to unpruned grid for atomic number  40.
 Defaulting to unpruned grid for atomic number  40.
 Defaulting to unpruned grid for atomic number  40.
 Defaulting to unpruned grid for atomic number  40.
 Defaulting to unpruned grid for atomic number  40.
 Defaulting to unpruned grid for atomic number  40.
 Defaulting to unpruned grid for atomic number  40.
 Defaulting to unpruned grid for atomic number  40.
 Defaulting to unpruned grid for atomic number  40.
 Defaulting to unpruned grid for atomic number  40.
 Defaulting to unpruned grid for atomic number  40.
 Defaulting to unpruned grid for atomic number  40.
 Defaulting to unpruned grid for atomic number  40.
 Defaulting to unpruned grid for atomic number  40.
 Defaulting to unpruned grid for atomic number  40.
 Defaulting to unpruned grid for atomic number  40.
 SCF Done:  E(RB3LYP) =  -2416.94460179     A.U. after   14 cycles
            NFock= 14  Conv=0.37D-08     -V/T= 2.0184

 **********************************************************************

            Population analysis using the SCF Density.

 **********************************************************************

 Orbital symmetries:
       Occupied  (A) (A) (A) (A) (A) (A) (A) (A) (A) (A) (A) (A)
                 (A) (A) (A) (A) (A) (A) (A) (A) (A) (A) (A) (A)
                 (A) (A) (A) (A) (A) (A) (A) (A) (A) (A) (A) (A)
                 (A) (A) (A) (A) (A) (A) (A) (A) (A) (A) (A) (A)
                 (A) (A) (A) (A) (A) (A) (A) (A) (A) (A) (A) (A)
                 (A) (A) (A) (A) (A) (A) (A) (A) (A) (A) (A) (A)
                 (A) (A) (A) (A) (A) (A) (A) (A) (A) (A) (A) (A)
                 (A) (A) (A) (A) (A) (A) (A) (A) (A) (A) (A) (A)
                 (A) (A) (A) (A) (A) (A) (A) (A)
       Virtual   (A) (A) (A) (A) (A) (A) (A) (A) (A) (A) (A) (A)
                 (A) (A) (A) (A) (A) (A) (A) (A) (A) (A) (A) (A)
                 (A) (A) (A) (A) (A) (A) (A) (A) (A) (A) (A) (A)
                 (A) (A) (A) (A) (A) (A) (A) (A) (A) (A) (A) (A)
                 (A) (A) (A) (A) (A) (A) (A) (A) (A) (A) (A) (A)
                 (A) (A) (A) (A) (A) (A) (A) (A) (A) (A) (A) (A)
                 (A) (A) (A) (A) (A) (A) (A) (A) (A) (A) (A) (A)
                 (A) (A) (A) (A) (A) (A) (A) (A) (A) (A) (A) (A)
                 (A) (A) (A) (A) (A) (A) (A) (A) (A) (A) (A) (A)
                 (A) (A) (A) (A) (A) (A) (A) (A) (A) (A) (A) (A)
                 (A) (A) (A) (A) (A) (A) (A) (A) (A) (A) (A) (A)
                 (A) (A) (A) (A) (A) (A) (A) (A) (A) (A) (A) (A)
                 (A) (A) (A) (A) (A) (A) (A) (A) (A) (A) (A) (A)
                 (A) (A) (A) (A) (A) (A) (A) (A) (A) (A) (A) (A)
                 (A) (A) (A) (A) (A) (A) (A) (A) (A) (A) (A) (A)
                 (A) (A) (A) (A) (A) (A) (A) (A) (A) (A) (A) (A)
                 (A) (A) (A) (A) (A) (A) (A) (A) (A) (A) (A) (A)
                 (A) (A) (A) (A) (A) (A) (A) (A) (A) (A) (A) (A)
                 (A) (A) (A) (A) (A) (A) (A) (A) (A) (A) (A) (A)
                 (A) (A) (A) (A) (A) (A) (A) (A) (A) (A) (A) (A)
                 (A) (A) (A) (A) (A) (A) (A) (A) (A) (A) (A) (A)
                 (A) (A) (A) (A) (A) (A) (A) (A) (A) (A) (A) (A)
                 (A) (A) (A) (A) (A) (A) (A) (A) (A) (A) (A) (A)
                 (A) (A) (A) (A) (A) (A) (A) (A) (A) (A) (A) (A)
                 (A) (A) (A) (A) (A) (A) (A) (A) (A) (A) (A) (A)
                 (A) (A) (A) (A) (A) (A) (A) (A) (A) (A) (A) (A)
                 (A) (A) (A) (A) (A) (A) (A) (A) (A) (A) (A) (A)
                 (A) (A) (A) (A) (A) (A) (A) (A) (A) (A) (A) (A)
                 (A) (A) (A) (A) (A) (A) (A) (A) (A) (A) (A) (A)
                 (A) (A) (A) (A) (A) (A) (A) (A) (A) (A) (A) (A)
                 (A) (A) (A) (A) (A) (A) (A) (A) (A) (A) (A) (A)
                 (A) (A) (A) (A) (A) (A) (A) (A) (A) (A) (A) (A)
                 (A) (A) (A) (A) (A) (A) (A) (A) (A) (A) (A) (A)
                 (A) (A) (A) (A) (A) (A) (A) (A) (A) (A) (A) (A)
                 (A) (A) (A) (A) (A) (A) (A) (A) (A) (A) (A) (A)
 The electronic state is 1-A.
 Alpha  occ. eigenvalues --  -66.22616 -66.21815 -66.21561 -66.20815 -19.18362
 Alpha  occ. eigenvalues --  -19.18181 -19.17648 -19.17240 -19.16868 -19.16794
 Alpha  occ. eigenvalues --  -19.16769 -19.16579 -19.15990 -19.15818 -19.15813
 Alpha  occ. eigenvalues --  -19.15635 -19.15268 -19.15004 -19.14693 -19.14432
 Alpha  occ. eigenvalues --   -5.36674  -5.35942  -5.35640  -5.34872  -3.72661
 Alpha  occ. eigenvalues --   -3.72634  -3.72580  -3.71908  -3.71894  -3.71863
 Alpha  occ. eigenvalues --   -3.71632  -3.71584  -3.71551  -3.70853  -3.70835
 Alpha  occ. eigenvalues --   -3.70781  -2.13081  -1.29400  -1.29265  -1.29111
 Alpha  occ. eigenvalues --   -1.05481  -1.04700  -1.04595  -1.03326  -1.02379
 Alpha  occ. eigenvalues --   -1.01992  -1.01659  -1.01288  -1.01113  -1.00520
 Alpha  occ. eigenvalues --   -0.99636  -0.99156  -0.97399  -0.96127  -0.95684
 Alpha  occ. eigenvalues --   -0.95069  -0.60745  -0.59430  -0.58957  -0.58757
 Alpha  occ. eigenvalues --   -0.55405  -0.54502  -0.54352  -0.53543  -0.52927
 Alpha  occ. eigenvalues --   -0.52405  -0.51692  -0.50000  -0.48478  -0.47564
 Alpha  occ. eigenvalues --   -0.47242  -0.46703  -0.43233  -0.42680  -0.41790
 Alpha  occ. eigenvalues --   -0.41627  -0.41300  -0.40332  -0.39719  -0.39599
 Alpha  occ. eigenvalues --   -0.39095  -0.38777  -0.38532  -0.38065  -0.37909
 Alpha  occ. eigenvalues --   -0.37583  -0.37332  -0.36921  -0.36680  -0.36359
 Alpha  occ. eigenvalues --   -0.36184  -0.35933  -0.35335  -0.35304  -0.34824
 Alpha  occ. eigenvalues --   -0.34307  -0.33937  -0.33816  -0.33460  -0.33001
 Alpha  occ. eigenvalues --   -0.32863  -0.32207  -0.31819  -0.31104
 Alpha virt. eigenvalues --   -0.04305  -0.02953  -0.02934  -0.02850  -0.01961
 Alpha virt. eigenvalues --   -0.01211  -0.00325  -0.00250   0.00030   0.00314
 Alpha virt. eigenvalues --    0.00743   0.01072   0.01440   0.02061   0.02276
 Alpha virt. eigenvalues --    0.02709   0.03328   0.03815   0.03939   0.04186
 Alpha virt. eigenvalues --    0.04493   0.05099   0.05826   0.06120   0.06189
 Alpha virt. eigenvalues --    0.06580   0.06805   0.07602   0.07860   0.08359
 Alpha virt. eigenvalues --    0.08701   0.08868   0.09255   0.09522   0.10123
 Alpha virt. eigenvalues --    0.10319   0.10858   0.11060   0.11115   0.11546
 Alpha virt. eigenvalues --    0.12009   0.12416   0.13084   0.13533   0.13803
 Alpha virt. eigenvalues --    0.13936   0.14259   0.14534   0.15101   0.15395
 Alpha virt. eigenvalues --    0.15576   0.15753   0.16434   0.16693   0.16808
 Alpha virt. eigenvalues --    0.17252   0.17320   0.17451   0.17880   0.18426
 Alpha virt. eigenvalues --    0.18621   0.18955   0.19275   0.19487   0.19967
 Alpha virt. eigenvalues --    0.20370   0.20750   0.21320   0.21437   0.21622
 Alpha virt. eigenvalues --    0.21868   0.22143   0.22460   0.22732   0.23251
 Alpha virt. eigenvalues --    0.23651   0.24012   0.24319   0.24533   0.24736
 Alpha virt. eigenvalues --    0.25225   0.25822   0.26028   0.26251   0.26446
 Alpha virt. eigenvalues --    0.26622   0.27223   0.27458   0.27652   0.27832
 Alpha virt. eigenvalues --    0.28117   0.28270   0.28768   0.28910   0.29556
 Alpha virt. eigenvalues --    0.29672   0.29948   0.30322   0.30711   0.31120
 Alpha virt. eigenvalues --    0.31238   0.31363   0.31992   0.32363   0.32544
 Alpha virt. eigenvalues --    0.32932   0.33226   0.33488   0.33743   0.34280
 Alpha virt. eigenvalues --    0.34896   0.35108   0.35476   0.36069   0.36630
 Alpha virt. eigenvalues --    0.37322   0.37749   0.38406   0.38655   0.39797
 Alpha virt. eigenvalues --    0.40225   0.40390   0.40692   0.41232   0.41662
 Alpha virt. eigenvalues --    0.42179   0.43123   0.43563   0.43967   0.44754
 Alpha virt. eigenvalues --    0.45548   0.45855   0.46432   0.46762   0.47095
 Alpha virt. eigenvalues --    0.47456   0.48588   0.49367   0.50130   0.50408
 Alpha virt. eigenvalues --    0.50463   0.51140   0.51551   0.52944   0.53131
 Alpha virt. eigenvalues --    0.54329   0.54891   0.55322   0.55965   0.56911
 Alpha virt. eigenvalues --    0.57699   0.58836   0.59697   0.60162   0.60737
 Alpha virt. eigenvalues --    0.61219   0.62552   0.63073   0.64887   0.65915
 Alpha virt. eigenvalues --    0.66291   0.67330   0.67964   0.68448   0.69303
 Alpha virt. eigenvalues --    0.70413   0.71978   0.72170   0.73738   0.74283
 Alpha virt. eigenvalues --    0.76548   0.77184   0.77955   0.79089   0.79929
 Alpha virt. eigenvalues --    0.81765   0.82406   0.83886   0.84600   0.85714
 Alpha virt. eigenvalues --    0.86632   0.88163   0.89600   0.91298   0.91597
 Alpha virt. eigenvalues --    0.92308   0.95913   0.96470   0.96882   0.97598
 Alpha virt. eigenvalues --    0.97875   0.98499   0.98798   0.99678   1.00237
 Alpha virt. eigenvalues --    1.01252   1.01571   1.02323   1.03405   1.04012
 Alpha virt. eigenvalues --    1.04650   1.04998   1.05335   1.07977   1.09041
 Alpha virt. eigenvalues --    1.09748   1.12196   1.15309   1.16446   1.17159
 Alpha virt. eigenvalues --    1.19026   1.19344   1.20346   1.20826   1.20992
 Alpha virt. eigenvalues --    1.21844   1.22546   1.22833   1.23116   1.23400
 Alpha virt. eigenvalues --    1.24366   1.24527   1.24801   1.25743   1.25938
 Alpha virt. eigenvalues --    1.26792   1.27370   1.28263   1.28328   1.28639
 Alpha virt. eigenvalues --    1.29857   1.30335   1.30777   1.31597   1.32160
 Alpha virt. eigenvalues --    1.32804   1.32904   1.33796   1.34441   1.35371
 Alpha virt. eigenvalues --    1.36677   1.36841   1.37139   1.37734   1.38256
 Alpha virt. eigenvalues --    1.39682   1.40625   1.40676   1.41438   1.41846
 Alpha virt. eigenvalues --    1.42409   1.42895   1.43743   1.45144   1.46391
 Alpha virt. eigenvalues --    1.48198   1.48997   1.50484   1.51523   1.53161
 Alpha virt. eigenvalues --    1.56784   1.57303   1.57420   1.58869   1.59502
 Alpha virt. eigenvalues --    1.60342   1.61148   1.61509   1.61807   1.62881
 Alpha virt. eigenvalues --    1.64296   1.64809   1.65356   1.65808   1.66962
 Alpha virt. eigenvalues --    1.67539   1.67795   1.69549   1.69806   1.70743
 Alpha virt. eigenvalues --    1.71349   1.71732   1.72003   1.72889   1.73607
 Alpha virt. eigenvalues --    1.74690   1.75157   1.75504   1.76799   1.77145
 Alpha virt. eigenvalues --    1.77254   1.78693   1.78857   1.79743   1.80394
 Alpha virt. eigenvalues --    1.80631   1.81090   1.82007   1.82356   1.83042
 Alpha virt. eigenvalues --    1.83910   1.84979   1.85958   1.86337   1.86490
 Alpha virt. eigenvalues --    1.87415   1.87865   1.89601   1.90263   1.90865
 Alpha virt. eigenvalues --    1.91508   1.92435   1.93161   1.94108   1.94671
 Alpha virt. eigenvalues --    1.94921   1.95949   1.96745   1.97777   1.98776
 Alpha virt. eigenvalues --    1.98917   1.99931   2.02841   2.04836   2.06173
 Alpha virt. eigenvalues --    2.07066   2.07774   2.08477   2.10806   2.11019
 Alpha virt. eigenvalues --    2.12847   2.13814   2.14479   2.16210   2.16699
 Alpha virt. eigenvalues --    2.17025   2.19908   2.20371   2.23657   2.30402
 Alpha virt. eigenvalues --    2.32312   2.34893   2.38144   2.39787   2.40357
 Alpha virt. eigenvalues --    2.41284   2.41707   2.43304   2.43823   2.44127
 Alpha virt. eigenvalues --    2.45343   2.45862   2.46297   2.48606   2.49565
 Alpha virt. eigenvalues --    2.49848   2.50539   2.51090   2.53048   2.53788
 Alpha virt. eigenvalues --    2.54798   2.57825   2.60219   2.60453   2.61109
 Alpha virt. eigenvalues --    2.61187   2.61721   2.61996   2.62394   2.62995
 Alpha virt. eigenvalues --    2.63375   2.63671   2.65169   2.65560   2.65892
 Alpha virt. eigenvalues --    2.66697   2.67084   2.67658   2.68077   2.68161
 Alpha virt. eigenvalues --    2.69733   2.71313   2.71501   2.72505   2.73499
 Alpha virt. eigenvalues --    2.74838   2.75901   2.76555   2.78089   2.79000
 Alpha virt. eigenvalues --    2.80032   2.80451   2.82344   2.83484   2.83599
 Alpha virt. eigenvalues --    2.84608   2.85819   2.87658   2.88307   2.88714
 Alpha virt. eigenvalues --    3.15054   3.28520   3.37033   3.39716   3.46220
 Alpha virt. eigenvalues --    3.47966   3.48914   3.49162   3.49396   3.52574
 Alpha virt. eigenvalues --    3.53268   3.54438   3.60133   3.61482   3.62279
 Alpha virt. eigenvalues --    3.66010   4.33930   5.46096   7.51290  31.17547
          Condensed to atoms (all electrons):
               1          2          3          4          5          6
     1  Zr  16.337590  -0.155262   0.006845  -0.239252   0.075132  -0.877799
     2  O   -0.155262   8.841068   0.011286  -0.055828  -0.055045   0.093693
     3  O    0.006845   0.011286   8.856482   0.009277  -0.054826  -0.003701
     4  O   -0.239252  -0.055828   0.009277   8.942569  -0.069609  -0.856595
     5  O    0.075132  -0.055045  -0.054826  -0.069609   9.106739  -0.004228
     6  Si  -0.877799   0.093693  -0.003701  -0.856595  -0.004228  14.403934
     7  Si  -0.680643  -0.008750  -0.929598  -0.015754  -0.029290   0.118843
     8  Si  -0.668085  -0.670525  -0.037652   0.091604  -0.010155  -0.014944
     9  Si  -1.108285   0.018824   0.047739   0.031983  -0.904512   0.102784
    10  O   -0.040862   0.000187   0.000115  -0.000811   0.108276  -0.000241
    11  O   -0.175277   0.000119   0.000812   0.001378   0.300435   0.000319
    12  O    0.036220   0.002187   0.012885   0.000717   0.117311  -0.003357
    13  O    0.029237   0.270811   0.000882  -0.013418  -0.000246   0.010803
    14  O   -0.095306   0.239177  -0.019718  -0.004052  -0.000860   0.024186
    15  O   -0.068838   0.234465   0.000870   0.002456   0.000518   0.002976
    16  O   -0.097069   0.005329  -0.000351   0.341304   0.002053  -0.454072
    17  O   -0.136988  -0.038372   0.007105   0.221805  -0.001162  -0.429099
    18  O   -0.091207  -0.023602   0.003058   0.255511  -0.000952  -0.503080
    19  O   -0.008570   0.007744   0.281768   0.015677   0.001683   0.002178
    20  O   -0.132635  -0.000889   0.144394  -0.000389   0.000707   0.010983
    21  O    0.057586   0.011029   0.166916   0.004548   0.001462  -0.021989
    22  H   -0.017947   0.000054   0.000464   0.000007   0.002314   0.000263
    23  H   -0.003599  -0.000011   0.000010  -0.000025  -0.023100   0.000082
    24  H   -0.008809  -0.000003   0.000037   0.000011  -0.001407   0.000080
    25  H    0.017324  -0.021175  -0.000105  -0.001858  -0.000020   0.002490
    26  H   -0.008066  -0.012001   0.000010  -0.000013  -0.000020  -0.000117
    27  H    0.018543  -0.021417   0.000802  -0.001380   0.000039   0.006966
    28  H    0.003785  -0.000013  -0.017068  -0.000013  -0.000004  -0.000347
    29  H    0.000848  -0.004701  -0.018999  -0.000189  -0.000029   0.000869
    30  H    0.001221  -0.000012   0.000090  -0.000568  -0.000007  -0.002358
    31  H    0.005404   0.000303  -0.000021  -0.019411  -0.000011   0.063388
    32  H    0.003526  -0.000030   0.000037   0.011859   0.000017   0.017341
    33  H   -0.025220   0.001001  -0.010988  -0.008906  -0.000041   0.058606
               7          8          9         10         11         12
     1  Zr  -0.680643  -0.668085  -1.108285  -0.040862  -0.175277   0.036220
     2  O   -0.008750  -0.670525   0.018824   0.000187   0.000119   0.002187
     3  O   -0.929598  -0.037652   0.047739   0.000115   0.000812   0.012885
     4  O   -0.015754   0.091604   0.031983  -0.000811   0.001378   0.000717
     5  O   -0.029290  -0.010155  -0.904512   0.108276   0.300435   0.117311
     6  Si   0.118843  -0.014944   0.102784  -0.000241   0.000319  -0.003357
     7  Si  13.878021   0.186279   0.051526   0.002152  -0.000456  -0.001977
     8  Si   0.186279  13.631602   0.057627  -0.001446   0.003323  -0.009650
     9  Si   0.051526   0.057627  13.997776  -0.011192  -0.123486  -0.235423
    10  O    0.002152  -0.001446  -0.011192   8.591283  -0.063857   0.071113
    11  O   -0.000456   0.003323  -0.123486  -0.063857   8.648317  -0.062490
    12  O   -0.001977  -0.009650  -0.235423   0.071113  -0.062490   8.705372
    13  O    0.000389  -0.156324  -0.004366  -0.000003   0.000026  -0.000171
    14  O    0.033400  -0.458353   0.002330   0.000006   0.000014   0.000327
    15  O   -0.001195  -0.374667   0.000861   0.000010  -0.000046   0.000728
    16  O    0.004269  -0.011720  -0.002540   0.000007  -0.000005   0.000002
    17  O    0.004873   0.110099   0.005756   0.000015   0.000009  -0.000019
    18  O   -0.002836   0.092146   0.004716   0.000011   0.000003  -0.000002
    19  O   -0.455567  -0.018149   0.002653  -0.000050   0.000007  -0.000172
    20  O   -0.091163   0.008985   0.005988   0.000143   0.000005  -0.000190
    21  O   -0.002329  -0.049334  -0.007055  -0.000027   0.000012  -0.000720
    22  H    0.000727   0.000546   0.055579  -0.002383  -0.003368   0.229513
    23  H   -0.000050   0.000050   0.068855   0.233259  -0.004822   0.005060
    24  H    0.000057   0.000211   0.044598   0.008337   0.229954  -0.006583
    25  H   -0.000175   0.055168  -0.000202  -0.000000   0.000000  -0.000000
    26  H    0.000548   0.065817  -0.000807   0.000000   0.000000  -0.000019
    27  H   -0.001623   0.073167  -0.000193  -0.000000  -0.000000   0.000002
    28  H    0.055763   0.000082  -0.000164   0.000000  -0.000000  -0.000012
    29  H    0.046799   0.021058   0.000105  -0.000000  -0.000000   0.000020
    30  H    0.045316   0.000210  -0.000074   0.000000  -0.000000  -0.000000
    31  H    0.000084  -0.003564  -0.000072  -0.000000  -0.000000   0.000000
    32  H   -0.000644   0.000230  -0.000088  -0.000000   0.000000  -0.000000
    33  H    0.022801   0.000835   0.000326  -0.000000  -0.000000   0.000001
              13         14         15         16         17         18
     1  Zr   0.029237  -0.095306  -0.068838  -0.097069  -0.136988  -0.091207
     2  O    0.270811   0.239177   0.234465   0.005329  -0.038372  -0.023602
     3  O    0.000882  -0.019718   0.000870  -0.000351   0.007105   0.003058
     4  O   -0.013418  -0.004052   0.002456   0.341304   0.221805   0.255511
     5  O   -0.000246  -0.000860   0.000518   0.002053  -0.001162  -0.000952
     6  Si   0.010803   0.024186   0.002976  -0.454072  -0.429099  -0.503080
     7  Si   0.000389   0.033400  -0.001195   0.004269   0.004873  -0.002836
     8  Si  -0.156324  -0.458353  -0.374667  -0.011720   0.110099   0.092146
     9  Si  -0.004366   0.002330   0.000861  -0.002540   0.005756   0.004716
    10  O   -0.000003   0.000006   0.000010   0.000007   0.000015   0.000011
    11  O    0.000026   0.000014  -0.000046  -0.000005   0.000009   0.000003
    12  O   -0.000171   0.000327   0.000728   0.000002  -0.000019  -0.000002
    13  O    8.647534   0.022642  -0.125285   0.004144  -0.029192  -0.043666
    14  O    0.022642   8.817142   0.156719   0.002216  -0.026755  -0.023298
    15  O   -0.125285   0.156719   8.801631  -0.000173   0.003962   0.001471
    16  O    0.004144   0.002216  -0.000173   8.897293  -0.099595  -0.099547
    17  O   -0.029192  -0.026755   0.003962  -0.099595   8.934567   0.232023
    18  O   -0.043666  -0.023298   0.001471  -0.099547   0.232023   9.056447
    19  O    0.000221   0.000553   0.000346  -0.000900  -0.029670  -0.000004
    20  O    0.000005  -0.001392   0.000003   0.000019  -0.000976   0.000025
    21  O   -0.000323   0.024403   0.000815  -0.000135  -0.006365   0.000403
    22  H   -0.000000  -0.000001   0.000003  -0.000000   0.000000   0.000000
    23  H    0.000000  -0.000000   0.000000  -0.000000   0.000000  -0.000000
    24  H   -0.000000   0.000000   0.000000   0.000000  -0.000000  -0.000000
    25  H    0.218511  -0.009033   0.007303  -0.000293   0.000580   0.014883
    26  H   -0.006581   0.000994   0.224353   0.000000  -0.000025   0.000004
    27  H   -0.004645   0.205603   0.000183   0.000342   0.016932  -0.000911
    28  H    0.000000  -0.000004  -0.000001   0.000000   0.000002   0.000000
    29  H    0.000766   0.015211  -0.001281  -0.000004  -0.000544  -0.000004
    30  H    0.000001   0.000012   0.000001   0.000123  -0.000655  -0.000012
    31  H    0.002217   0.000084  -0.000018   0.005080  -0.001442   0.214064
    32  H   -0.000007  -0.000007   0.000000   0.236617  -0.003470   0.003990
    33  H    0.000245   0.002359  -0.000056   0.000415   0.231891   0.002205
              19         20         21         22         23         24
     1  Zr  -0.008570  -0.132635   0.057586  -0.017947  -0.003599  -0.008809
     2  O    0.007744  -0.000889   0.011029   0.000054  -0.000011  -0.000003
     3  O    0.281768   0.144394   0.166916   0.000464   0.000010   0.000037
     4  O    0.015677  -0.000389   0.004548   0.000007  -0.000025   0.000011
     5  O    0.001683   0.000707   0.001462   0.002314  -0.023100  -0.001407
     6  Si   0.002178   0.010983  -0.021989   0.000263   0.000082   0.000080
     7  Si  -0.455567  -0.091163  -0.002329   0.000727  -0.000050   0.000057
     8  Si  -0.018149   0.008985  -0.049334   0.000546   0.000050   0.000211
     9  Si   0.002653   0.005988  -0.007055   0.055579   0.068855   0.044598
    10  O   -0.000050   0.000143  -0.000027  -0.002383   0.233259   0.008337
    11  O    0.000007   0.000005   0.000012  -0.003368  -0.004822   0.229954
    12  O   -0.000172  -0.000190  -0.000720   0.229513   0.005060  -0.006583
    13  O    0.000221   0.000005  -0.000323  -0.000000   0.000000  -0.000000
    14  O    0.000553  -0.001392   0.024403  -0.000001  -0.000000   0.000000
    15  O    0.000346   0.000003   0.000815   0.000003   0.000000   0.000000
    16  O   -0.000900   0.000019  -0.000135  -0.000000  -0.000000   0.000000
    17  O   -0.029670  -0.000976  -0.006365   0.000000   0.000000  -0.000000
    18  O   -0.000004   0.000025   0.000403   0.000000  -0.000000  -0.000000
    19  O    8.898724   0.035658   0.024845  -0.000000   0.000000  -0.000000
    20  O    0.035658   8.649063  -0.056394   0.000003  -0.000000  -0.000000
    21  O    0.024845  -0.056394   8.492677  -0.000010   0.000000   0.000000
    22  H   -0.000000   0.000003  -0.000010   0.336232   0.000031   0.000099
    23  H    0.000000  -0.000000   0.000000   0.000031   0.351091   0.000040
    24  H   -0.000000  -0.000000   0.000000   0.000099   0.000040   0.368946
    25  H   -0.000031   0.000000  -0.000008   0.000000   0.000000   0.000000
    26  H    0.000000  -0.000000   0.000052  -0.000000  -0.000000  -0.000000
    27  H   -0.000265   0.000227  -0.004739  -0.000000   0.000000   0.000000
    28  H    0.004184   0.228630  -0.001209  -0.000000   0.000000  -0.000000
    29  H   -0.008077   0.008207   0.209010   0.000000   0.000000  -0.000000
    30  H    0.221334  -0.001974  -0.007410   0.000000  -0.000000  -0.000000
    31  H    0.000002  -0.000000  -0.000000  -0.000000   0.000000   0.000000
    32  H    0.000080   0.000000   0.000001   0.000000  -0.000000  -0.000000
    33  H    0.013146   0.000021   0.001236  -0.000000  -0.000000   0.000000
              25         26         27         28         29         30
     1  Zr   0.017324  -0.008066   0.018543   0.003785   0.000848   0.001221
     2  O   -0.021175  -0.012001  -0.021417  -0.000013  -0.004701  -0.000012
     3  O   -0.000105   0.000010   0.000802  -0.017068  -0.018999   0.000090
     4  O   -0.001858  -0.000013  -0.001380  -0.000013  -0.000189  -0.000568
     5  O   -0.000020  -0.000020   0.000039  -0.000004  -0.000029  -0.000007
     6  Si   0.002490  -0.000117   0.006966  -0.000347   0.000869  -0.002358
     7  Si  -0.000175   0.000548  -0.001623   0.055763   0.046799   0.045316
     8  Si   0.055168   0.065817   0.073167   0.000082   0.021058   0.000210
     9  Si  -0.000202  -0.000807  -0.000193  -0.000164   0.000105  -0.000074
    10  O   -0.000000   0.000000  -0.000000   0.000000  -0.000000   0.000000
    11  O    0.000000   0.000000  -0.000000  -0.000000  -0.000000  -0.000000
    12  O   -0.000000  -0.000019   0.000002  -0.000012   0.000020  -0.000000
    13  O    0.218511  -0.006581  -0.004645   0.000000   0.000766   0.000001
    14  O   -0.009033   0.000994   0.205603  -0.000004   0.015211   0.000012
    15  O    0.007303   0.224353   0.000183  -0.000001  -0.001281   0.000001
    16  O   -0.000293   0.000000   0.000342   0.000000  -0.000004   0.000123
    17  O    0.000580  -0.000025   0.016932   0.000002  -0.000544  -0.000655
    18  O    0.014883   0.000004  -0.000911   0.000000  -0.000004  -0.000012
    19  O   -0.000031   0.000000  -0.000265   0.004184  -0.008077   0.221334
    20  O    0.000000  -0.000000   0.000227   0.228630   0.008207  -0.001974
    21  O   -0.000008   0.000052  -0.004739  -0.001209   0.209010  -0.007410
    22  H    0.000000  -0.000000  -0.000000  -0.000000   0.000000   0.000000
    23  H    0.000000  -0.000000   0.000000   0.000000   0.000000  -0.000000
    24  H    0.000000  -0.000000   0.000000  -0.000000  -0.000000  -0.000000
    25  H    0.301451  -0.000028   0.000014  -0.000000   0.000001   0.000000
    26  H   -0.000028   0.369711  -0.000036   0.000000   0.000017  -0.000000
    27  H    0.000014  -0.000036   0.285033  -0.000000  -0.001047   0.000005
    28  H   -0.000000   0.000000  -0.000000   0.350541  -0.000023  -0.000003
    29  H    0.000001   0.000017  -0.001047  -0.000023   0.285503   0.000165
    30  H    0.000000  -0.000000   0.000005  -0.000003   0.000165   0.335522
    31  H   -0.000132   0.000000   0.000014   0.000000   0.000000  -0.000000
    32  H   -0.000001  -0.000000  -0.000000  -0.000000  -0.000000  -0.000000
    33  H    0.000004   0.000000  -0.002431  -0.000002   0.000123  -0.000963
              31         32         33
     1  Zr   0.005404   0.003526  -0.025220
     2  O    0.000303  -0.000030   0.001001
     3  O   -0.000021   0.000037  -0.010988
     4  O   -0.019411   0.011859  -0.008906
     5  O   -0.000011   0.000017  -0.000041
     6  Si   0.063388   0.017341   0.058606
     7  Si   0.000084  -0.000644   0.022801
     8  Si  -0.003564   0.000230   0.000835
     9  Si  -0.000072  -0.000088   0.000326
    10  O   -0.000000  -0.000000  -0.000000
    11  O   -0.000000   0.000000  -0.000000
    12  O    0.000000  -0.000000   0.000001
    13  O    0.002217  -0.000007   0.000245
    14  O    0.000084  -0.000007   0.002359
    15  O   -0.000018   0.000000  -0.000056
    16  O    0.005080   0.236617   0.000415
    17  O   -0.001442  -0.003470   0.231891
    18  O    0.214064   0.003990   0.002205
    19  O    0.000002   0.000080   0.013146
    20  O   -0.000000   0.000000   0.000021
    21  O   -0.000000   0.000001   0.001236
    22  H   -0.000000   0.000000  -0.000000
    23  H    0.000000  -0.000000  -0.000000
    24  H    0.000000  -0.000000   0.000000
    25  H   -0.000132  -0.000001   0.000004
    26  H    0.000000  -0.000000   0.000000
    27  H    0.000014  -0.000000  -0.002431
    28  H    0.000000  -0.000000  -0.000002
    29  H    0.000000  -0.000000   0.000123
    30  H   -0.000000  -0.000000  -0.000963
    31  H    0.328034  -0.000014  -0.000037
    32  H   -0.000014   0.349026   0.000150
    33  H   -0.000037   0.000150   0.270203
 Mulliken charges:
               1
     1  Zr   0.046457
     2  O   -0.669639
     3  O   -0.458857
     4  O   -0.642635
     5  O   -0.561165
     6  Si   2.251141
     7  Si   1.770204
     8  Si   2.085529
     9  Si   1.898431
    10  O   -0.894041
    11  O   -0.750926
    12  O   -0.860673
    13  O   -0.824206
    14  O   -0.908599
    15  O   -0.868117
    16  O   -0.732808
    17  O   -0.965291
    18  O   -1.091842
    19  O   -0.989349
    20  O   -0.807065
    21  O   -0.836949
    22  H    0.397873
    23  H    0.373128
    24  H    0.364432
    25  H    0.415330
    26  H    0.366205
    27  H    0.430811
    28  H    0.375877
    29  H    0.446198
    30  H    0.410036
    31  H    0.406048
    32  H    0.381387
    33  H    0.443076
 Sum of Mulliken charges =  -0.00000
 Mulliken charges with hydrogens summed into heavy atoms:
               1
     1  Zr   0.046457
     2  O   -0.669639
     3  O   -0.458857
     4  O   -0.642635
     5  O   -0.561165
     6  Si   2.251141
     7  Si   1.770204
     8  Si   2.085529
     9  Si   1.898431
    10  O   -0.520913
    11  O   -0.386494
    12  O   -0.462800
    13  O   -0.408876
    14  O   -0.477788
    15  O   -0.501912
    16  O   -0.351421
    17  O   -0.522215
    18  O   -0.685794
    19  O   -0.579312
    20  O   -0.431189
    21  O   -0.390751
 Electronic spatial extent (au):  <R**2>=           9340.3920
 Charge=             -0.0000 electrons
 Dipole moment (field-independent basis, Debye):
    X=              3.0592    Y=             -1.3151    Z=             -3.0605  Tot=              4.5227
 Quadrupole moment (field-independent basis, Debye-Ang):
   XX=           -164.5469   YY=           -150.2538   ZZ=           -160.1560
   XY=             -3.7110   XZ=             14.2325   YZ=              1.9799
 Traceless Quadrupole moment (field-independent basis, Debye-Ang):
   XX=             -6.2280   YY=              8.0651   ZZ=             -1.8371
   XY=             -3.7110   XZ=             14.2325   YZ=              1.9799
 Octapole moment (field-independent basis, Debye-Ang**2):
  XXX=             83.6409  YYY=             -7.0358  ZZZ=            -56.3292  XYY=             -5.4447
  XXY=             12.8039  XXZ=            -19.2188  XZZ=             59.2199  YZZ=            -28.5810
  YYZ=              1.8041  XYZ=              3.0566
 Hexadecapole moment (field-independent basis, Debye-Ang**3):
 XXXX=          -5805.0842 YYYY=          -2699.0086 ZZZZ=          -2295.8136 XXXY=             56.0723
 XXXZ=            -16.1381 YYYX=            -49.6937 YYYZ=            102.4385 ZZZX=             67.3115
 ZZZY=            -90.0939 XXYY=          -1338.9557 XXZZ=          -1392.9733 YYZZ=           -870.5767
 XXYZ=             74.8378 YYXZ=            215.3386 ZZXY=            -16.1567
 N-N= 2.871446332012D+03 E-N=-1.145562113245D+04  KE= 2.373184404850D+03
 PrsmSu:  requested number of processors reduced to:   2 ShMem   1 Linda.
 PrsmSu:  requested number of processors reduced to:  10 ShMem   1 Linda.
   1 Symmetry operations used in ECPInt.
 ECPInt:  NShTT=   13203 NPrTT=   78401 LenC2=   11619 LenP2D=   45141.
 LDataN:  DoStor=T MaxTD1= 9 Len=  602
 Number of processors reduced to  14 by ecpmxn.
 Calling FoFJK, ICntrl=      2127 FMM=F ISym2X=0 I1Cent= 0 IOpClX= 0 NMat=1 NMatS=1 NMatT=0.
 CoulSu:  requested number of processors reduced to:  10 ShMem   1 Linda.
 Defaulting to unpruned grid for atomic number  40.
 Defaulting to unpruned grid for atomic number  40.
 Defaulting to unpruned grid for atomic number  40.
 Defaulting to unpruned grid for atomic number  40.
 Defaulting to unpruned grid for atomic number  40.
 Defaulting to unpruned grid for atomic number  40.
 Defaulting to unpruned grid for atomic number  40.
 Defaulting to unpruned grid for atomic number  40.
 Defaulting to unpruned grid for atomic number  40.
 Defaulting to unpruned grid for atomic number  40.
 Defaulting to unpruned grid for atomic number  40.
 Defaulting to unpruned grid for atomic number  40.
 Defaulting to unpruned grid for atomic number  40.
 Defaulting to unpruned grid for atomic number  40.
 Defaulting to unpruned grid for atomic number  40.
 Defaulting to unpruned grid for atomic number  40.
 ***** Axes restored to original set *****
 -------------------------------------------------------------------
 Center     Atomic                   Forces (Hartrees/Bohr)
 Number     Number              X              Y              Z
 -------------------------------------------------------------------
      1       40          -0.008872654    0.001264784    0.000967340
      2        8          -0.000310175   -0.000482900    0.000237108
      3        8          -0.000446990   -0.000056479   -0.000698317
      4        8           0.000003560   -0.000117352   -0.000127125
      5        8           0.003233404    0.002224417    0.001085698
      6       14           0.000327201    0.000030600    0.000291205
      7       14           0.000637575   -0.000975279    0.000100756
      8       14           0.000803665    0.000150355   -0.000521527
      9       14           0.008787244   -0.004157329   -0.003277591
     10        8          -0.000462222    0.000430876    0.000937032
     11        8          -0.000459391    0.000917676    0.000572935
     12        8          -0.001513965   -0.000101284    0.000332162
     13        8          -0.000218105   -0.000098931    0.000085136
     14        8          -0.000201983    0.000058284    0.000063855
     15        8          -0.000124302   -0.000027442    0.000250975
     16        8          -0.000081970   -0.000011080   -0.000111062
     17        8          -0.000073295    0.000002056   -0.000071332
     18        8          -0.000089456   -0.000009130   -0.000053719
     19        8          -0.000148796    0.000161010   -0.000094351
     20        8           0.000048819    0.000334811    0.000000541
     21        8          -0.000125421    0.000204550    0.000021006
     22        1          -0.000791587    0.000706900    0.000315116
     23        1          -0.000040349   -0.000018823   -0.000052305
     24        1          -0.000075528   -0.000239702   -0.000203697
     25        1           0.000037189   -0.000003349    0.000023683
     26        1           0.000000983    0.000036092   -0.000104230
     27        1           0.000031439   -0.000007455    0.000018355
     28        1          -0.000069775   -0.000102447   -0.000044087
     29        1           0.000075567   -0.000066405   -0.000039837
     30        1          -0.000021044   -0.000024024    0.000001889
     31        1           0.000038705    0.000017536    0.000011458
     32        1           0.000028815   -0.000005557    0.000030687
     33        1           0.000072841   -0.000034978    0.000052241
 -------------------------------------------------------------------
 Cartesian Forces:  Max     0.008872654 RMS     0.001468928

 GradGradGradGradGradGradGradGradGradGradGradGradGradGradGradGradGradGrad
 Berny optimization.
 FormGI is forming the generalized inverse of G from B-inverse, IUseBI=4.
 Internal  Forces:  Max     0.008551238 RMS     0.001157108
 Search for a local minimum.
 Step number   1 out of a maximum of  148
 All quantities printed in internal units (Hartrees-Bohrs-Radians)
 Mixed Optimization -- En-DIIS/RFO-DIIS
 Second derivative matrix not updated -- first step.
 ITU=  0
     Eigenvalues ---    0.00230   0.00230   0.00230   0.00230   0.03239
     Eigenvalues ---    0.03482   0.03500   0.03541   0.03581   0.03661
     Eigenvalues ---    0.03665   0.03674   0.03688   0.03735   0.03789
     Eigenvalues ---    0.03802   0.03811   0.03828   0.03857   0.03858
     Eigenvalues ---    0.08414   0.09469   0.11097   0.11247   0.11629
     Eigenvalues ---    0.11809   0.11979   0.12095   0.12205   0.12217
     Eigenvalues ---    0.12601   0.12707   0.12970   0.13105   0.13263
     Eigenvalues ---    0.16000   0.16000   0.16000   0.16000   0.16000
     Eigenvalues ---    0.16000   0.16000   0.16000   0.16000   0.16000
     Eigenvalues ---    0.16000   0.16000   0.19184   0.19894   0.19953
     Eigenvalues ---    0.20035   0.20159   0.20200   0.20253   0.20422
     Eigenvalues ---    0.20563   0.20992   0.21009   0.21136   0.21189
     Eigenvalues ---    0.21280   0.25000   0.25000   0.25000   0.37992
     Eigenvalues ---    0.40480   0.40678   0.41116   0.41560   0.42453
     Eigenvalues ---    0.42502   0.42606   0.42768   0.43316   0.43953
     Eigenvalues ---    0.44102   0.44216   0.44422   0.44766   0.44782
     Eigenvalues ---    0.50680   0.51458   0.52211   0.52570   0.54329
     Eigenvalues ---    0.54614   0.54649   0.54671   0.54696   0.54715
     Eigenvalues ---    0.54739   0.548931000.000001000.000001000.00000
     Eigenvalues --- 1000.000001000.000001000.000001000.000001000.00000
     Eigenvalues --- 1000.000001000.000001000.000001000.000001000.00000
     Eigenvalues --- 1000.000001000.000001000.000001000.000001000.00000
     Eigenvalues --- 1000.000001000.000001000.000001000.000001000.00000
     Eigenvalues --- 1000.000001000.000001000.000001000.000001000.00000
     Eigenvalues --- 1000.000001000.000001000.000001000.000001000.00000
     Eigenvalues --- 1000.000001000.000001000.000001000.000001000.00000
     Eigenvalues --- 1000.000001000.000001000.000001000.000001000.00000
     Eigenvalues --- 1000.000001000.000001000.00000
 RFO step:  Lambda=-1.09216662D-03 EMin= 2.30000000D-03
 Linear search not attempted -- first point.
 Iteration  1 RMS(Cart)=  0.14222983 RMS(Int)=  0.00715167
 Iteration  2 RMS(Cart)=  0.01574534 RMS(Int)=  0.00005418
 Iteration  3 RMS(Cart)=  0.00016465 RMS(Int)=  0.00001918
 Iteration  4 RMS(Cart)=  0.00000002 RMS(Int)=  0.00001918
 Iteration  1 RMS(Cart)=  0.00000000 RMS(Int)=  0.00000000
 Variable       Old X    -DE/DX   Delta X   Delta X   Delta X     New X
                                 (Linear)    (Quad)   (Total)
    R1        3.67636   0.00018   0.00000   0.00084   0.00084   3.67721
    R2        3.69031  -0.00048   0.00000  -0.00233  -0.00233   3.68798
    R3        3.73798  -0.00008   0.00000  -0.00042  -0.00042   3.73756
    R4        3.71087   0.00855   0.00000   0.04262   0.04262   3.75349
    R5        3.13764  -0.00038   0.00000  -0.00092  -0.00092   3.13672
    R6        3.09653  -0.00061   0.00000  -0.00138  -0.00138   3.09515
    R7        3.10211  -0.00024   0.00000  -0.00055  -0.00055   3.10156
    R8        3.09249   0.00271   0.00000   0.00604   0.00604   3.09853
    R9        3.11657   0.00009   0.00000   0.00021   0.00021   3.11678
   R10        3.11988  -0.00003   0.00000  -0.00008  -0.00008   3.11980
   R11        3.14342  -0.00001   0.00000  -0.00003  -0.00003   3.14339
   R12        3.18077   0.00014   0.00000   0.00038   0.00038   3.18115
   R13        3.10982   0.00022   0.00000   0.00050   0.00050   3.11032
   R14        3.09230   0.00001   0.00000   0.00001   0.00001   3.09231
   R15        3.10032   0.00014   0.00000   0.00032   0.00032   3.10064
   R16        3.14606   0.00011   0.00000   0.00027   0.00027   3.14633
   R17        3.09896   0.00014   0.00000   0.00031   0.00031   3.09927
   R18        3.11859  -0.00054   0.00000  -0.00125  -0.00125   3.11733
   R19        3.13187  -0.00074   0.00000  -0.00178  -0.00178   3.13009
   R20        3.12051   0.00160   0.00000   0.00376   0.00376   3.12427
   R21        1.82145   0.00000   0.00000   0.00001   0.00001   1.82146
   R22        1.82065   0.00012   0.00000   0.00022   0.00022   1.82087
   R23        1.82103   0.00015   0.00000   0.00028   0.00028   1.82131
   R24        1.84058  -0.00002   0.00000  -0.00005  -0.00005   1.84053
   R25        1.84398  -0.00003   0.00000  -0.00005  -0.00005   1.84393
   R26        1.81928  -0.00007   0.00000  -0.00014  -0.00014   1.81914
   R27        1.82086   0.00000   0.00000   0.00000   0.00000   1.82087
   R28        1.85885  -0.00003   0.00000  -0.00005  -0.00005   1.85880
   R29        1.82126  -0.00002   0.00000  -0.00004  -0.00004   1.82121
   R30        1.82433  -0.00001   0.00000  -0.00001  -0.00001   1.82432
   R31        1.82176  -0.00011   0.00000  -0.00020  -0.00020   1.82157
   R32        1.85122   0.00002   0.00000   0.00004   0.00004   1.85125
    A1        1.85569   0.00056   0.00000   0.00611   0.00610   1.86179
    A2        1.80097   0.00003   0.00000  -0.00146  -0.00146   1.79951
    A3        1.97659  -0.00015   0.00000   0.00066   0.00064   1.97722
    A4        1.83906  -0.00041   0.00000  -0.00358  -0.00357   1.83549
    A5        2.01332   0.00051   0.00000   0.00393   0.00390   2.01723
    A6        1.96025  -0.00056   0.00000  -0.00604  -0.00604   1.95422
    A7        2.45892  -0.00003   0.00000  -0.00011  -0.00011   2.45881
    A8        2.59369  -0.00016   0.00000  -0.00063  -0.00063   2.59306
    A9        2.34042  -0.00010   0.00000  -0.00040  -0.00040   2.34002
   A10        2.30383   0.00745   0.00000   0.00000   0.00000   2.30383
   A11        1.92384  -0.00004   0.00000  -0.00026  -0.00026   1.92359
   A12        1.91272  -0.00003   0.00000  -0.00015  -0.00015   1.91257
   A13        1.94584   0.00011   0.00000   0.00071   0.00071   1.94655
   A14        2.00429   0.00001   0.00000  -0.00008  -0.00008   2.00420
   A15        1.88341  -0.00004   0.00000  -0.00021  -0.00021   1.88320
   A16        1.79022  -0.00000   0.00000   0.00006   0.00006   1.79028
   A17        1.80104   0.00015   0.00000   0.00108   0.00108   1.80212
[...]
     9  Si  -1.045011   0.023647   0.025075   0.027596  -0.805602   0.092201
    10  O   -0.077998   0.000526  -0.003432  -0.000616   0.105799   0.001147
    11  O   -0.125665  -0.002380   0.002411   0.001402   0.265166  -0.000873
    12  O   -0.060941   0.010374   0.005636   0.002463   0.102132  -0.001187
    13  O    0.047792   0.278413   0.000606  -0.016925   0.000402   0.010609
    14  O   -0.125620   0.250820  -0.021240  -0.006071  -0.000988   0.030579
    15  O   -0.090999   0.258775   0.001051   0.002828   0.000034   0.005850
    16  O   -0.105165   0.005810  -0.000492   0.337359   0.002047  -0.433003
    17  O   -0.075643  -0.038492   0.008493   0.208188  -0.000686  -0.451564
    18  O   -0.060797  -0.023169   0.003091   0.236322  -0.000408  -0.493883
    19  O    0.017249   0.007459   0.286597   0.015919   0.002295  -0.007109
    20  O   -0.138806  -0.000882   0.143523  -0.000306   0.000888   0.012701
    21  O    0.069233   0.009932   0.151343   0.004464   0.001034  -0.022272
    22  H   -0.004231  -0.000057   0.000546   0.000000  -0.000756   0.000195
    23  H    0.002329  -0.000011   0.000021  -0.000013  -0.021263   0.000045
    24  H    0.000033  -0.000178   0.000015  -0.000003   0.000976   0.000066
    25  H    0.016272  -0.022684  -0.000097  -0.001193  -0.000028   0.000665
    26  H   -0.008711  -0.008426   0.000015  -0.000016  -0.000003  -0.000103
    27  H    0.009871  -0.021315   0.000896  -0.001185   0.000031   0.011484
    28  H    0.004257  -0.000014  -0.017051  -0.000014  -0.000006  -0.000354
    29  H    0.001667  -0.004447  -0.018857  -0.000153  -0.000018   0.000868
    30  H   -0.001479  -0.000005   0.000072  -0.000610  -0.000007  -0.001037
    31  H    0.001323   0.000221  -0.000023  -0.018943  -0.000019   0.066130
    32  H    0.004681  -0.000030   0.000039   0.012751   0.000016   0.014407
    33  H   -0.027020   0.000900  -0.010830  -0.008187  -0.000054   0.059656
               7          8          9         10         11         12
     1  Zr  -0.678268  -0.525898  -1.045011  -0.077998  -0.125665  -0.060941
     2  O   -0.003470  -0.728518   0.023647   0.000526  -0.002380   0.010374
     3  O   -0.891507  -0.030835   0.025075  -0.003432   0.002411   0.005636
     4  O   -0.037271   0.072004   0.027596  -0.000616   0.001402   0.002463
     5  O   -0.032454  -0.010502  -0.805602   0.105799   0.265166   0.102132
     6  Si   0.140835   0.007338   0.092201   0.001147  -0.000873  -0.001187
     7  Si  13.852729   0.155596   0.053145   0.002077  -0.001850   0.001561
     8  Si   0.155596  13.653826   0.046720  -0.001558   0.003851  -0.011639
     9  Si   0.053145   0.046720  13.801882   0.037532  -0.083633  -0.252952
    10  O    0.002077  -0.001558   0.037532   8.600945  -0.098988   0.073341
    11  O   -0.001850   0.003851  -0.083633  -0.098988   8.616647  -0.024460
    12  O    0.001561  -0.011639  -0.252952   0.073341  -0.024460   8.814515
    13  O   -0.001835  -0.181185  -0.005663  -0.000005   0.000045  -0.000334
    14  O    0.042828  -0.445264   0.004127   0.000003   0.000008   0.000610
    15  O    0.001420  -0.400886   0.002114   0.000014  -0.000084   0.001673
    16  O    0.004984  -0.012474  -0.002316   0.000006  -0.000007  -0.000003
    17  O   -0.003864   0.099077   0.004166   0.000006   0.000009  -0.000054
    18  O   -0.004696   0.084217   0.005136   0.000007  -0.000003   0.000029
    19  O   -0.476197  -0.016883   0.000508  -0.000015   0.000004  -0.000340
    20  O   -0.086985   0.008321   0.006535   0.000130  -0.000002   0.000002
    21  O    0.006393  -0.045750  -0.005266  -0.000015   0.000008  -0.000655
    22  H    0.000775   0.000736   0.043208  -0.001408  -0.001974   0.228872
    23  H   -0.000044   0.000041   0.057315   0.232804  -0.002211   0.005445
    24  H    0.000045   0.000089   0.031625   0.008933   0.228971  -0.005861
    25  H   -0.000204   0.059283  -0.000261  -0.000000   0.000000  -0.000001
    26  H    0.000524   0.060662  -0.001069  -0.000000   0.000002  -0.000055
    27  H   -0.000900   0.072945  -0.000032   0.000000  -0.000000   0.000005
    28  H    0.055747   0.000102  -0.000232  -0.000000  -0.000000  -0.000013
    29  H    0.045291   0.020533  -0.000002   0.000000   0.000000   0.000015
    30  H    0.046751   0.000172  -0.000033  -0.000000   0.000000   0.000000
    31  H    0.000112  -0.002731  -0.000095   0.000000  -0.000000   0.000000
    32  H   -0.000683   0.000266  -0.000047  -0.000000   0.000000  -0.000000
    33  H    0.023279   0.000514   0.000403  -0.000000  -0.000000   0.000003
              13         14         15         16         17         18
     1  Zr   0.047792  -0.125620  -0.090999  -0.105165  -0.075643  -0.060797
     2  O    0.278413   0.250820   0.258775   0.005810  -0.038492  -0.023169
     3  O    0.000606  -0.021240   0.001051  -0.000492   0.008493   0.003091
     4  O   -0.016925  -0.006071   0.002828   0.337359   0.208188   0.236322
     5  O    0.000402  -0.000988   0.000034   0.002047  -0.000686  -0.000408
     6  Si   0.010609   0.030579   0.005850  -0.433003  -0.451564  -0.493883
     7  Si  -0.001835   0.042828   0.001420   0.004984  -0.003864  -0.004696
     8  Si  -0.181185  -0.445264  -0.400886  -0.012474   0.099077   0.084217
     9  Si  -0.005663   0.004127   0.002114  -0.002316   0.004166   0.005136
    10  O   -0.000005   0.000003   0.000014   0.000006   0.000006   0.000007
    11  O    0.000045   0.000008  -0.000084  -0.000007   0.000009  -0.000003
    12  O   -0.000334   0.000610   0.001673  -0.000003  -0.000054   0.000029
    13  O    8.647231   0.024623  -0.121917   0.004144  -0.029658  -0.045627
    14  O    0.024623   8.811271   0.155280   0.002389  -0.029830  -0.023078
    15  O   -0.121917   0.155280   8.820319  -0.000178   0.003972   0.001588
    16  O    0.004144   0.002389  -0.000178   8.888254  -0.104182  -0.096481
    17  O   -0.029658  -0.029830   0.003972  -0.104182   8.930343   0.232167
    18  O   -0.045627  -0.023078   0.001588  -0.096481   0.232167   9.039276
    19  O    0.000209  -0.001717   0.000327  -0.000573  -0.030070  -0.000084
    20  O    0.000000  -0.001173   0.000019   0.000031  -0.001009   0.000024
    21  O   -0.000382   0.023226   0.000269  -0.000139  -0.006303   0.000376
    22  H   -0.000000   0.000002   0.000003   0.000000   0.000000  -0.000000
    23  H    0.000000  -0.000000  -0.000000  -0.000000   0.000000  -0.000000
    24  H   -0.000000   0.000000   0.000001   0.000000  -0.000000  -0.000000
    25  H    0.218076  -0.009517   0.007069  -0.000265   0.000650   0.015404
    26  H   -0.006125   0.000255   0.226062   0.000000  -0.000024   0.000005
    27  H   -0.004500   0.208335   0.000462   0.000330   0.017711  -0.000828
    28  H    0.000000  -0.000004  -0.000001   0.000000   0.000003   0.000000
    29  H    0.000797   0.014870  -0.001179  -0.000005  -0.000525  -0.000002
    30  H    0.000001   0.000050   0.000001   0.000095  -0.000570  -0.000011
    31  H    0.002315   0.000085  -0.000020   0.004568  -0.001341   0.214668
    32  H   -0.000007  -0.000006   0.000000   0.237278  -0.003184   0.004017
    33  H    0.000231   0.002464  -0.000051   0.000689   0.231699   0.002167
              19         20         21         22         23         24
     1  Zr   0.017249  -0.138806   0.069233  -0.004231   0.002329   0.000033
     2  O    0.007459  -0.000882   0.009932  -0.000057  -0.000011  -0.000178
     3  O    0.286597   0.143523   0.151343   0.000546   0.000021   0.000015
     4  O    0.015919  -0.000306   0.004464   0.000000  -0.000013  -0.000003
     5  O    0.002295   0.000888   0.001034  -0.000756  -0.021263   0.000976
     6  Si  -0.007109   0.012701  -0.022272   0.000195   0.000045   0.000066
     7  Si  -0.476197  -0.086985   0.006393   0.000775  -0.000044   0.000045
     8  Si  -0.016883   0.008321  -0.045750   0.000736   0.000041   0.000089
     9  Si   0.000508   0.006535  -0.005266   0.043208   0.057315   0.031625
    10  O   -0.000015   0.000130  -0.000015  -0.001408   0.232804   0.008933
    11  O    0.000004  -0.000002   0.000008  -0.001974  -0.002211   0.228971
    12  O   -0.000340   0.000002  -0.000655   0.228872   0.005445  -0.005861
    13  O    0.000209   0.000000  -0.000382  -0.000000   0.000000  -0.000000
    14  O   -0.001717  -0.001173   0.023226   0.000002  -0.000000   0.000000
    15  O    0.000327   0.000019   0.000269   0.000003  -0.000000   0.000001
    16  O   -0.000573   0.000031  -0.000139   0.000000  -0.000000   0.000000
    17  O   -0.030070  -0.001009  -0.006303   0.000000   0.000000  -0.000000
    18  O   -0.000084   0.000024   0.000376  -0.000000  -0.000000  -0.000000
    19  O    8.909300   0.028545   0.025420  -0.000000   0.000000  -0.000000
    20  O    0.028545   8.653123  -0.055763   0.000002  -0.000000  -0.000000
    21  O    0.025420  -0.055763   8.487109  -0.000015  -0.000000   0.000000
    22  H   -0.000000   0.000002  -0.000015   0.331513  -0.000028   0.000037
    23  H    0.000000  -0.000000  -0.000000  -0.000028   0.351021   0.000027
    24  H   -0.000000  -0.000000   0.000000   0.000037   0.000027   0.367384
    25  H   -0.000030   0.000000  -0.000006   0.000000   0.000000   0.000000
    26  H    0.000000  -0.000000   0.000060  -0.000000   0.000000  -0.000000
    27  H   -0.000213   0.000233  -0.004650  -0.000000   0.000000   0.000000
    28  H    0.004043   0.227814  -0.001085   0.000000   0.000000  -0.000000
    29  H   -0.008112   0.008218   0.209293  -0.000000   0.000000  -0.000000
    30  H    0.220598  -0.001481  -0.007682   0.000000  -0.000000  -0.000000
    31  H    0.000002  -0.000000  -0.000000  -0.000000   0.000000   0.000000
    32  H    0.000085   0.000000   0.000001   0.000000  -0.000000  -0.000000
    33  H    0.012998   0.000058   0.001303  -0.000000  -0.000000   0.000000
              25         26         27         28         29         30
     1  Zr   0.016272  -0.008711   0.009871   0.004257   0.001667  -0.001479
     2  O   -0.022684  -0.008426  -0.021315  -0.000014  -0.004447  -0.000005
     3  O   -0.000097   0.000015   0.000896  -0.017051  -0.018857   0.000072
     4  O   -0.001193  -0.000016  -0.001185  -0.000014  -0.000153  -0.000610
     5  O   -0.000028  -0.000003   0.000031  -0.000006  -0.000018  -0.000007
     6  Si   0.000665  -0.000103   0.011484  -0.000354   0.000868  -0.001037
     7  Si  -0.000204   0.000524  -0.000900   0.055747   0.045291   0.046751
     8  Si   0.059283   0.060662   0.072945   0.000102   0.020533   0.000172
     9  Si  -0.000261  -0.001069  -0.000032  -0.000232  -0.000002  -0.000033
    10  O   -0.000000  -0.000000   0.000000  -0.000000   0.000000  -0.000000
    11  O    0.000000   0.000002  -0.000000  -0.000000   0.000000   0.000000
    12  O   -0.000001  -0.000055   0.000005  -0.000013   0.000015   0.000000
    13  O    0.218076  -0.006125  -0.004500   0.000000   0.000797   0.000001
    14  O   -0.009517   0.000255   0.208335  -0.000004   0.014870   0.000050
    15  O    0.007069   0.226062   0.000462  -0.000001  -0.001179   0.000001
    16  O   -0.000265   0.000000   0.000330   0.000000  -0.000005   0.000095
    17  O    0.000650  -0.000024   0.017711   0.000003  -0.000525  -0.000570
    18  O    0.015404   0.000005  -0.000828   0.000000  -0.000002  -0.000011
    19  O   -0.000030   0.000000  -0.000213   0.004043  -0.008112   0.220598
    20  O    0.000000  -0.000000   0.000233   0.227814   0.008218  -0.001481
    21  O   -0.000006   0.000060  -0.004650  -0.001085   0.209293  -0.007682
    22  H    0.000000  -0.000000  -0.000000   0.000000  -0.000000   0.000000
    23  H    0.000000   0.000000   0.000000   0.000000   0.000000  -0.000000
    24  H    0.000000  -0.000000   0.000000  -0.000000  -0.000000  -0.000000
    25  H    0.302158  -0.000025   0.000017   0.000000   0.000000   0.000000
    26  H   -0.000025   0.370362  -0.000032   0.000000   0.000020  -0.000000
    27  H    0.000017  -0.000032   0.284437  -0.000000  -0.001046   0.000001
    28  H    0.000000   0.000000  -0.000000   0.350605  -0.000019  -0.000004
    29  H    0.000000   0.000020  -0.001046  -0.000019   0.285578   0.000174
    30  H    0.000000  -0.000000   0.000001  -0.000004   0.000174   0.335886
    31  H   -0.000214   0.000000   0.000014   0.000000   0.000000  -0.000000
    32  H   -0.000001  -0.000000  -0.000000   0.000000  -0.000000  -0.000000
    33  H    0.000005   0.000000  -0.002466  -0.000002   0.000117  -0.000999
              31         32         33
     1  Zr   0.001323   0.004681  -0.027020
     2  O    0.000221  -0.000030   0.000900
     3  O   -0.000023   0.000039  -0.010830
     4  O   -0.018943   0.012751  -0.008187
     5  O   -0.000019   0.000016  -0.000054
     6  Si   0.066130   0.014407   0.059656
     7  Si   0.000112  -0.000683   0.023279
     8  Si  -0.002731   0.000266   0.000514
     9  Si  -0.000095  -0.000047   0.000403
    10  O    0.000000  -0.000000  -0.000000
    11  O   -0.000000   0.000000  -0.000000
    12  O    0.000000  -0.000000   0.000003
    13  O    0.002315  -0.000007   0.000231
    14  O    0.000085  -0.000006   0.002464
    15  O   -0.000020   0.000000  -0.000051
    16  O    0.004568   0.237278   0.000689
    17  O   -0.001341  -0.003184   0.231699
    18  O    0.214668   0.004017   0.002167
    19  O    0.000002   0.000085   0.012998
    20  O   -0.000000   0.000000   0.000058
    21  O   -0.000000   0.000001   0.001303
    22  H   -0.000000   0.000000  -0.000000
    23  H    0.000000  -0.000000  -0.000000
    24  H    0.000000  -0.000000   0.000000
    25  H   -0.000214  -0.000001   0.000005
    26  H    0.000000  -0.000000   0.000000
    27  H    0.000014  -0.000000  -0.002466
    28  H    0.000000   0.000000  -0.000002
    29  H    0.000000  -0.000000   0.000117
    30  H   -0.000000  -0.000000  -0.000999
    31  H    0.329077  -0.000013  -0.000036
    32  H   -0.000013   0.348764   0.000144
    33  H   -0.000036   0.000144   0.270624
 Mulliken charges:
               1
     1  Zr   0.131258
     2  O   -0.689004
     3  O   -0.467737
     4  O   -0.641918
     5  O   -0.619083
     6  Si   2.235582
     7  Si   1.786137
     8  Si   2.067832
     9  Si   1.939280
    10  O   -0.879234
    11  O   -0.776394
    12  O   -0.888184
    13  O   -0.821331
    14  O   -0.907316
    15  O   -0.873814
    16  O   -0.732699
    17  O   -0.959485
    18  O   -1.089426
    19  O   -0.990216
    20  O   -0.803759
    21  O   -0.839481
    22  H    0.402582
    23  H    0.374521
    24  H    0.367840
    25  H    0.414927
    26  H    0.366623
    27  H    0.430395
    28  H    0.376230
    29  H    0.446923
    30  H    0.410117
    31  H    0.404919
    32  H    0.381523
    33  H    0.442389
 Sum of Mulliken charges =  -0.00000
 Mulliken charges with hydrogens summed into heavy atoms:
               1
     1  Zr   0.131258
     2  O   -0.689004
     3  O   -0.467737
     4  O   -0.641918
     5  O   -0.619083
     6  Si   2.235582
     7  Si   1.786137
     8  Si   2.067832
     9  Si   1.939280
    10  O   -0.504713
    11  O   -0.408554
    12  O   -0.485601
    13  O   -0.406403
    14  O   -0.476920
    15  O   -0.507191
    16  O   -0.351176
    17  O   -0.517095
    18  O   -0.684507
    19  O   -0.580099
    20  O   -0.427529
    21  O   -0.392557
 Electronic spatial extent (au):  <R**2>=           9356.0245
 Charge=             -0.0000 electrons
 Dipole moment (field-independent basis, Debye):
    X=              2.9586    Y=             -0.9773    Z=             -3.2699  Tot=              4.5167
 Quadrupole moment (field-independent basis, Debye-Ang):
   XX=           -162.9541   YY=           -151.4502   ZZ=           -161.8943
   XY=             -5.8362   XZ=             13.4106   YZ=              5.0493
 Traceless Quadrupole moment (field-independent basis, Debye-Ang):
   XX=             -4.1879   YY=              7.3160   ZZ=             -3.1281
   XY=             -5.8362   XZ=             13.4106   YZ=              5.0493
 Octapole moment (field-independent basis, Debye-Ang**2):
  XXX=             77.9818  YYY=             -9.9641  ZZZ=            -62.9339  XYY=             -7.1220
  XXY=             22.9482  XXZ=            -24.4083  XZZ=             61.5338  YZZ=            -15.9029
  YYZ=             -2.6149  XYZ=              1.7203
 Hexadecapole moment (field-independent basis, Debye-Ang**3):
 XXXX=          -5709.2155 YYYY=          -2777.6044 ZZZZ=          -2305.2930 XXXY=             18.4096
 XXXZ=           -108.6439 YYYX=            -61.5013 YYYZ=            177.6265 ZZZX=            124.7653
 ZZZY=            -61.7947 XXYY=          -1366.2535 XXZZ=          -1365.4464 YYZZ=           -909.0725
 XXYZ=             52.1500 YYXZ=            186.7031 ZZXY=            -22.6557
 N-N= 2.870359497006D+03 E-N=-1.145335887545D+04  KE= 2.373153504960D+03
 1\1\GINC-GRA1300\FOpt\RB3LYP\Gen\H12O16Si4Zr1\SARASHS\02-Aug-2020\0\\#
 n B3LYP/Gen Pseudo=cards EmpiricalDispersion=GD3 Opt=modredundant\\Tit
 le\\0,1\Zr,0.6583867281,-0.0679633897,-0.2434514179\O,-0.0967876034,-0
 .8429767012,1.3731419704\O,0.0999962947,1.8035762303,-0.2969047421\O,-
 0.3913670222,-0.9420411474,-1.6695607459\O,2.5945509195,-0.4126648416,
 -0.4823810942\Si,-1.9745440677,-1.327150463,-1.8697069547\Si,-1.104542
 7703,2.9070013132,-0.1855612108\Si,-1.5463473302,-1.0059347711,2.16437
 5794\Si,3.9139002501,0.1550209268,0.3043058609\O,4.8141905064,1.261271
 8425,-0.5204245776\O,4.9474467661,-1.0770330626,0.6908718638\O,3.22934
 29574,0.927350865,1.6032835206\O,-2.1700304439,-2.4920801414,1.8574474
 838\O,-2.5591860302,0.2118179384,1.6505263604\O,-1.3697866484,-0.75369
 8284,3.7754602161\O,-2.2914174013,-1.613890768,-3.4628113823\O,-2.9200
 088308,-0.1684835002,-1.1713234601\O,-2.3845763506,-2.6928796574,-1.01
 33364328\O,-2.15527198,2.4568853831,-1.4211814311\O,-0.6354090404,4.45
 14600631,-0.5097478861\O,-1.818302817,2.898690922,1.2873574906\H,3.744
 4431379,1.59418431,2.0702183496\H,5.5774729972,0.9207211773,-1.0004005
 991\H,4.5529450521,-1.9264475615,0.9175270027\H,-2.2689288012,-2.73556
 32644,0.9196485028\H,-0.6498580334,-1.2164947016,4.2162905708\H,-2.995
 0259963,0.0238345974,0.7979512779\H,-0.4960259366,5.0182340179,0.25747
 42672\H,-2.1083515045,2.0243065201,1.620891024\H,-2.7966889377,3.13073
 29567,-1.6789852563\H,-2.4572342438,-3.5088046905,-1.5211087045\H,-1.6
 176655822,-1.3346424687,-4.0925682032\H,-2.7184882373,0.7678603506,-1.
 3958574569\\Version=ES64L-G16RevB.01\State=1-A\HF=-2416.9456145\RMSD=8
 .848e-09\RMSF=4.064e-05\Dipole=1.3475219,-0.3529599,-1.1033466\Quadrup
 ole=-4.3582229,5.0839798,-0.7257569,-4.8791855,9.7167512,3.7106216\PG=
 C01 [X(H12O16Si4Zr1)]\\@


 EXPERIMENTALISTS THINK SILICON IS REALLY FUN TO USE
     ITS PLACE IN NOVEL COMPOUNDS IS CERTAIN TO AMUSE
 THEY SIT ALL DAY IN LABORATORIES MAKING ALL THIS SLUDGE
     "LOADED WITH THE SILICON THEY SAY", TO ME IT LOOKS LIKE FUDGE.
 FOR HAPPY THOUGH THEY BE WITH CRUD, I'D LIKE TO KNOW A LITTLE
      ABOUT THE PI BONDS ON THE EDGE AND SIGMAS IN THE MIDDLE.

 SO LETS DERIVE A WAVEFUNCTION.....6-31G*
     USE AN OPTIMAL GEOMETRY AND SEE WHERE ELECTRONS ARE.
 BUT WHAT OF CORRELATION?  ASKS THE WIRY LITTLE SKEPTIC.
     WE'LL THROW IN PERTURBATION AS AN ELECTRON ANTISEPTIC.
 AND WHEN THE PROGRAM GIVES US ANSWERS IN THEM WE CAN TRUST
     SINCE NOBODY CAN MAKE THE STUFF, WE HAVE NO CHOICE, WE MUST.

 SO THEORY GUYS HAVE GOT IT MADE, IN ROOMS FREE OF POLLUTION.
     INSTEAD OF PROBLEMS WITH THE REFLUX, THEY HAVE ONLY SOLUTIONS.
 AND WHEN THE FEDS ANNOUNCE THE LIST OF CARCINOGENIC TERRORS,
     THE THEORISTS SIT SAFELY AT THEIR TERMINALS FIXING ERRORS.
 IN OTHER WORDS, EXPERIMENTALISTS WILL LIKELY DIE OF CANCER
     FROM WORKING HARD YET FRUITLESSLY...TILL THEORY GIVES THE ANSWER.
          -- THOMAS A. HOLME, 1983
 Job cpu time:       1 days  6 hours 24 minutes 51.2 seconds.
 Elapsed time:       0 days  2 hours 16 minutes  6.5 seconds.
 File lengths (MBytes):  RWF=    167 Int=      0 D2E=      0 Chk=     21 Scr=      1
 Normal termination of Gaussian 16 at Sun Aug  2 09:16:52 2020.
