 Entering Gaussian System, Link 0=g16
 Initial command:
 /opt/software/gaussian/g16.b01/l1.exe "/localscratch/sarashs.36760142.0/Gau-190675.inp" -scrdir="/localscratch/sarashs.36760142.0/"
 Entering Link 1 = /opt/software/gaussian/g16.b01/l1.exe PID=    190676.
  
 Copyright (c) 1988-2017, Gaussian, Inc.  All Rights Reserved.
  
 This is part of the Gaussian(R) 16 program.  It is based on
 the Gaussian(R) 09 system (copyright 2009, Gaussian, Inc.),
 the Gaussian(R) 03 system (copyright 2003, Gaussian, Inc.),
 the Gaussian(R) 98 system (copyright 1998, Gaussian, Inc.),
 the Gaussian(R) 94 system (copyright 1995, Gaussian, Inc.),
 the Gaussian 92(TM) system (copyright 1992, Gaussian, Inc.),
 the Gaussian 90(TM) system (copyright 1990, Gaussian, Inc.),
 the Gaussian 88(TM) system (copyright 1988, Gaussian, Inc.),
 the Gaussian 86(TM) system (copyright 1986, Carnegie Mellon
 University), and the Gaussian 82(TM) system (copyright 1983,
 Carnegie Mellon University). Gaussian is a federally registered
 trademark of Gaussian, Inc.
  
 This software contains proprietary and confidential information,
 including trade secrets, belonging to Gaussian, Inc.
  
 This software is provided under written license and may be
 used, copied, transmitted, or stored only in accord with that
 written license.
  
 The following legend is applicable only to US Government
 contracts under FAR:
  
                    RESTRICTED RIGHTS LEGEND
  
 Use, reproduction and disclosure by the US Government is
 subject to restrictions as set forth in subparagraphs (a)
 and (c) of the Commercial Computer Software - Restricted
 Rights clause in FAR 52.227-19.
  
 Gaussian, Inc.
 340 Quinnipiac St., Bldg. 40, Wallingford CT 06492
  
  
 ---------------------------------------------------------------
 Warning -- This program may not be used in any manner that
 competes with the business of Gaussian, Inc. or will provide
 assistance to any competitor of Gaussian, Inc.  The licensee
 of this program is prohibited from giving any competitor of
 Gaussian, Inc. access to this program.  By using this program,
 the user acknowledges that Gaussian, Inc. is engaged in the
 business of creating and licensing software in the field of
 computational chemistry and represents and warrants to the
 licensee that it is not a competitor of Gaussian, Inc. and that
 it will not use this program in any manner prohibited above.
 ---------------------------------------------------------------
  

 Cite this work as:
 Gaussian 16, Revision B.01,
 M. J. Frisch, G. W. Trucks, H. B. Schlegel, G. E. Scuseria, 
 M. A. Robb, J. R. Cheeseman, G. Scalmani, V. Barone, 
 G. A. Petersson, H. Nakatsuji, X. Li, M. Caricato, A. V. Marenich, 
 J. Bloino, B. G. Janesko, R. Gomperts, B. Mennucci, H. P. Hratchian, 
 J. V. Ortiz, A. F. Izmaylov, J. L. Sonnenberg, D. Williams-Young, 
 F. Ding, F. Lipparini, F. Egidi, J. Goings, B. Peng, A. Petrone, 
 T. Henderson, D. Ranasinghe, V. G. Zakrzewski, J. Gao, N. Rega, 
 G. Zheng, W. Liang, M. Hada, M. Ehara, K. Toyota, R. Fukuda, 
 J. Hasegawa, M. Ishida, T. Nakajima, Y. Honda, O. Kitao, H. Nakai, 
 T. Vreven, K. Throssell, J. A. Montgomery, Jr., J. E. Peralta, 
 F. Ogliaro, M. J. Bearpark, J. J. Heyd, E. N. Brothers, K. N. Kudin, 
 V. N. Staroverov, T. A. Keith, R. Kobayashi, J. Normand, 
 K. Raghavachari, A. P. Rendell, J. C. Burant, S. S. Iyengar, 
 J. Tomasi, M. Cossi, J. M. Millam, M. Klene, C. Adamo, R. Cammi, 
 J. W. Ochterski, R. L. Martin, K. Morokuma, O. Farkas, 
 J. B. Foresman, and D. J. Fox, Gaussian, Inc., Wallingford CT, 2016.
 
 ******************************************
 Gaussian 16:  ES64L-G16RevB.01 20-Dec-2017
                 2-Aug-2020 
 ******************************************
 %NProcShared=16
 Will use up to   16 processors via shared memory.
 ------------------------------------------------------------------
 #n B3LYP/Gen Pseudo=cards EmpiricalDispersion=GD3 Opt=modredundant
 ------------------------------------------------------------------
 1/18=120,19=15,26=3,38=1/1,3;
 2/9=110,12=2,17=6,18=5,40=1/2;
 3/5=7,11=2,16=1,17=8,25=1,30=1,71=1,74=-5,124=31/1,2,3;
 4//1;
 5/5=2,38=5/2;
 6/7=2,8=2,9=2,10=2,28=1/1;
 7//1,2,3,16;
 1/18=20,19=15,26=3/3(2);
 2/9=110/2;
 99//99;
 2/9=110/2;
 3/5=7,6=1,11=2,16=1,17=8,25=1,30=1,71=1,74=-5,82=7,124=31/1,2,3;
 4/5=5,16=3,69=1/1;
 5/5=2,38=5/2;
 7//1,2,3,16;
 1/18=20,19=15,26=3/3(-5);
 2/9=110/2;
 6/7=2,8=2,9=2,10=2,19=2,28=1/1;
 99/9=1/99;
 -----
 Title
 -----
 Symbolic Z-matrix:
 Charge =  0 Multiplicity = 1
 Zr                    0.64646  -0.19013  -0.1519 
 O                    -0.19212  -0.93131   1.43939 
 O                     0.17263   1.70395  -0.1904 
 O                    -0.37772  -1.01692  -1.62844 
 O                     2.5678   -0.57883  -0.26812 
 Si                   -1.96924  -1.33216  -1.87829 
 Si                   -0.98958   2.85681  -0.11809 
 Si                   -1.67476  -1.05152   2.17706 
 Si                    4.13554  -0.21942   0.03362 
 O                     4.87908   0.62224  -1.17559 
 O                     5.01968  -1.61046   0.20685 
 O                     4.09686   0.73578   1.38006 
 O                    -2.33574  -2.51245   1.83004 
 O                    -2.6209    0.20928   1.64149 
 O                    -1.552    -0.82432   3.7965 
 O                    -2.25427  -1.59164  -3.48183 
 O                    -2.88371  -0.13912  -1.19557 
 O                    -2.46027  -2.68598  -1.04579 
 O                    -2.00825   2.45605  -1.3967 
 O                    -0.44623   4.38142  -0.41555 
 O                    -1.75835   2.86715   1.32642 
 H                     4.89884   1.22713   1.58986 
 H                     5.36693   0.09615  -1.81924 
 H                     4.62325  -2.32516   0.71702 
 H                    -2.40738  -2.74575   0.88712 
 H                    -0.93391  -1.38513   4.27638 
 H                    -3.02928   0.04705   0.77024 
 H                    -0.29029   4.93346   0.35924 
 H                    -2.09489   2.00321   1.64266 
 H                    -2.6086    3.15807  -1.6773 
 H                    -2.56602  -3.49143  -1.56436 
 H                    -1.55278  -1.33714  -4.09141 
 H                    -2.64046   0.78995  -1.40829 
 
 The following ModRedundant input section has been read:
 A       1       5       9 F                                                   
 

 GradGradGradGradGradGradGradGradGradGradGradGradGradGradGradGradGradGrad
 Berny optimization.
 Initialization pass.
                           ----------------------------
                           !    Initial Parameters    !
                           ! (Angstroms and Degrees)  !
 --------------------------                            --------------------------
 ! Name  Definition              Value          Derivative Info.                !
 --------------------------------------------------------------------------------
 ! R1    R(1,2)                  1.9454         estimate D2E/DX2                !
 ! R2    R(1,3)                  1.9528         estimate D2E/DX2                !
 ! R3    R(1,4)                  1.9781         estimate D2E/DX2                !
 ! R4    R(1,5)                  1.9637         estimate D2E/DX2                !
 ! R5    R(2,8)                  1.6604         estimate D2E/DX2                !
 ! R6    R(3,7)                  1.6386         estimate D2E/DX2                !
 ! R7    R(4,6)                  1.6416         estimate D2E/DX2                !
 ! R8    R(5,9)                  1.6365         estimate D2E/DX2                !
 ! R9    R(6,16)                 1.6492         estimate D2E/DX2                !
 ! R10   R(6,17)                 1.651          estimate D2E/DX2                !
 ! R11   R(6,18)                 1.6634         estimate D2E/DX2                !
 ! R12   R(7,19)                 1.6832         estimate D2E/DX2                !
 ! R13   R(7,20)                 1.6456         estimate D2E/DX2                !
 ! R14   R(7,21)                 1.6364         estimate D2E/DX2                !
 ! R15   R(8,13)                 1.6406         estimate D2E/DX2                !
 ! R16   R(8,14)                 1.6648         estimate D2E/DX2                !
 ! R17   R(8,15)                 1.6399         estimate D2E/DX2                !
 ! R18   R(9,10)                 1.6503         estimate D2E/DX2                !
 ! R19   R(9,11)                 1.6573         estimate D2E/DX2                !
 ! R20   R(9,12)                 1.6513         estimate D2E/DX2                !
 ! R21   R(10,23)                0.9639         estimate D2E/DX2                !
 ! R22   R(11,24)                0.9634         estimate D2E/DX2                !
 ! R23   R(12,22)                0.9636         estimate D2E/DX2                !
 ! R24   R(13,25)                0.974          estimate D2E/DX2                !
 ! R25   R(14,27)                0.9758         estimate D2E/DX2                !
 ! R26   R(15,26)                0.9627         estimate D2E/DX2                !
 ! R27   R(16,32)                0.9636         estimate D2E/DX2                !
 ! R28   R(17,33)                0.9837         estimate D2E/DX2                !
 ! R29   R(18,31)                0.9638         estimate D2E/DX2                !
 ! R30   R(19,30)                0.9654         estimate D2E/DX2                !
 ! R31   R(20,28)                0.964          estimate D2E/DX2                !
 ! R32   R(21,29)                0.9796         estimate D2E/DX2                !
 ! A1    A(2,1,3)              106.3234         estimate D2E/DX2                !
 ! A2    A(2,1,4)              103.1879         estimate D2E/DX2                !
 ! A3    A(2,1,5)              113.2501         estimate D2E/DX2                !
 ! A4    A(3,1,4)              105.3705         estimate D2E/DX2                !
 ! A5    A(3,1,5)              115.3549         estimate D2E/DX2                !
 ! A6    A(4,1,5)              112.3142         estimate D2E/DX2                !
 ! A7    A(1,2,8)              140.8859         estimate D2E/DX2                !
 ! A8    A(1,3,7)              148.6074         estimate D2E/DX2                !
 ! A9    A(1,4,6)              134.0964         estimate D2E/DX2                !
 ! A10   A(1,5,9)              152.0            Frozen                          !
 ! A11   A(4,6,16)             110.2282         estimate D2E/DX2                !
 ! A12   A(4,6,17)             109.5909         estimate D2E/DX2                !
 ! A13   A(4,6,18)             111.4884         estimate D2E/DX2                !
 ! A14   A(16,6,17)            114.8371         estimate D2E/DX2                !
 ! A15   A(16,6,18)            107.9112         estimate D2E/DX2                !
 ! A16   A(17,6,18)            102.5719         estimate D2E/DX2                !
 ! A17   A(3,7,19)             103.1918         estimate D2E/DX2                !
 ! A18   A(3,7,20)             114.1832         estimate D2E/DX2                !
 ! A19   A(3,7,21)             112.1241         estimate D2E/DX2                !
 ! A20   A(19,7,20)            106.4451         estimate D2E/DX2                !
 ! A21   A(19,7,21)            112.8144         estimate D2E/DX2                !
 ! A22   A(20,7,21)            107.9884         estimate D2E/DX2                !
 ! A23   A(2,8,13)             109.2843         estimate D2E/DX2                !
 ! A24   A(2,8,14)             108.0427         estimate D2E/DX2                !
 ! A25   A(2,8,15)             111.2146         estimate D2E/DX2                !
 ! A26   A(13,8,14)            112.1704         estimate D2E/DX2                !
 ! A27   A(13,8,15)            111.2482         estimate D2E/DX2                !
 ! A28   A(14,8,15)            104.7916         estimate D2E/DX2                !
 ! A29   A(5,9,10)             114.113          estimate D2E/DX2                !
 ! A30   A(5,9,11)             110.2432         estimate D2E/DX2                !
 ! A31   A(5,9,12)             104.7704         estimate D2E/DX2                !
 ! A32   A(10,9,11)            105.3251         estimate D2E/DX2                !
 ! A33   A(10,9,12)            108.2395         estimate D2E/DX2                !
 ! A34   A(11,9,12)            114.3797         estimate D2E/DX2                !
 ! A35   A(9,10,23)            116.0382         estimate D2E/DX2                !
 ! A36   A(9,11,24)            117.2884         estimate D2E/DX2                !
 ! A37   A(9,12,22)            116.9345         estimate D2E/DX2                !
 ! A38   A(8,13,25)            116.5961         estimate D2E/DX2                !
 ! A39   A(8,14,27)            113.5263         estimate D2E/DX2                !
 ! A40   A(8,15,26)            117.3612         estimate D2E/DX2                !
 ! A41   A(6,16,32)            116.5984         estimate D2E/DX2                !
 ! A42   A(6,17,33)            117.1373         estimate D2E/DX2                !
 ! A43   A(6,18,31)            116.3135         estimate D2E/DX2                !
 ! A44   A(7,19,30)            115.0881         estimate D2E/DX2                !
 ! A45   A(7,20,28)            116.018          estimate D2E/DX2                !
 ! A46   A(7,21,29)            116.1544         estimate D2E/DX2                !
 ! D1    D(3,1,2,8)             54.013          estimate D2E/DX2                !
 ! D2    D(4,1,2,8)            -56.615          estimate D2E/DX2                !
 ! D3    D(5,1,2,8)           -178.2908         estimate D2E/DX2                !
 ! D4    D(2,1,3,7)            -51.1331         estimate D2E/DX2                !
 ! D5    D(4,1,3,7)             57.9568         estimate D2E/DX2                !
 ! D6    D(5,1,3,7)           -177.5709         estimate D2E/DX2                !
 ! D7    D(2,1,4,6)             41.2968         estimate D2E/DX2                !
 ! D8    D(3,1,4,6)            -70.0365         estimate D2E/DX2                !
 ! D9    D(5,1,4,6)            163.602          estimate D2E/DX2                !
 ! D10   D(2,1,5,9)            -89.636          estimate D2E/DX2                !
 ! D11   D(3,1,5,9)             33.1907         estimate D2E/DX2                !
 ! D12   D(4,1,5,9)            153.9573         estimate D2E/DX2                !
 ! D13   D(1,2,8,13)            98.0767         estimate D2E/DX2                !
 ! D14   D(1,2,8,14)           -24.2296         estimate D2E/DX2                !
 ! D15   D(1,2,8,15)          -138.7156         estimate D2E/DX2                !
 ! D16   D(1,3,7,19)           -58.6416         estimate D2E/DX2                !
 ! D17   D(1,3,7,20)          -173.7291         estimate D2E/DX2                !
 ! D18   D(1,3,7,21)            63.0404         estimate D2E/DX2                !
 ! D19   D(1,4,6,16)           161.8736         estimate D2E/DX2                !
 ! D20   D(1,4,6,17)            34.551          estimate D2E/DX2                !
 ! D21   D(1,4,6,18)           -78.3045         estimate D2E/DX2                !
 ! D22   D(1,5,9,10)           -93.0138         estimate D2E/DX2                !
 ! D23   D(1,5,9,11)           148.7121         estimate D2E/DX2                !
 ! D24   D(1,5,9,12)            25.1922         estimate D2E/DX2                !
 ! D25   D(4,6,16,32)          -13.7229         estimate D2E/DX2                !
 ! D26   D(17,6,16,32)         110.6319         estimate D2E/DX2                !
 ! D27   D(18,6,16,32)        -135.686          estimate D2E/DX2                !
 ! D28   D(4,6,17,33)           49.7998         estimate D2E/DX2                !
 ! D29   D(16,6,17,33)         -74.8906         estimate D2E/DX2                !
 ! D30   D(18,6,17,33)         168.3378         estimate D2E/DX2                !
 ! D31   D(4,6,18,31)         -102.9126         estimate D2E/DX2                !
 ! D32   D(16,6,18,31)          18.2691         estimate D2E/DX2                !
 ! D33   D(17,6,18,31)         139.8941         estimate D2E/DX2                !
 ! D34   D(3,7,19,30)         -162.9704         estimate D2E/DX2                !
 ! D35   D(20,7,19,30)         -42.4468         estimate D2E/DX2                !
 ! D36   D(21,7,19,30)          75.8144         estimate D2E/DX2                !
 ! D37   D(3,7,20,28)         -100.1112         estimate D2E/DX2                !
 ! D38   D(19,7,20,28)         146.7232         estimate D2E/DX2                !
 ! D39   D(21,7,20,28)          25.3303         estimate D2E/DX2                !
 ! D40   D(3,7,21,29)          -50.5298         estimate D2E/DX2                !
 ! D41   D(19,7,21,29)          65.4642         estimate D2E/DX2                !
 ! D42   D(20,7,21,29)        -177.1813         estimate D2E/DX2                !
 ! D43   D(2,8,13,25)          -54.0971         estimate D2E/DX2                !
 ! D44   D(14,8,13,25)          65.6987         estimate D2E/DX2                !
 ! D45   D(15,8,13,25)        -177.2849         estimate D2E/DX2                !
 ! D46   D(2,8,14,27)           81.1206         estimate D2E/DX2                !
 ! D47   D(13,8,14,27)         -39.3971         estimate D2E/DX2                !
 ! D48   D(15,8,14,27)        -160.2179         estimate D2E/DX2                !
 ! D49   D(2,8,15,26)          -54.9076         estimate D2E/DX2                !
 ! D50   D(13,8,15,26)          67.168          estimate D2E/DX2                !
 ! D51   D(14,8,15,26)        -171.403          estimate D2E/DX2                !
 ! D52   D(5,9,10,23)          -94.3736         estimate D2E/DX2                !
 ! D53   D(11,9,10,23)          26.6719         estimate D2E/DX2                !
 ! D54   D(12,9,10,23)         149.4204         estimate D2E/DX2                !
 ! D55   D(5,9,11,24)          -42.1578         estimate D2E/DX2                !
 ! D56   D(10,9,11,24)        -165.6999         estimate D2E/DX2                !
 ! D57   D(12,9,11,24)          75.5824         estimate D2E/DX2                !
 ! D58   D(5,9,12,22)         -165.3208         estimate D2E/DX2                !
 ! D59   D(10,9,12,22)         -43.1978         estimate D2E/DX2                !
 ! D60   D(11,9,12,22)          73.8588         estimate D2E/DX2                !
 --------------------------------------------------------------------------------
 Trust Radius=3.00D-01 FncErr=1.00D-07 GrdErr=1.00D-06 EigMax=2.50D+02 EigMin=1.00D-04
 Number of steps in this run=    148 maximum allowed number of steps=    198.
 GradGradGradGradGradGradGradGradGradGradGradGradGradGradGradGradGradGrad

                          Input orientation:                          
 ---------------------------------------------------------------------
 Center     Atomic      Atomic             Coordinates (Angstroms)
 Number     Number       Type             X           Y           Z
 ---------------------------------------------------------------------
      1         40           0        0.646460   -0.190130   -0.151900
      2          8           0       -0.192120   -0.931310    1.439390
      3          8           0        0.172630    1.703950   -0.190400
      4          8           0       -0.377720   -1.016920   -1.628440
      5          8           0        2.567800   -0.578830   -0.268120
      6         14           0       -1.969240   -1.332160   -1.878290
      7         14           0       -0.989580    2.856810   -0.118090
      8         14           0       -1.674760   -1.051520    2.177060
      9         14           0        4.135540   -0.219420    0.033620
     10          8           0        4.879080    0.622240   -1.175590
     11          8           0        5.019680   -1.610460    0.206850
     12          8           0        4.096860    0.735780    1.380060
     13          8           0       -2.335740   -2.512450    1.830040
     14          8           0       -2.620900    0.209280    1.641490
     15          8           0       -1.552000   -0.824320    3.796500
     16          8           0       -2.254270   -1.591640   -3.481830
     17          8           0       -2.883710   -0.139120   -1.195570
     18          8           0       -2.460270   -2.685980   -1.045790
     19          8           0       -2.008250    2.456050   -1.396700
     20          8           0       -0.446230    4.381420   -0.415550
     21          8           0       -1.758350    2.867150    1.326420
     22          1           0        4.898840    1.227130    1.589860
     23          1           0        5.366930    0.096150   -1.819240
     24          1           0        4.623250   -2.325160    0.717020
     25          1           0       -2.407380   -2.745750    0.887120
     26          1           0       -0.933910   -1.385130    4.276380
     27          1           0       -3.029280    0.047050    0.770240
     28          1           0       -0.290290    4.933460    0.359240
     29          1           0       -2.094890    2.003210    1.642660
     30          1           0       -2.608600    3.158070   -1.677300
     31          1           0       -2.566020   -3.491430   -1.564360
     32          1           0       -1.552780   -1.337140   -4.091410
     33          1           0       -2.640460    0.789950   -1.408290
 ---------------------------------------------------------------------
                    Distance matrix (angstroms):
                    1          2          3          4          5
     1  Zr   0.000000
     2  O    1.945448   0.000000
     3  O    1.952828   3.119912   0.000000
     4  O    1.978054   3.074631   3.126336   0.000000
     5  O    1.963706   3.264505   3.309677   3.273909   0.000000
     6  Si   3.335647   3.784949   4.080998   1.641565   4.872872
     7  Si   3.458557   4.172714   1.638611   4.202537   4.947836
     8  Si   3.399134   1.660370   4.075577   4.020614   4.919518
     9  Si   3.494131   4.605607   4.410691   4.875240   1.636469
    10  O    4.429781   5.913434   4.928627   5.525022   2.758276
    11  O    4.612059   5.398450   5.885322   5.731711   2.702142
    12  O    3.887090   4.601962   4.336275   5.669647   2.604366
    13  O    4.267877   2.692159   5.305858   4.246356   5.673259
    14  O    3.748522   2.690866   3.659736   4.150646   5.584831
    15  O    4.563473   2.723360   5.026119   5.553918   5.792595
    16  O    4.633238   5.376514   5.252073   2.699407   5.882693
    17  O    3.681569   3.849056   3.707895   2.690334   5.547294
    18  O    4.084125   3.794666   5.189927   2.731713   5.506936
    19  O    3.949592   4.776604   2.603277   3.843677   5.605749
    20  O    4.707712   5.632981   2.757268   5.533342   5.806048
    21  O    4.161190   4.110248   2.717068   5.071818   5.756119
    22  H    4.808855   5.531670   5.072844   6.575356   3.485302
    23  H    5.014461   6.525135   5.676169   5.854599   3.270581
    24  H    4.596546   5.064822   6.071668   5.676476   2.871418
    25  H    4.115422   2.916260   5.255219   3.665572   5.548201
    26  H    4.851315   2.967274   5.542470   5.942375   5.793494
    27  H    3.797060   3.074805   3.731002   3.730478   5.726886
    28  H    5.233540   5.964217   3.308494   6.274196   6.240801
    29  H    3.942865   3.503321   2.931094   4.771787   5.662039
    30  H    4.912505   5.681211   3.472834   4.733894   6.537991
    31  H    4.818055   4.605663   6.031579   3.303931   6.043144
    32  H    4.655322   5.710153   5.238621   2.747640   5.672016
    33  H    3.652796   4.131148   3.198770   2.904004   5.504500
                    6          7          8          9         10
     6  Si   0.000000
     7  Si   4.648172   0.000000
     8  Si   4.075701   4.583910   0.000000
     9  Si   6.493222   5.979386   6.248705   0.000000
    10  O    7.156323   6.368106   7.549474   1.650282   0.000000
    11  O    7.298648   7.494884   7.000691   1.657318   2.629802
    12  O    7.189631   5.710963   6.094362   1.651304   2.675090
    13  O    3.908851   5.868246   1.640620   7.096660   8.421028
    14  O    3.897377   3.573058   1.664822   6.958341   8.022230
    15  O    5.712725   5.402874   1.639901   6.846406   8.256695
    16  O    1.649216   5.718645   5.714070   7.420987   7.816949
    17  O    1.650971   3.704631   3.697116   7.126516   7.800063
    18  O    1.663429   5.809137   3.698006   7.124167   8.051536
    19  O    3.818898   1.683194   5.018568   6.852015   7.130713
    20  O    6.091319   1.645645   6.143920   6.508617   6.562623
    21  O    5.286667   1.636375   4.010804   6.777624   7.440104
    22  H    8.108548   6.344008   6.982068   2.257657   2.830900
    23  H    7.474152   7.135851   8.177589   2.246997   0.963874
    24  H    7.154202   7.684665   6.589295   2.266945   3.512063
    25  H    3.136510   5.865943   2.251909   7.065452   8.287981
    26  H    6.241368   6.108070   2.251066   6.712616   8.218538
    27  H    3.168693   3.583889   2.240697   7.207514   8.164512
    28  H    6.861735   2.242616   6.406342   6.800454   6.903963
    29  H    4.851553   2.247350   3.129452   6.807889   7.647605
    30  H    4.539972   2.267845   5.783493   7.734217   7.921332
    31  H    2.262111   6.699031   4.554748   7.626958   8.514866
    32  H    2.251969   5.804626   6.276159   7.114925   7.328711
    33  H    2.274816   2.943116   4.144674   7.000865   7.525009
                   11         12         13         14         15
    11  O    0.000000
    12  O    2.780802   0.000000
    13  O    7.586207   7.220237   0.000000
    14  O    7.984241   6.743430   2.743115   0.000000
    15  O    7.529315   6.338984   2.707581   2.618195   0.000000
    16  O    8.155799   8.330169   5.391706   5.442990   7.352282
    17  O    8.160588   7.491841   3.884235   2.870429   5.211882
    18  O    7.659994   7.783903   2.883751   3.953455   5.266736
    19  O    8.276453   6.924023   5.933388   3.828043   6.159409
    20  O    8.134260   6.095455   7.492554   5.134915   6.787033
    21  O    8.200251   6.231300   5.433885   2.812034   4.446440
    22  H    3.158993   0.963646   8.147472   7.588490   7.119764
    23  H    2.671730   3.501103   8.913650   8.706025   8.958537
    24  H    0.963445   3.175856   7.049924   7.730184   7.061829
    25  H    7.544062   7.393861   0.973991   3.057265   3.589994
    26  H    7.215059   6.180257   3.036537   3.511513   0.962719
    27  H    8.237142   7.185270   2.855734   0.975792   3.478490
    28  H    8.428635   6.157083   7.860578   5.421604   6.823394
    29  H    8.107852   6.325591   4.525959   1.869458   3.595648
    30  H    9.191276   7.757457   6.673131   4.439581   6.851155
    31  H    8.013618   8.422166   3.540252   4.896503   6.072934
    32  H    7.857924   8.133413   6.087524   6.033112   7.904563
    33  H    8.188308   7.291729   4.635243   3.104629   5.557018
                   16         17         18         19         20
    16  O    0.000000
    17  O    2.780826   0.000000
    18  O    2.678490   2.586162   0.000000
    19  O    4.559834   2.746232   5.173774   0.000000
    20  O    6.953311   5.194711   7.375751   2.666385   0.000000
    21  O    6.576170   4.082221   6.079254   2.765291   2.655020
    22  H    9.210564   8.378147   8.741601   7.624807   6.522345
    23  H    7.980948   8.277522   8.342873   7.755060   7.357086
    24  H    8.091271   8.049299   7.308485   8.444204   8.482957
    25  H    4.521409   3.370313   1.934557   5.695073   7.505972
    26  H    7.872472   5.941086   5.687484   6.934891   7.450177
    27  H    4.622342   1.979964   3.330344   3.397265   5.183147
    28  H    7.822274   5.905449   8.046042   3.488878   0.964036
    29  H    6.261689   3.642439   5.417543   3.074131   3.551083
    30  H    5.093292   3.343533   5.879943   0.965396   2.786475
    31  H    2.717183   3.387464   0.963767   5.975930   8.233774
    32  H    0.963559   3.404778   3.452348   4.675169   6.887549
    33  H    3.181302   0.983662   3.499423   1.782053   4.324215
                   21         22         23         24         25
    21  O    0.000000
    22  H    6.861286   0.000000
    23  H    8.266997   3.622180   0.000000
    24  H    8.249622   3.668319   3.584469   0.000000
    25  H    5.667351   8.346165   8.708655   7.045253   0.000000
    26  H    5.240596   6.932695   8.891083   6.665938   3.938208
    27  H    3.142859   8.057261   8.786590   8.011955   2.863591
    28  H    2.712983   6.494488   7.755610   8.772596   7.983169
    29  H    0.979622   7.036856   8.443956   8.045185   4.818829
    30  H    3.135266   8.412165   8.544272   9.386066   6.439863
    31  H    7.031392   9.377529   8.710189   7.632200   2.567286
    32  H    6.860845   8.970825   7.422901   7.889267   5.244071
    33  H    3.545633   8.125335   8.047890   8.184274   4.221896
                   26         27         28         29         30
    26  H    0.000000
    27  H    4.328364   0.000000
    28  H    7.462092   5.616760   0.000000
    29  H    4.445807   2.336828   3.672889   0.000000
    30  H    7.674084   3.980687   3.560065   3.552426   0.000000
    31  H    6.419854   4.264482   8.936328   6.379499   6.650595
    32  H    8.390781   5.266087   7.792470   6.658181   5.210527
    33  H    6.321294   2.334325   5.080958   3.328354   2.383563
                   31         32         33
    31  H    0.000000
    32  H    3.471830   0.000000
    33  H    4.284870   3.592589   0.000000
 Stoichiometry    H12O16Si4Zr
 Framework group  C1[X(H12O16Si4Zr)]
 Deg. of freedom    93
 Full point group                 C1      NOp   1
 Largest Abelian subgroup         C1      NOp   1
 Largest concise Abelian subgroup C1      NOp   1
                         Standard orientation:                         
 ---------------------------------------------------------------------
 Center     Atomic      Atomic             Coordinates (Angstroms)
 Number     Number       Type             X           Y           Z
 ---------------------------------------------------------------------
      1         40           0        0.642855   -0.234002   -0.177942
      2          8           0       -0.195460   -0.963250    1.418990
      3          8           0        0.232989    1.675293   -0.189853
      4          8           0       -0.431678   -1.010086   -1.646196
      5          8           0        2.547861   -0.686075   -0.328680
      6         14           0       -2.036676   -1.268771   -1.873793
      7         14           0       -0.888186    2.865892   -0.087444
      8         14           0       -1.669640   -1.041149    2.178961
      9         14           0        4.131403   -0.382995   -0.048380
     10          8           0        4.884110    0.445836   -1.260775
     11          8           0        4.970453   -1.804838    0.096748
     12          8           0        4.146142    0.558668    1.308033
     13          8           0       -2.385116   -2.475185    1.827866
     14          8           0       -2.580715    0.256461    1.671237
     15          8           0       -1.514005   -0.835367    3.798439
     16          8           0       -2.355315   -1.501504   -3.475110
     17          8           0       -2.899401   -0.052836   -1.164628
     18          8           0       -2.560293   -2.613979   -1.047211
     19          8           0       -1.939677    2.513290   -1.353611
     20          8           0       -0.298149    4.374356   -0.378199
     21          8           0       -1.633542    2.886890    1.369171
     22          1           0        4.967498    1.020424    1.509945
     23          1           0        5.343741   -0.089580   -1.917374
     24          1           0        4.558018   -2.511108    0.605969
     25          1           0       -2.479323   -2.695945    0.883912
     26          1           0       -0.907881   -1.421764    4.262745
     27          1           0       -3.007899    0.117333    0.805024
     28          1           0       -0.111513    4.912591    0.399513
     29          1           0       -1.994215    2.031503    1.682042
     30          1           0       -2.520177    3.238102   -1.617537
     31          1           0       -2.701373   -3.409869   -1.572095
     32          1           0       -1.655189   -1.264390   -4.093210
     33          1           0       -2.628130    0.869693   -1.371856
 ---------------------------------------------------------------------
 Rotational constants (GHZ):           0.2137092           0.1359938           0.1263675
 General basis read from cards:  (5D, 7F)
 ======================================================================================================
                                       Pseudopotential Parameters
 ======================================================================================================
  Center     Atomic      Valence      Angular      Power
  Number     Number     Electrons     Momentum     of R      Exponent        Coefficient   SO-Coeffient
 ======================================================================================================
    1         40           12
                                      G and up 
                                                     2        1.0000000        0.00000000    0.00000000
                                      S - G
                                                     2        8.6365280      150.24299400    0.00000000
                                                     2        3.7176390       18.78003600    0.00000000
                                      P - G
                                                     2        7.6267280       33.19279100    0.00000000
                                                     2        7.4532070       66.38903900    0.00000000
                                                     2        3.3583890        4.62072600    0.00000000
                                                     2        3.2297380        9.26027000    0.00000000
                                      D - G
                                                     2        5.9380860       13.99338300    0.00000000
                                                     2        5.8255440       20.99588200    0.00000000
                                                     2        2.2050190        2.28516600    0.00000000
                                                     2        2.2062920        3.44126000    0.00000000
                                      F - G
                                                     2        4.8002150       -5.23932000    0.00000000
                                                     2        4.7989920       -6.98742400    0.00000000
    2          8
                                   No pseudopotential on this center.
    3          8
                                   No pseudopotential on this center.
    4          8
                                   No pseudopotential on this center.
    5          8
                                   No pseudopotential on this center.
    6         14
                                   No pseudopotential on this center.
    7         14
                                   No pseudopotential on this center.
    8         14
                                   No pseudopotential on this center.
    9         14
                                   No pseudopotential on this center.
   10          8
                                   No pseudopotential on this center.
   11          8
                                   No pseudopotential on this center.
   12          8
                                   No pseudopotential on this center.
   13          8
                                   No pseudopotential on this center.
   14          8
                                   No pseudopotential on this center.
   15          8
                                   No pseudopotential on this center.
   16          8
                                   No pseudopotential on this center.
   17          8
                                   No pseudopotential on this center.
   18          8
                                   No pseudopotential on this center.
   19          8
                                   No pseudopotential on this center.
   20          8
                                   No pseudopotential on this center.
   21          8
                                   No pseudopotential on this center.
   22          1
                                   No pseudopotential on this center.
   23          1
                                   No pseudopotential on this center.
   24          1
                                   No pseudopotential on this center.
   25          1
                                   No pseudopotential on this center.
   26          1
                                   No pseudopotential on this center.
   27          1
                                   No pseudopotential on this center.
   28          1
                                   No pseudopotential on this center.
   29          1
                                   No pseudopotential on this center.
   30          1
                                   No pseudopotential on this center.
   31          1
                                   No pseudopotential on this center.
   32          1
                                   No pseudopotential on this center.
   33          1
                                   No pseudopotential on this center.
 ======================================================================================================
 There are   570 symmetry adapted cartesian basis functions of A   symmetry.
 There are   524 symmetry adapted basis functions of A   symmetry.
   524 basis functions,  1074 primitive gaussians,   570 cartesian basis functions
   104 alpha electrons      104 beta electrons
       nuclear repulsion energy      2842.4618940839 Hartrees.
 NAtoms=   33 NActive=   33 NUniq=   33 SFac= 1.00D+00 NAtFMM=   60 NAOKFM=F Big=F
 Integral buffers will be    131072 words long.
 Raffenetti 2 integral format.
 Two-electron integral symmetry is turned on.
 Nuclear repulsion after empirical dispersion term =     2842.4209236687 Hartrees.
 One-electron integrals computed using PRISM.
 PrsmSu:  requested number of processors reduced to:   4 ShMem   1 Linda.
   1 Symmetry operations used in ECPInt.
 ECPInt:  NShTT=   13203 NPrTT=   78401 LenC2=   11544 LenP2D=   44788.
 LDataN:  DoStor=T MaxTD1= 8 Len=  415
 Number of processors reduced to  13 by ecpmxn.
 NBasis=   524 RedAO= T EigKep=  3.09D-05  NBF=   524
 NBsUse=   524 1.00D-06 EigRej= -1.00D+00 NBFU=   524
 Defaulting to unpruned grid for atomic number  40.
 ExpMin= 1.01D-02 ExpMax= 1.61D+04 ExpMxC= 2.43D+03 IAcc=3 IRadAn=         5 AccDes= 0.00D+00
 Harris functional with IExCor=  402 and IRadAn=       5 diagonalized for initial guess.
 HarFok:  IExCor=  402 AccDes= 0.00D+00 IRadAn=         5 IDoV= 1 UseB2=F ITyADJ=14
 ICtDFT=  3500011 ScaDFX=  1.000000  1.000000  1.000000  1.000000
 Defaulting to unpruned grid for atomic number  40.
 FoFCou: FMM=F IPFlag=           0 FMFlag=      100000 FMFlg1=           0
         NFxFlg=           0 DoJE=T BraDBF=F KetDBF=T FulRan=T
         wScrn=  0.000000 ICntrl=       500 IOpCl=  0 I1Cent=   200000004 NGrid=           0
         NMat0=    1 NMatS0=      1 NMatT0=    0 NMatD0=    1 NMtDS0=    0 NMtDT0=    0
 Petite list used in FoFCou.
 Requested convergence on RMS density matrix=1.00D-08 within 128 cycles.
 Requested convergence on MAX density matrix=1.00D-06.
 Requested convergence on             energy=1.00D-06.
 No special actions if energy rises.
 Defaulting to unpruned grid for atomic number  40.
 Defaulting to unpruned grid for atomic number  40.
 Defaulting to unpruned grid for atomic number  40.
 Defaulting to unpruned grid for atomic number  40.
 Defaulting to unpruned grid for atomic number  40.
 Defaulting to unpruned grid for atomic number  40.
 Defaulting to unpruned grid for atomic number  40.
 Defaulting to unpruned grid for atomic number  40.
 Defaulting to unpruned grid for atomic number  40.
 Defaulting to unpruned grid for atomic number  40.
 Defaulting to unpruned grid for atomic number  40.
 Defaulting to unpruned grid for atomic number  40.
 Defaulting to unpruned grid for atomic number  40.
 Defaulting to unpruned grid for atomic number  40.
 Defaulting to unpruned grid for atomic number  40.
 Defaulting to unpruned grid for atomic number  40.
 SCF Done:  E(RB3LYP) =  -2416.94583595     A.U. after   14 cycles
            NFock= 14  Conv=0.34D-08     -V/T= 2.0185

 **********************************************************************

            Population analysis using the SCF Density.

 **********************************************************************

 Orbital symmetries:
       Occupied  (A) (A) (A) (A) (A) (A) (A) (A) (A) (A) (A) (A)
                 (A) (A) (A) (A) (A) (A) (A) (A) (A) (A) (A) (A)
                 (A) (A) (A) (A) (A) (A) (A) (A) (A) (A) (A) (A)
                 (A) (A) (A) (A) (A) (A) (A) (A) (A) (A) (A) (A)
                 (A) (A) (A) (A) (A) (A) (A) (A) (A) (A) (A) (A)
                 (A) (A) (A) (A) (A) (A) (A) (A) (A) (A) (A) (A)
                 (A) (A) (A) (A) (A) (A) (A) (A) (A) (A) (A) (A)
                 (A) (A) (A) (A) (A) (A) (A) (A) (A) (A) (A) (A)
                 (A) (A) (A) (A) (A) (A) (A) (A)
       Virtual   (A) (A) (A) (A) (A) (A) (A) (A) (A) (A) (A) (A)
                 (A) (A) (A) (A) (A) (A) (A) (A) (A) (A) (A) (A)
                 (A) (A) (A) (A) (A) (A) (A) (A) (A) (A) (A) (A)
                 (A) (A) (A) (A) (A) (A) (A) (A) (A) (A) (A) (A)
                 (A) (A) (A) (A) (A) (A) (A) (A) (A) (A) (A) (A)
                 (A) (A) (A) (A) (A) (A) (A) (A) (A) (A) (A) (A)
                 (A) (A) (A) (A) (A) (A) (A) (A) (A) (A) (A) (A)
                 (A) (A) (A) (A) (A) (A) (A) (A) (A) (A) (A) (A)
                 (A) (A) (A) (A) (A) (A) (A) (A) (A) (A) (A) (A)
                 (A) (A) (A) (A) (A) (A) (A) (A) (A) (A) (A) (A)
                 (A) (A) (A) (A) (A) (A) (A) (A) (A) (A) (A) (A)
                 (A) (A) (A) (A) (A) (A) (A) (A) (A) (A) (A) (A)
                 (A) (A) (A) (A) (A) (A) (A) (A) (A) (A) (A) (A)
                 (A) (A) (A) (A) (A) (A) (A) (A) (A) (A) (A) (A)
                 (A) (A) (A) (A) (A) (A) (A) (A) (A) (A) (A) (A)
                 (A) (A) (A) (A) (A) (A) (A) (A) (A) (A) (A) (A)
                 (A) (A) (A) (A) (A) (A) (A) (A) (A) (A) (A) (A)
                 (A) (A) (A) (A) (A) (A) (A) (A) (A) (A) (A) (A)
                 (A) (A) (A) (A) (A) (A) (A) (A) (A) (A) (A) (A)
                 (A) (A) (A) (A) (A) (A) (A) (A) (A) (A) (A) (A)
                 (A) (A) (A) (A) (A) (A) (A) (A) (A) (A) (A) (A)
                 (A) (A) (A) (A) (A) (A) (A) (A) (A) (A) (A) (A)
                 (A) (A) (A) (A) (A) (A) (A) (A) (A) (A) (A) (A)
                 (A) (A) (A) (A) (A) (A) (A) (A) (A) (A) (A) (A)
                 (A) (A) (A) (A) (A) (A) (A) (A) (A) (A) (A) (A)
                 (A) (A) (A) (A) (A) (A) (A) (A) (A) (A) (A) (A)
                 (A) (A) (A) (A) (A) (A) (A) (A) (A) (A) (A) (A)
                 (A) (A) (A) (A) (A) (A) (A) (A) (A) (A) (A) (A)
                 (A) (A) (A) (A) (A) (A) (A) (A) (A) (A) (A) (A)
                 (A) (A) (A) (A) (A) (A) (A) (A) (A) (A) (A) (A)
                 (A) (A) (A) (A) (A) (A) (A) (A) (A) (A) (A) (A)
                 (A) (A) (A) (A) (A) (A) (A) (A) (A) (A) (A) (A)
                 (A) (A) (A) (A) (A) (A) (A) (A) (A) (A) (A) (A)
                 (A) (A) (A) (A) (A) (A) (A) (A) (A) (A) (A) (A)
                 (A) (A) (A) (A) (A) (A) (A) (A) (A) (A) (A) (A)
 The electronic state is 1-A.
 Alpha  occ. eigenvalues --  -66.22745 -66.21697 -66.21666 -66.20970 -19.18485
 Alpha  occ. eigenvalues --  -19.18298 -19.17762 -19.16918 -19.16771 -19.16665
 Alpha  occ. eigenvalues --  -19.16620 -19.16555 -19.16129 -19.15961 -19.15939
 Alpha  occ. eigenvalues --  -19.15487 -19.15465 -19.15227 -19.14816 -19.14569
 Alpha  occ. eigenvalues --   -5.36804  -5.35777  -5.35752  -5.35028  -3.72790
 Alpha  occ. eigenvalues --   -3.72765  -3.72710  -3.71768  -3.71722  -3.71717
 Alpha  occ. eigenvalues --   -3.71711  -3.71687  -3.71676  -3.71009  -3.70990
 Alpha  occ. eigenvalues --   -3.70936  -2.13301  -1.29548  -1.29475  -1.29311
 Alpha  occ. eigenvalues --   -1.05602  -1.04715  -1.04384  -1.03463  -1.02497
 Alpha  occ. eigenvalues --   -1.02099  -1.01404  -1.01209  -1.00968  -1.00646
 Alpha  occ. eigenvalues --   -0.99761  -0.99289  -0.97374  -0.96245  -0.95750
 Alpha  occ. eigenvalues --   -0.95251  -0.60868  -0.59204  -0.59066  -0.58892
 Alpha  occ. eigenvalues --   -0.55521  -0.54472  -0.54104  -0.53252  -0.53046
 Alpha  occ. eigenvalues --   -0.52534  -0.51812  -0.50133  -0.48614  -0.47798
 Alpha  occ. eigenvalues --   -0.47450  -0.47011  -0.43354  -0.42807  -0.41789
 Alpha  occ. eigenvalues --   -0.41484  -0.41248  -0.40515  -0.39803  -0.39427
 Alpha  occ. eigenvalues --   -0.38956  -0.38844  -0.38625  -0.38166  -0.37998
 Alpha  occ. eigenvalues --   -0.37592  -0.37415  -0.37047  -0.36496  -0.36391
 Alpha  occ. eigenvalues --   -0.36177  -0.35830  -0.35415  -0.35282  -0.34917
 Alpha  occ. eigenvalues --   -0.34429  -0.34039  -0.33756  -0.33572  -0.33047
 Alpha  occ. eigenvalues --   -0.32685  -0.32246  -0.31959  -0.31257
 Alpha virt. eigenvalues --   -0.04375  -0.03115  -0.02998  -0.02915  -0.02043
 Alpha virt. eigenvalues --   -0.01320  -0.00516  -0.00163  -0.00062   0.00230
 Alpha virt. eigenvalues --    0.00719   0.00904   0.00995   0.01902   0.02202
 Alpha virt. eigenvalues --    0.02905   0.03302   0.03850   0.03892   0.04143
 Alpha virt. eigenvalues --    0.04404   0.04784   0.05847   0.06000   0.06128
 Alpha virt. eigenvalues --    0.06418   0.06951   0.07575   0.07635   0.08337
 Alpha virt. eigenvalues --    0.08610   0.08809   0.09149   0.09506   0.09859
 Alpha virt. eigenvalues --    0.10374   0.10661   0.10942   0.11110   0.11586
 Alpha virt. eigenvalues --    0.11867   0.12553   0.13115   0.13442   0.13774
 Alpha virt. eigenvalues --    0.14031   0.14148   0.14882   0.14933   0.15275
 Alpha virt. eigenvalues --    0.15540   0.15679   0.16216   0.16583   0.16893
 Alpha virt. eigenvalues --    0.17126   0.17401   0.17621   0.17738   0.18503
 Alpha virt. eigenvalues --    0.18657   0.18832   0.19092   0.19403   0.19663
 Alpha virt. eigenvalues --    0.19986   0.20340   0.20924   0.21238   0.21374
 Alpha virt. eigenvalues --    0.21539   0.21879   0.22311   0.22441   0.23280
 Alpha virt. eigenvalues --    0.23607   0.23948   0.24089   0.24464   0.24668
 Alpha virt. eigenvalues --    0.24931   0.25695   0.25723   0.26034   0.26114
 Alpha virt. eigenvalues --    0.26594   0.26751   0.26793   0.27250   0.27650
 Alpha virt. eigenvalues --    0.27833   0.28410   0.28544   0.28726   0.28847
 Alpha virt. eigenvalues --    0.29598   0.29992   0.30154   0.30578   0.30736
 Alpha virt. eigenvalues --    0.30773   0.31139   0.31564   0.31798   0.32292
 Alpha virt. eigenvalues --    0.32480   0.32876   0.33238   0.33582   0.34130
 Alpha virt. eigenvalues --    0.34305   0.35039   0.35348   0.35935   0.36511
 Alpha virt. eigenvalues --    0.36774   0.37662   0.38561   0.38870   0.39280
 Alpha virt. eigenvalues --    0.39385   0.40178   0.40278   0.40984   0.41288
 Alpha virt. eigenvalues --    0.41794   0.42058   0.43105   0.43905   0.44073
 Alpha virt. eigenvalues --    0.45185   0.45917   0.46310   0.46623   0.46988
 Alpha virt. eigenvalues --    0.47310   0.48541   0.48614   0.49071   0.49787
 Alpha virt. eigenvalues --    0.50074   0.50635   0.51822   0.52167   0.53362
 Alpha virt. eigenvalues --    0.54018   0.54271   0.55595   0.56631   0.57058
 Alpha virt. eigenvalues --    0.57530   0.58437   0.59081   0.60161   0.60408
 Alpha virt. eigenvalues --    0.60732   0.61486   0.61960   0.65055   0.66068
 Alpha virt. eigenvalues --    0.66648   0.67005   0.68177   0.68994   0.69406
 Alpha virt. eigenvalues --    0.70514   0.70978   0.72995   0.73666   0.74815
 Alpha virt. eigenvalues --    0.75422   0.77135   0.78477   0.78726   0.80058
 Alpha virt. eigenvalues --    0.80878   0.81766   0.83412   0.83585   0.85588
 Alpha virt. eigenvalues --    0.86506   0.87885   0.90202   0.90710   0.91107
 Alpha virt. eigenvalues --    0.93533   0.95868   0.96199   0.96816   0.97508
 Alpha virt. eigenvalues --    0.97919   0.98422   0.98975   0.99372   1.00164
 Alpha virt. eigenvalues --    1.00651   1.01123   1.01827   1.03441   1.03535
 Alpha virt. eigenvalues --    1.04490   1.04695   1.05520   1.06993   1.08083
 Alpha virt. eigenvalues --    1.09678   1.12037   1.15260   1.16260   1.16789
 Alpha virt. eigenvalues --    1.18781   1.19251   1.20062   1.20373   1.20872
 Alpha virt. eigenvalues --    1.21745   1.22150   1.22317   1.22512   1.23685
 Alpha virt. eigenvalues --    1.24121   1.24185   1.24326   1.25130   1.25495
 Alpha virt. eigenvalues --    1.26055   1.26626   1.27739   1.27906   1.28705
 Alpha virt. eigenvalues --    1.29111   1.29477   1.30459   1.30719   1.31653
 Alpha virt. eigenvalues --    1.32034   1.32649   1.33729   1.33987   1.34955
 Alpha virt. eigenvalues --    1.35597   1.36401   1.36737   1.37223   1.38478
 Alpha virt. eigenvalues --    1.39142   1.39706   1.40220   1.40671   1.41465
 Alpha virt. eigenvalues --    1.41995   1.42712   1.43897   1.44744   1.45506
 Alpha virt. eigenvalues --    1.47279   1.49465   1.51005   1.51933   1.52774
 Alpha virt. eigenvalues --    1.56583   1.57071   1.58657   1.59393   1.59448
 Alpha virt. eigenvalues --    1.60274   1.60941   1.61025   1.62132   1.62838
 Alpha virt. eigenvalues --    1.63460   1.64486   1.65010   1.66144   1.66227
 Alpha virt. eigenvalues --    1.67445   1.67774   1.68710   1.69748   1.70256
 Alpha virt. eigenvalues --    1.70815   1.71190   1.71450   1.72806   1.73409
 Alpha virt. eigenvalues --    1.74306   1.75229   1.75717   1.76195   1.76493
 Alpha virt. eigenvalues --    1.76830   1.77953   1.78931   1.79629   1.79902
 Alpha virt. eigenvalues --    1.80324   1.81097   1.82257   1.82603   1.82889
 Alpha virt. eigenvalues --    1.83596   1.84365   1.84559   1.85949   1.86154
 Alpha virt. eigenvalues --    1.87178   1.88081   1.88738   1.89923   1.90249
 Alpha virt. eigenvalues --    1.90908   1.91861   1.92720   1.92868   1.93612
 Alpha virt. eigenvalues --    1.94094   1.95079   1.95944   1.97263   1.97952
 Alpha virt. eigenvalues --    1.98711   2.00173   2.00589   2.03167   2.05375
 Alpha virt. eigenvalues --    2.06390   2.08017   2.09096   2.10201   2.10921
 Alpha virt. eigenvalues --    2.11658   2.13464   2.14099   2.15650   2.16091
 Alpha virt. eigenvalues --    2.16508   2.19853   2.19933   2.21868   2.25675
 Alpha virt. eigenvalues --    2.31994   2.33012   2.36379   2.39511   2.40153
 Alpha virt. eigenvalues --    2.40814   2.41451   2.42158   2.43048   2.43426
 Alpha virt. eigenvalues --    2.44080   2.45389   2.46086   2.47950   2.49112
 Alpha virt. eigenvalues --    2.49360   2.50435   2.50862   2.53035   2.53492
 Alpha virt. eigenvalues --    2.54670   2.57974   2.59873   2.60106   2.60843
 Alpha virt. eigenvalues --    2.61126   2.61589   2.61816   2.62285   2.62870
 Alpha virt. eigenvalues --    2.63299   2.63592   2.65017   2.65362   2.65683
 Alpha virt. eigenvalues --    2.66464   2.66664   2.67341   2.67751   2.67994
 Alpha virt. eigenvalues --    2.69463   2.71103   2.71304   2.72005   2.73342
 Alpha virt. eigenvalues --    2.74288   2.75475   2.76306   2.76945   2.78102
 Alpha virt. eigenvalues --    2.79589   2.80368   2.81258   2.83118   2.83554
 Alpha virt. eigenvalues --    2.83799   2.85102   2.86638   2.87746   2.88195
 Alpha virt. eigenvalues --    3.16022   3.22820   3.37054   3.40432   3.46394
 Alpha virt. eigenvalues --    3.47723   3.48763   3.48932   3.48953   3.51718
 Alpha virt. eigenvalues --    3.52773   3.53945   3.60008   3.61234   3.62173
 Alpha virt. eigenvalues --    3.65908   4.39337   4.76625   7.67840  31.21452
          Condensed to atoms (all electrons):
               1          2          3          4          5          6
     1  Zr  15.349925  -0.063849  -0.000268  -0.157298  -0.157132  -0.752248
     2  O   -0.063849   8.848686   0.013255  -0.044956  -0.050744   0.068064
     3  O   -0.000268   0.013255   8.838193   0.014817  -0.050148  -0.004625
     4  O   -0.157298  -0.044956   0.014817   8.834745  -0.065439  -0.730442
     5  O   -0.157132  -0.050744  -0.050148  -0.065439   9.286698  -0.003949
     6  Si  -0.752248   0.068064  -0.004625  -0.730442  -0.003949  14.217927
     7  Si  -0.608209  -0.018748  -0.890796  -0.011558  -0.030421   0.104604
     8  Si  -0.681748  -0.739094  -0.027274   0.073898  -0.010314   0.024899
     9  Si  -0.376453  -0.022570   0.004141  -0.009739  -1.063409   0.052278
    10  O   -0.036499   0.000563  -0.002118  -0.000498   0.115225  -0.001331
    11  O   -0.122040   0.001930   0.003235   0.002128   0.330136   0.000113
    12  O    0.057907   0.001400   0.006935   0.001472   0.116424  -0.003282
    13  O    0.005837   0.262277   0.001385  -0.014776  -0.000618   0.023295
    14  O   -0.057089   0.246001  -0.018284  -0.003165   0.000114   0.013529
    15  O   -0.060941   0.252464   0.000366   0.002514   0.000775  -0.004083
    16  O   -0.123500   0.005480  -0.000356   0.348453   0.003179  -0.449643
    17  O   -0.110249  -0.038758   0.009519   0.211815   0.000178  -0.434484
    18  O   -0.038666  -0.019677   0.003517   0.215269  -0.001259  -0.484285
    19  O    0.001859   0.008031   0.279577   0.014150   0.002361  -0.009612
    20  O   -0.136319  -0.000795   0.149118  -0.000541   0.001063   0.010279
    21  O    0.038387   0.011036   0.159610   0.004080   0.000598  -0.016494
    22  H   -0.014282   0.000004   0.000085  -0.000002   0.005557   0.000146
    23  H   -0.006824  -0.000009  -0.000003  -0.000031  -0.024083   0.000135
    24  H   -0.006897  -0.000046   0.000003   0.000010  -0.002408   0.000127
    25  H    0.020398  -0.021732  -0.000125  -0.001166  -0.000014   0.001293
    26  H   -0.007801  -0.012451   0.000015  -0.000012  -0.000020   0.000170
    27  H    0.010489  -0.020784   0.000746  -0.001579   0.000039   0.009132
    28  H    0.004332  -0.000012  -0.017675  -0.000013  -0.000009  -0.000294
    29  H   -0.000539  -0.005101  -0.019662  -0.000195  -0.000055   0.000640
    30  H   -0.000352  -0.000009  -0.000053  -0.000506  -0.000007  -0.000495
    31  H    0.003851   0.000286  -0.000022  -0.018325  -0.000018   0.061308
    32  H    0.002728  -0.000030   0.000035   0.011400   0.000010   0.018820
    33  H   -0.015697   0.000940  -0.010522  -0.009602  -0.000074   0.053287
               7          8          9         10         11         12
     1  Zr  -0.608209  -0.681748  -0.376453  -0.036499  -0.122040   0.057907
     2  O   -0.018748  -0.739094  -0.022570   0.000563   0.001930   0.001400
     3  O   -0.890796  -0.027274   0.004141  -0.002118   0.003235   0.006935
     4  O   -0.011558   0.073898  -0.009739  -0.000498   0.002128   0.001472
     5  O   -0.030421  -0.010314  -1.063409   0.115225   0.330136   0.116424
     6  Si   0.104604   0.024899   0.052278  -0.001331   0.000113  -0.003282
     7  Si  13.786833   0.175538   0.025959   0.001700  -0.000674   0.002412
     8  Si   0.175538  13.725374   0.042740  -0.001547   0.002271  -0.003043
     9  Si   0.025959   0.042740  13.904112  -0.010317  -0.184743  -0.197587
    10  O    0.001700  -0.001547  -0.010317   8.520023  -0.008164   0.046698
    11  O   -0.000674   0.002271  -0.184743  -0.008164   8.579193  -0.053662
    12  O    0.002412  -0.003043  -0.197587   0.046698  -0.053662   8.608849
    13  O    0.002471  -0.150762  -0.001058  -0.000001   0.000018  -0.000032
    14  O    0.021364  -0.481490  -0.000269  -0.000002   0.000007   0.000030
    15  O   -0.002621  -0.377912  -0.000661   0.000000  -0.000020   0.000054
    16  O    0.003724  -0.010483  -0.001428   0.000006  -0.000009  -0.000001
    17  O    0.001415   0.103139   0.003689   0.000007   0.000006  -0.000011
    18  O   -0.002012   0.083199   0.003757   0.000005   0.000006   0.000004
    19  O   -0.440205  -0.018603   0.000833   0.000007   0.000001  -0.000097
    20  O   -0.092045   0.009337   0.003580   0.000053  -0.000002  -0.000073
    21  O    0.012458  -0.048941  -0.002147  -0.000003   0.000004  -0.000016
    22  H    0.000016   0.000194   0.051363  -0.005192  -0.004889   0.221294
    23  H   -0.000018   0.000053   0.075538   0.231724  -0.004976   0.005406
    24  H    0.000043   0.000186   0.038231   0.007533   0.237610  -0.006781
    25  H   -0.000299   0.054270  -0.000201  -0.000000  -0.000000   0.000000
    26  H    0.000554   0.063756  -0.000352   0.000000   0.000000  -0.000004
    27  H    0.000172   0.074901  -0.000018   0.000000  -0.000000   0.000000
    28  H    0.056114   0.000080  -0.000167  -0.000000  -0.000000  -0.000004
    29  H    0.048486   0.023782  -0.000086   0.000000  -0.000000  -0.000001
    30  H    0.042930   0.000176   0.000005  -0.000000   0.000000   0.000000
    31  H    0.000095  -0.003022  -0.000060   0.000000  -0.000000   0.000000
    32  H   -0.000628   0.000148  -0.000019  -0.000000   0.000000  -0.000000
    33  H    0.021649   0.000033   0.000084  -0.000000   0.000000   0.000000
              13         14         15         16         17         18
     1  Zr   0.005837  -0.057089  -0.060941  -0.123500  -0.110249  -0.038666
     2  O    0.262277   0.246001   0.252464   0.005480  -0.038758  -0.019677
     3  O    0.001385  -0.018284   0.000366  -0.000356   0.009519   0.003517
     4  O   -0.014776  -0.003165   0.002514   0.348453   0.211815   0.215269
     5  O   -0.000618   0.000114   0.000775   0.003179   0.000178  -0.001259
     6  Si   0.023295   0.013529  -0.004083  -0.449643  -0.434484  -0.484285
     7  Si   0.002471   0.021364  -0.002621   0.003724   0.001415  -0.002012
     8  Si  -0.150762  -0.481490  -0.377912  -0.010483   0.103139   0.083199
     9  Si  -0.001058  -0.000269  -0.000661  -0.001428   0.003689   0.003757
    10  O   -0.000001  -0.000002   0.000000   0.000006   0.000007   0.000005
    11  O    0.000018   0.000007  -0.000020  -0.000009   0.000006   0.000006
    12  O   -0.000032   0.000030   0.000054  -0.000001  -0.000011   0.000004
    13  O    8.641697   0.024045  -0.116838   0.003941  -0.028608  -0.042363
    14  O    0.024045   8.810785   0.155134   0.002493  -0.027903  -0.022816
    15  O   -0.116838   0.155134   8.781904  -0.000164   0.003890   0.001167
    16  O    0.003941   0.002493  -0.000164   8.911295  -0.096546  -0.101812
    17  O   -0.028608  -0.027903   0.003890  -0.096546   8.943358   0.224871
    18  O   -0.042363  -0.022816   0.001167  -0.101812   0.224871   9.037548
    19  O    0.000236   0.001515   0.000334  -0.000901  -0.030553   0.000153
    20  O    0.000009  -0.001144   0.000003   0.000043  -0.000857   0.000017
    21  O   -0.000439   0.025786   0.000774  -0.000169  -0.005937   0.000397
    22  H   -0.000000   0.000000   0.000001  -0.000000   0.000000  -0.000000
    23  H    0.000000   0.000000   0.000000  -0.000000   0.000000   0.000000
    24  H   -0.000000   0.000000   0.000001   0.000000  -0.000000  -0.000000
    25  H    0.217090  -0.009243   0.007479  -0.000262   0.000555   0.015179
    26  H   -0.006679   0.001107   0.225729   0.000000  -0.000022   0.000008
    27  H   -0.004535   0.206523   0.000055   0.000314   0.017679  -0.000836
    28  H    0.000000  -0.000003  -0.000001  -0.000000   0.000003   0.000000
    29  H    0.000778   0.014140  -0.001358  -0.000004  -0.000700  -0.000002
    30  H    0.000001   0.000006   0.000001   0.000103  -0.000420  -0.000009
    31  H    0.002316   0.000077  -0.000020   0.005076  -0.001230   0.215767
    32  H   -0.000007  -0.000006   0.000000   0.236302  -0.003418   0.003903
    33  H    0.000252   0.002019  -0.000056   0.000216   0.229843   0.002229
              19         20         21         22         23         24
     1  Zr   0.001859  -0.136319   0.038387  -0.014282  -0.006824  -0.006897
     2  O    0.008031  -0.000795   0.011036   0.000004  -0.000009  -0.000046
     3  O    0.279577   0.149118   0.159610   0.000085  -0.000003   0.000003
     4  O    0.014150  -0.000541   0.004080  -0.000002  -0.000031   0.000010
     5  O    0.002361   0.001063   0.000598   0.005557  -0.024083  -0.002408
     6  Si  -0.009612   0.010279  -0.016494   0.000146   0.000135   0.000127
     7  Si  -0.440205  -0.092045   0.012458   0.000016  -0.000018   0.000043
     8  Si  -0.018603   0.009337  -0.048941   0.000194   0.000053   0.000186
     9  Si   0.000833   0.003580  -0.002147   0.051363   0.075538   0.038231
    10  O    0.000007   0.000053  -0.000003  -0.005192   0.231724   0.007533
    11  O    0.000001  -0.000002   0.000004  -0.004889  -0.004976   0.237610
    12  O   -0.000097  -0.000073  -0.000016   0.221294   0.005406  -0.006781
    13  O    0.000236   0.000009  -0.000439  -0.000000   0.000000  -0.000000
    14  O    0.001515  -0.001144   0.025786   0.000000   0.000000   0.000000
    15  O    0.000334   0.000003   0.000774   0.000001   0.000000   0.000001
    16  O   -0.000901   0.000043  -0.000169  -0.000000  -0.000000   0.000000
    17  O   -0.030553  -0.000857  -0.005937   0.000000   0.000000  -0.000000
    18  O    0.000153   0.000017   0.000397  -0.000000   0.000000  -0.000000
    19  O    8.888990   0.033059   0.026562  -0.000000   0.000000  -0.000000
    20  O    0.033059   8.652257  -0.055964   0.000000   0.000000  -0.000000
    21  O    0.026562  -0.055964   8.488366  -0.000001   0.000000   0.000000
    22  H   -0.000000   0.000000  -0.000001   0.355773   0.000053   0.000110
    23  H    0.000000   0.000000   0.000000   0.000053   0.350651   0.000023
    24  H   -0.000000  -0.000000   0.000000   0.000110   0.000023   0.368391
    25  H   -0.000034   0.000000  -0.000011   0.000000   0.000000   0.000000
    26  H    0.000000  -0.000000   0.000045  -0.000000  -0.000000  -0.000000
    27  H   -0.000228   0.000225  -0.004743  -0.000000  -0.000000   0.000000
    28  H    0.004367   0.228932  -0.001524  -0.000000   0.000000  -0.000000
    29  H   -0.008614   0.008101   0.208462   0.000000  -0.000000  -0.000000
    30  H    0.222865  -0.001532  -0.007383   0.000000  -0.000000  -0.000000
    31  H    0.000002  -0.000000  -0.000000  -0.000000   0.000000   0.000000
    32  H    0.000090   0.000000   0.000001  -0.000000  -0.000000  -0.000000
    33  H    0.013217  -0.000049   0.001368  -0.000000  -0.000000  -0.000000
              25         26         27         28         29         30
     1  Zr   0.020398  -0.007801   0.010489   0.004332  -0.000539  -0.000352
     2  O   -0.021732  -0.012451  -0.020784  -0.000012  -0.005101  -0.000009
     3  O   -0.000125   0.000015   0.000746  -0.017675  -0.019662  -0.000053
     4  O   -0.001166  -0.000012  -0.001579  -0.000013  -0.000195  -0.000506
     5  O   -0.000014  -0.000020   0.000039  -0.000009  -0.000055  -0.000007
     6  Si   0.001293   0.000170   0.009132  -0.000294   0.000640  -0.000495
     7  Si  -0.000299   0.000554   0.000172   0.056114   0.048486   0.042930
     8  Si   0.054270   0.063756   0.074901   0.000080   0.023782   0.000176
     9  Si  -0.000201  -0.000352  -0.000018  -0.000167  -0.000086   0.000005
    10  O   -0.000000   0.000000   0.000000  -0.000000   0.000000  -0.000000
    11  O   -0.000000   0.000000  -0.000000  -0.000000  -0.000000   0.000000
    12  O    0.000000  -0.000004   0.000000  -0.000004  -0.000001   0.000000
    13  O    0.217090  -0.006679  -0.004535   0.000000   0.000778   0.000001
    14  O   -0.009243   0.001107   0.206523  -0.000003   0.014140   0.000006
    15  O    0.007479   0.225729   0.000055  -0.000001  -0.001358   0.000001
    16  O   -0.000262   0.000000   0.000314  -0.000000  -0.000004   0.000103
    17  O    0.000555  -0.000022   0.017679   0.000003  -0.000700  -0.000420
    18  O    0.015179   0.000008  -0.000836   0.000000  -0.000002  -0.000009
    19  O   -0.000034   0.000000  -0.000228   0.004367  -0.008614   0.222865
    20  O    0.000000  -0.000000   0.000225   0.228932   0.008101  -0.001532
    21  O   -0.000011   0.000045  -0.004743  -0.001524   0.208462  -0.007383
    22  H    0.000000  -0.000000  -0.000000  -0.000000   0.000000   0.000000
    23  H    0.000000  -0.000000  -0.000000   0.000000  -0.000000  -0.000000
    24  H    0.000000  -0.000000   0.000000  -0.000000  -0.000000  -0.000000
    25  H    0.301510  -0.000030   0.000024   0.000000   0.000001   0.000000
    26  H   -0.000030   0.369357  -0.000036   0.000000   0.000017  -0.000000
    27  H    0.000024  -0.000036   0.284890  -0.000000  -0.000999   0.000006
    28  H    0.000000   0.000000  -0.000000   0.349416  -0.000018  -0.000011
    29  H    0.000001   0.000017  -0.000999  -0.000018   0.285963   0.000167
    30  H    0.000000  -0.000000   0.000006  -0.000011   0.000167   0.334730
    31  H   -0.000178   0.000000   0.000014   0.000000   0.000000  -0.000000
    32  H   -0.000001  -0.000000  -0.000000   0.000000  -0.000000  -0.000000
    33  H    0.000005   0.000000  -0.002447  -0.000002   0.000129  -0.001047
              31         32         33
     1  Zr   0.003851   0.002728  -0.015697
     2  O    0.000286  -0.000030   0.000940
     3  O   -0.000022   0.000035  -0.010522
     4  O   -0.018325   0.011400  -0.009602
     5  O   -0.000018   0.000010  -0.000074
     6  Si   0.061308   0.018820   0.053287
     7  Si   0.000095  -0.000628   0.021649
     8  Si  -0.003022   0.000148   0.000033
     9  Si  -0.000060  -0.000019   0.000084
    10  O    0.000000  -0.000000  -0.000000
    11  O   -0.000000   0.000000   0.000000
    12  O    0.000000  -0.000000   0.000000
    13  O    0.002316  -0.000007   0.000252
    14  O    0.000077  -0.000006   0.002019
    15  O   -0.000020   0.000000  -0.000056
    16  O    0.005076   0.236302   0.000216
    17  O   -0.001230  -0.003418   0.229843
    18  O    0.215767   0.003903   0.002229
    19  O    0.000002   0.000090   0.013217
    20  O   -0.000000   0.000000  -0.000049
    21  O   -0.000000   0.000001   0.001368
    22  H   -0.000000  -0.000000  -0.000000
    23  H    0.000000  -0.000000  -0.000000
    24  H    0.000000  -0.000000  -0.000000
    25  H   -0.000178  -0.000001   0.000005
    26  H    0.000000  -0.000000   0.000000
    27  H    0.000014  -0.000000  -0.002447
    28  H    0.000000   0.000000  -0.000002
    29  H    0.000000  -0.000000   0.000129
    30  H   -0.000000  -0.000000  -0.001047
    31  H    0.327489  -0.000011  -0.000037
    32  H   -0.000011   0.349010   0.000147
    33  H   -0.000037   0.000147   0.270965
 Mulliken charges:
               1
     1  Zr   0.039186
     2  O   -0.661054
     3  O   -0.442620
     4  O   -0.664910
     5  O   -0.402236
     6  Si   2.235221
     7  Si   1.789695
     8  Si   2.096258
     9  Si   1.664975
    10  O   -0.857873
    11  O   -0.777479
    12  O   -0.804292
    13  O   -0.818933
    14  O   -0.903261
    15  O   -0.867968
    16  O   -0.735349
    17  O   -0.970271
    18  O   -1.093258
    19  O   -0.989361
    20  O   -0.806756
    21  O   -0.834160
    22  H    0.389770
    23  H    0.372362
    24  H    0.363864
    25  H    0.415492
    26  H    0.366650
    27  H    0.430996
    28  H    0.376491
    29  H    0.446669
    30  H    0.410835
    31  H    0.406642
    32  H    0.381525
    33  H    0.443150
 Sum of Mulliken charges =  -0.00000
 Mulliken charges with hydrogens summed into heavy atoms:
               1
     1  Zr   0.039186
     2  O   -0.661054
     3  O   -0.442620
     4  O   -0.664910
     5  O   -0.402236
     6  Si   2.235221
     7  Si   1.789695
     8  Si   2.096258
     9  Si   1.664975
    10  O   -0.485511
    11  O   -0.413615
    12  O   -0.414522
    13  O   -0.403440
    14  O   -0.472265
    15  O   -0.501318
    16  O   -0.353824
    17  O   -0.527121
    18  O   -0.686616
    19  O   -0.578527
    20  O   -0.430265
    21  O   -0.387491
 Electronic spatial extent (au):  <R**2>=           9723.2693
 Charge=             -0.0000 electrons
 Dipole moment (field-independent basis, Debye):
    X=              3.0013    Y=             -1.4750    Z=             -3.0515  Tot=              4.5272
 Quadrupole moment (field-independent basis, Debye-Ang):
   XX=           -166.5321   YY=           -151.4002   ZZ=           -158.9459
   XY=             -5.8553   XZ=             13.3931   YZ=              2.5514
 Traceless Quadrupole moment (field-independent basis, Debye-Ang):
   XX=             -7.5727   YY=              7.5592   ZZ=              0.0135
   XY=             -5.8553   XZ=             13.3931   YZ=              2.5514
 Octapole moment (field-independent basis, Debye-Ang**2):
  XXX=             85.7022  YYY=             -7.0982  ZZZ=            -43.0206  XYY=             -6.0462
  XXY=             24.2045  XXZ=            -20.4843  XZZ=             62.6738  YZZ=            -26.0957
  YYZ=             -1.9386  XYZ=             10.7550
 Hexadecapole moment (field-independent basis, Debye-Ang**3):
 XXXX=          -6042.9343 YYYY=          -2750.8876 ZZZZ=          -2266.2228 XXXY=             26.0614
 XXXZ=             61.2719 YYYX=            -14.8620 YYYZ=            158.1861 ZZZX=             40.0208
 ZZZY=            -86.5093 XXYY=          -1464.0256 XXZZ=          -1457.7575 YYZZ=           -914.8349
 XXYZ=             32.3335 YYXZ=            197.7139 ZZXY=            -56.6829
 N-N= 2.842420923669D+03 E-N=-1.139744778543D+04  KE= 2.373158308506D+03
 PrsmSu:  requested number of processors reduced to:   2 ShMem   1 Linda.
 PrsmSu:  requested number of processors reduced to:  10 ShMem   1 Linda.
   1 Symmetry operations used in ECPInt.
 ECPInt:  NShTT=   13203 NPrTT=   78401 LenC2=   11544 LenP2D=   44788.
 LDataN:  DoStor=T MaxTD1= 9 Len=  602
 Number of processors reduced to  14 by ecpmxn.
 Calling FoFJK, ICntrl=      2127 FMM=F ISym2X=0 I1Cent= 0 IOpClX= 0 NMat=1 NMatS=1 NMatT=0.
 CoulSu:  requested number of processors reduced to:  10 ShMem   1 Linda.
 Defaulting to unpruned grid for atomic number  40.
 Defaulting to unpruned grid for atomic number  40.
 Defaulting to unpruned grid for atomic number  40.
 Defaulting to unpruned grid for atomic number  40.
 Defaulting to unpruned grid for atomic number  40.
 Defaulting to unpruned grid for atomic number  40.
 Defaulting to unpruned grid for atomic number  40.
 Defaulting to unpruned grid for atomic number  40.
 Defaulting to unpruned grid for atomic number  40.
 Defaulting to unpruned grid for atomic number  40.
 Defaulting to unpruned grid for atomic number  40.
 Defaulting to unpruned grid for atomic number  40.
 Defaulting to unpruned grid for atomic number  40.
 Defaulting to unpruned grid for atomic number  40.
 Defaulting to unpruned grid for atomic number  40.
 Defaulting to unpruned grid for atomic number  40.
 ***** Axes restored to original set *****
 -------------------------------------------------------------------
 Center     Atomic                   Forces (Hartrees/Bohr)
 Number     Number              X              Y              Z
 -------------------------------------------------------------------
      1       40          -0.001160283    0.000174667    0.000074610
      2        8          -0.000022688   -0.000044158    0.000051811
      3        8          -0.000049941   -0.000041577   -0.000033078
      4        8           0.000021298   -0.000054253   -0.000034238
      5        8           0.000603001    0.000344927    0.000195924
      6       14           0.000065504   -0.000003498    0.000035742
      7       14           0.000047343   -0.000078943    0.000025542
      8       14           0.000107105    0.000008690   -0.000067217
      9       14           0.000767037   -0.000854392   -0.000619921
     10        8          -0.000016978    0.000087113    0.000122910
     11        8          -0.000033195    0.000169849    0.000098065
     12        8          -0.000159426    0.000166280    0.000153852
     13        8          -0.000035892   -0.000004012    0.000015760
     14        8          -0.000020623    0.000010613   -0.000003820
     15        8          -0.000020212   -0.000006213    0.000034135
     16        8          -0.000024356   -0.000000509   -0.000016251
     17        8          -0.000016715    0.000018305   -0.000010669
     18        8          -0.000021591   -0.000004673   -0.000006739
     19        8          -0.000007350    0.000017702   -0.000004137
     20        8           0.000007461    0.000037257   -0.000006510
     21        8          -0.000011238    0.000023495   -0.000015534
     22        1          -0.000026173    0.000089019    0.000069010
     23        1          -0.000014537   -0.000005167   -0.000006431
     24        1          -0.000037570   -0.000037553   -0.000042822
     25        1           0.000007974   -0.000000463    0.000001970
     26        1          -0.000000162    0.000009189   -0.000015867
     27        1           0.000033308    0.000003819   -0.000007419
     28        1          -0.000003408   -0.000016801   -0.000004778
     29        1          -0.000015722   -0.000009123    0.000020256
     30        1          -0.000000350   -0.000000124   -0.000004660
     31        1           0.000010748    0.000005186    0.000002003
     32        1           0.000013437   -0.000003117    0.000000279
     33        1           0.000014194   -0.000001533   -0.000001777
 -------------------------------------------------------------------
 Cartesian Forces:  Max     0.001160283 RMS     0.000196463

 GradGradGradGradGradGradGradGradGradGradGradGradGradGradGradGradGradGrad
 Berny optimization.
 FormGI is forming the generalized inverse of G from B-inverse, IUseBI=4.
 Internal  Forces:  Max     0.001069894 RMS     0.000137130
 Search for a local minimum.
 Step number   1 out of a maximum of  148
 All quantities printed in internal units (Hartrees-Bohrs-Radians)
 Mixed Optimization -- En-DIIS/RFO-DIIS
 Second derivative matrix not updated -- first step.
 ITU=  0
     Eigenvalues ---    0.00230   0.00230   0.00230   0.00230   0.03239
     Eigenvalues ---    0.03482   0.03500   0.03541   0.03581   0.03661
     Eigenvalues ---    0.03665   0.03674   0.03688   0.03735   0.03789
     Eigenvalues ---    0.03802   0.03811   0.03828   0.03857   0.03858
     Eigenvalues ---    0.08414   0.09469   0.11097   0.11247   0.11629
     Eigenvalues ---    0.11809   0.11979   0.12095   0.12205   0.12217
     Eigenvalues ---    0.12600   0.12707   0.12970   0.13105   0.13263
     Eigenvalues ---    0.16000   0.16000   0.16000   0.16000   0.16000
     Eigenvalues ---    0.16000   0.16000   0.16000   0.16000   0.16000
     Eigenvalues ---    0.16000   0.16000   0.19184   0.19894   0.19953
     Eigenvalues ---    0.20035   0.20159   0.20200   0.20253   0.20422
     Eigenvalues ---    0.20563   0.20992   0.21009   0.21136   0.21189
     Eigenvalues ---    0.21280   0.25000   0.25000   0.25000   0.37992
     Eigenvalues ---    0.40480   0.40678   0.41116   0.41559   0.42452
     Eigenvalues ---    0.42502   0.42606   0.42768   0.43316   0.43953
     Eigenvalues ---    0.44102   0.44216   0.44422   0.44766   0.44782
     Eigenvalues ---    0.50680   0.51458   0.52211   0.52570   0.54329
     Eigenvalues ---    0.54614   0.54648   0.54671   0.54697   0.54715
     Eigenvalues ---    0.54739   0.548931000.000001000.000001000.00000
     Eigenvalues --- 1000.000001000.000001000.000001000.000001000.00000
     Eigenvalues --- 1000.000001000.000001000.000001000.000001000.00000
     Eigenvalues --- 1000.000001000.000001000.000001000.000001000.00000
     Eigenvalues --- 1000.000001000.000001000.000001000.000001000.00000
     Eigenvalues --- 1000.000001000.000001000.000001000.000001000.00000
     Eigenvalues --- 1000.000001000.000001000.000001000.000001000.00000
     Eigenvalues --- 1000.000001000.000001000.000001000.000001000.00000
     Eigenvalues --- 1000.000001000.000001000.000001000.000001000.00000
     Eigenvalues --- 1000.000001000.000001000.00000
 RFO step:  Lambda=-1.41845454D-05 EMin= 2.30000000D-03
 Linear search not attempted -- first point.
 Iteration  1 RMS(Cart)=  0.01809287 RMS(Int)=  0.00008478
 Iteration  2 RMS(Cart)=  0.00014099 RMS(Int)=  0.00000023
 Iteration  3 RMS(Cart)=  0.00000001 RMS(Int)=  0.00000023
 Iteration  1 RMS(Cart)=  0.00000000 RMS(Int)=  0.00000000
 Variable       Old X    -DE/DX   Delta X   Delta X   Delta X     New X
                                 (Linear)    (Quad)   (Total)
    R1        3.67636  -0.00000   0.00000  -0.00002  -0.00002   3.67635
    R2        3.69031  -0.00006   0.00000  -0.00028  -0.00028   3.69003
    R3        3.73798   0.00001   0.00000   0.00004   0.00004   3.73802
    R4        3.71087   0.00107   0.00000   0.00536   0.00536   3.71623
    R5        3.13764  -0.00009   0.00000  -0.00022  -0.00022   3.13743
    R6        3.09653  -0.00003   0.00000  -0.00007  -0.00007   3.09646
    R7        3.10211  -0.00004   0.00000  -0.00008  -0.00008   3.10203
    R8        3.09248   0.00033   0.00000   0.00074   0.00074   3.09322
    R9        3.11657   0.00002   0.00000   0.00004   0.00004   3.11661
   R10        3.11988   0.00001   0.00000   0.00002   0.00002   3.11991
   R11        3.14342   0.00000   0.00000   0.00000   0.00000   3.14343
   R12        3.18077   0.00001   0.00000   0.00001   0.00001   3.18079
   R13        3.10982   0.00002   0.00000   0.00005   0.00005   3.10987
   R14        3.09230   0.00002   0.00000   0.00004   0.00004   3.09234
   R15        3.10032   0.00001   0.00000   0.00003   0.00003   3.10035
   R16        3.14606   0.00001   0.00000   0.00001   0.00001   3.14607
   R17        3.09896   0.00002   0.00000   0.00004   0.00004   3.09900
   R18        3.11858  -0.00005   0.00000  -0.00013  -0.00013   3.11845
   R19        3.13188  -0.00014   0.00000  -0.00034  -0.00034   3.13153
   R20        3.12051   0.00033   0.00000   0.00078   0.00078   3.12129
   R21        1.82146   0.00000   0.00000   0.00000   0.00000   1.82146
   R22        1.82065   0.00002   0.00000   0.00004   0.00004   1.82068
   R23        1.82103   0.00004   0.00000   0.00007   0.00007   1.82110
   R24        1.84058  -0.00000   0.00000  -0.00001  -0.00001   1.84057
   R25        1.84398  -0.00001   0.00000  -0.00002  -0.00002   1.84396
   R26        1.81928  -0.00001   0.00000  -0.00002  -0.00002   1.81925
   R27        1.82086   0.00001   0.00000   0.00001   0.00001   1.82088
   R28        1.85885   0.00000   0.00000   0.00000   0.00000   1.85886
   R29        1.82126  -0.00001   0.00000  -0.00001  -0.00001   1.82124
   R30        1.82433   0.00000   0.00000   0.00000   0.00000   1.82434
   R31        1.82176  -0.00001   0.00000  -0.00002  -0.00002   1.82174
   R32        1.85122   0.00002   0.00000   0.00004   0.00004   1.85126
    A1        1.85569  -0.00002   0.00000   0.00010   0.00010   1.85579
    A2        1.80097   0.00005   0.00000   0.00018   0.00018   1.80115
    A3        1.97659  -0.00001   0.00000  -0.00004  -0.00004   1.97655
    A4        1.83906   0.00002   0.00000   0.00008   0.00008   1.83915
    A5        2.01332   0.00007   0.00000   0.00045   0.00045   2.01377
    A6        1.96025  -0.00011   0.00000  -0.00076  -0.00076   1.95949
    A7        2.45892  -0.00015   0.00000  -0.00061  -0.00061   2.45831
    A8        2.59369   0.00005   0.00000   0.00019   0.00019   2.59388
    A9        2.34042  -0.00002   0.00000  -0.00009  -0.00009   2.34034
   A10        2.65290   0.00082   0.00000   0.00000  -0.00000   2.65290
   A11        1.92384   0.00000   0.00000  -0.00001  -0.00001   1.92384
   A12        1.91272  -0.00002   0.00000  -0.00010  -0.00010   1.91262
   A13        1.94584   0.00002   0.00000   0.00017   0.00017   1.94601
   A14        2.00429  -0.00001   0.00000  -0.00010  -0.00010   2.00418
   A15        1.88341  -0.00001   0.00000  -0.00003  -0.00003   1.88338
   A16        1.79022   0.00001   0.00000   0.00009   0.00009   1.79030
   A17        1.80104   0.00001   0.00000   0.00011   0.00011   1.80114
   A18        1.99287  -0.00002   0.00000  -0.00010  -0.00010   1.99278
[...]
 Alpha virt. eigenvalues --    3.47730   3.48763   3.48938   3.48988   3.51927
 Alpha virt. eigenvalues --    3.52716   3.53919   3.59948   3.61230   3.62163
 Alpha virt. eigenvalues --    3.65873   4.39513   4.77904   7.64428  31.21271
          Condensed to atoms (all electrons):
               1          2          3          4          5          6
     1  Zr  15.271750  -0.056649  -0.000348  -0.143406  -0.153473  -0.757201
     2  O   -0.056649   8.852350   0.013192  -0.047084  -0.049467   0.064396
     3  O   -0.000348   0.013192   8.837494   0.014668  -0.049686  -0.003143
     4  O   -0.143406  -0.047084   0.014668   8.836203  -0.064848  -0.740605
     5  O   -0.153473  -0.049467  -0.049686  -0.064848   9.274373  -0.003875
     6  Si  -0.757201   0.064396  -0.003143  -0.740605  -0.003875  14.238545
     7  Si  -0.593792  -0.019458  -0.883837  -0.014194  -0.030421   0.104489
     8  Si  -0.661938  -0.749524  -0.026861   0.072066  -0.010472   0.028863
     9  Si  -0.361722  -0.022350   0.000494  -0.009586  -1.045254   0.051084
    10  O   -0.042628   0.000580  -0.002099  -0.000504   0.116364  -0.000958
    11  O   -0.118770   0.001644   0.003301   0.002273   0.329008  -0.000043
    12  O    0.051393   0.002022   0.006373   0.001504   0.116084  -0.003008
    13  O    0.009844   0.264406   0.001312  -0.015085  -0.000497   0.022127
    14  O   -0.059580   0.246298  -0.018390  -0.003274   0.000132   0.014057
    15  O   -0.065447   0.256969   0.000450   0.002558   0.000775  -0.003116
    16  O   -0.123984   0.005556  -0.000454   0.349101   0.003185  -0.446766
    17  O   -0.104288  -0.038374   0.010210   0.211656   0.000259  -0.438866
    18  O   -0.035900  -0.019944   0.003515   0.215699  -0.001157  -0.487357
    19  O    0.004300   0.007946   0.279732   0.014518   0.002478  -0.010003
    20  O   -0.137661  -0.000784   0.149403  -0.000533   0.001121   0.010655
    21  O    0.039261   0.010758   0.157238   0.004207   0.000565  -0.016504
    22  H   -0.013519  -0.000003   0.000072  -0.000002   0.005467   0.000143
    23  H   -0.006283  -0.000009  -0.000005  -0.000027  -0.024105   0.000127
    24  H   -0.006030  -0.000058   0.000000   0.000008  -0.001545   0.000128
    25  H    0.020149  -0.022057  -0.000122  -0.001096  -0.000017   0.001175
    26  H   -0.007945  -0.011602   0.000016  -0.000013  -0.000018   0.000158
    27  H    0.008654  -0.020605   0.000747  -0.001589   0.000036   0.009982
    28  H    0.004381  -0.000012  -0.017749  -0.000013  -0.000009  -0.000290
    29  H   -0.000727  -0.004974  -0.019545  -0.000196  -0.000054   0.000653
    30  H   -0.000445  -0.000008  -0.000043  -0.000517  -0.000008  -0.000436
    31  H    0.003565   0.000267  -0.000022  -0.018382  -0.000020   0.061772
    32  H    0.002831  -0.000029   0.000035   0.011527   0.000012   0.018348
    33  H   -0.015600   0.000903  -0.010522  -0.009517  -0.000077   0.053200
               7          8          9         10         11         12
     1  Zr  -0.593792  -0.661938  -0.361722  -0.042628  -0.118770   0.051393
     2  O   -0.019458  -0.749524  -0.022350   0.000580   0.001644   0.002022
     3  O   -0.883837  -0.026861   0.000494  -0.002099   0.003301   0.006373
     4  O   -0.014194   0.072066  -0.009586  -0.000504   0.002273   0.001504
     5  O   -0.030421  -0.010472  -1.045254   0.116364   0.329008   0.116084
     6  Si   0.104489   0.028863   0.051084  -0.000958  -0.000043  -0.003008
     7  Si  13.772784   0.170301   0.025714   0.001875  -0.000815   0.002039
     8  Si   0.170301  13.727460   0.041958  -0.001503   0.002299  -0.002824
     9  Si   0.025714   0.041958  13.862951  -0.004288  -0.181413  -0.198107
    10  O    0.001875  -0.001503  -0.004288   8.521453  -0.012849   0.047055
    11  O   -0.000815   0.002299  -0.181413  -0.012849   8.576938  -0.049098
    12  O    0.002039  -0.002824  -0.198107   0.047055  -0.049098   8.609722
    13  O    0.002093  -0.156485  -0.001243  -0.000001   0.000019  -0.000046
    14  O    0.022005  -0.476571  -0.000123  -0.000002   0.000007   0.000034
    15  O   -0.002342  -0.382745  -0.000507   0.000000  -0.000020   0.000088
    16  O    0.003814  -0.010770  -0.001467   0.000006  -0.000009  -0.000001
    17  O    0.000291   0.101315   0.003625   0.000007   0.000005  -0.000012
    18  O   -0.002270   0.083116   0.003668   0.000005   0.000006   0.000006
    19  O   -0.443240  -0.018180   0.000705   0.000005   0.000001  -0.000100
    20  O   -0.091442   0.009137   0.003608   0.000054  -0.000003  -0.000051
    21  O    0.013501  -0.047383  -0.002043  -0.000002   0.000003  -0.000017
    22  H    0.000040   0.000195   0.049729  -0.004844  -0.004721   0.221738
    23  H   -0.000029   0.000052   0.074764   0.231741  -0.004944   0.005600
    24  H    0.000041   0.000205   0.035942   0.007550   0.237497  -0.006590
    25  H   -0.000289   0.055024  -0.000203  -0.000000  -0.000000  -0.000000
    26  H    0.000553   0.062526  -0.000386   0.000000   0.000000  -0.000006
    27  H    0.000347   0.074768  -0.000003   0.000000  -0.000000   0.000000
    28  H    0.056177   0.000085  -0.000169  -0.000000  -0.000000  -0.000003
    29  H    0.048340   0.023494  -0.000082   0.000000  -0.000000  -0.000001
    30  H    0.043047   0.000137   0.000004  -0.000000   0.000000   0.000000
    31  H    0.000096  -0.002969  -0.000061   0.000000  -0.000000   0.000000
    32  H   -0.000621   0.000162  -0.000011  -0.000000   0.000000  -0.000000
    33  H    0.021628   0.000051   0.000091  -0.000000   0.000000   0.000000
              13         14         15         16         17         18
     1  Zr   0.009844  -0.059580  -0.065447  -0.123984  -0.104288  -0.035900
     2  O    0.264406   0.246298   0.256969   0.005556  -0.038374  -0.019944
     3  O    0.001312  -0.018390   0.000450  -0.000454   0.010210   0.003515
     4  O   -0.015085  -0.003274   0.002558   0.349101   0.211656   0.215699
     5  O   -0.000497   0.000132   0.000775   0.003185   0.000259  -0.001157
     6  Si   0.022127   0.014057  -0.003116  -0.446766  -0.438866  -0.487357
     7  Si   0.002093   0.022005  -0.002342   0.003814   0.000291  -0.002270
     8  Si  -0.156485  -0.476571  -0.382745  -0.010770   0.101315   0.083116
     9  Si  -0.001243  -0.000123  -0.000507  -0.001467   0.003625   0.003668
    10  O   -0.000001  -0.000002   0.000000   0.000006   0.000007   0.000005
    11  O    0.000019   0.000007  -0.000020  -0.000009   0.000005   0.000006
    12  O   -0.000046   0.000034   0.000088  -0.000001  -0.000012   0.000006
    13  O    8.642316   0.025168  -0.116349   0.003950  -0.028700  -0.042750
    14  O    0.025168   8.807502   0.154403   0.002495  -0.027895  -0.022693
    15  O   -0.116349   0.154403   8.786191  -0.000165   0.003925   0.001207
    16  O    0.003950   0.002495  -0.000165   8.908357  -0.096894  -0.101361
    17  O   -0.028700  -0.027895   0.003925  -0.096894   8.941822   0.225687
    18  O   -0.042750  -0.022693   0.001207  -0.101361   0.225687   9.037092
    19  O    0.000230   0.001280   0.000334  -0.000817  -0.030288   0.000132
    20  O    0.000008  -0.001109   0.000005   0.000043  -0.000837   0.000017
    21  O   -0.000426   0.025450   0.000688  -0.000169  -0.005914   0.000398
    22  H   -0.000000   0.000000   0.000001  -0.000000   0.000000  -0.000000
    23  H    0.000000   0.000000   0.000000  -0.000000   0.000000   0.000000
    24  H   -0.000000   0.000000   0.000001   0.000000  -0.000000  -0.000000
    25  H    0.216988  -0.009339   0.007428  -0.000257   0.000566   0.015237
    26  H   -0.006587   0.000961   0.226045   0.000000  -0.000022   0.000008
    27  H   -0.004519   0.207260   0.000098   0.000306   0.017700  -0.000809
    28  H    0.000000  -0.000003  -0.000001  -0.000000   0.000003   0.000000
    29  H    0.000783   0.014289  -0.001329  -0.000004  -0.000704  -0.000002
    30  H    0.000001   0.000006   0.000001   0.000102  -0.000433  -0.000009
    31  H    0.002320   0.000076  -0.000020   0.004974  -0.001230   0.215708
    32  H   -0.000007  -0.000006   0.000000   0.236485  -0.003352   0.003886
    33  H    0.000250   0.002012  -0.000056   0.000256   0.229946   0.002204
              19         20         21         22         23         24
     1  Zr   0.004300  -0.137661   0.039261  -0.013519  -0.006283  -0.006030
     2  O    0.007946  -0.000784   0.010758  -0.000003  -0.000009  -0.000058
     3  O    0.279732   0.149403   0.157238   0.000072  -0.000005   0.000000
     4  O    0.014518  -0.000533   0.004207  -0.000002  -0.000027   0.000008
     5  O    0.002478   0.001121   0.000565   0.005467  -0.024105  -0.001545
     6  Si  -0.010003   0.010655  -0.016504   0.000143   0.000127   0.000128
     7  Si  -0.443240  -0.091442   0.013501   0.000040  -0.000029   0.000041
     8  Si  -0.018180   0.009137  -0.047383   0.000195   0.000052   0.000205
     9  Si   0.000705   0.003608  -0.002043   0.049729   0.074764   0.035942
    10  O    0.000005   0.000054  -0.000002  -0.004844   0.231741   0.007550
    11  O    0.000001  -0.000003   0.000003  -0.004721  -0.004944   0.237497
    12  O   -0.000100  -0.000051  -0.000017   0.221738   0.005600  -0.006590
    13  O    0.000230   0.000008  -0.000426  -0.000000   0.000000  -0.000000
    14  O    0.001280  -0.001109   0.025450   0.000000   0.000000   0.000000
    15  O    0.000334   0.000005   0.000688   0.000001   0.000000   0.000001
    16  O   -0.000817   0.000043  -0.000169  -0.000000  -0.000000   0.000000
    17  O   -0.030288  -0.000837  -0.005914   0.000000   0.000000  -0.000000
    18  O    0.000132   0.000017   0.000398  -0.000000   0.000000  -0.000000
    19  O    8.890212   0.032813   0.026104  -0.000000   0.000000  -0.000000
    20  O    0.032813   8.652623  -0.056206   0.000000   0.000000  -0.000000
    21  O    0.026104  -0.056206   8.488389  -0.000001   0.000000   0.000000
    22  H   -0.000000   0.000000  -0.000001   0.354904   0.000043   0.000099
    23  H    0.000000   0.000000   0.000000   0.000043   0.350809   0.000023
    24  H   -0.000000  -0.000000   0.000000   0.000099   0.000023   0.368473
    25  H   -0.000033   0.000000  -0.000011   0.000000   0.000000   0.000000
    26  H    0.000000  -0.000000   0.000047  -0.000000  -0.000000  -0.000000
    27  H   -0.000225   0.000224  -0.004713  -0.000000   0.000000   0.000000
    28  H    0.004363   0.228966  -0.001533  -0.000000   0.000000  -0.000000
    29  H   -0.008610   0.008112   0.208523   0.000000  -0.000000  -0.000000
    30  H    0.222824  -0.001504  -0.007384   0.000000  -0.000000  -0.000000
    31  H    0.000002  -0.000000  -0.000000  -0.000000   0.000000   0.000000
    32  H    0.000092   0.000000   0.000001  -0.000000  -0.000000  -0.000000
    33  H    0.013103  -0.000051   0.001383  -0.000000  -0.000000  -0.000000
              25         26         27         28         29         30
     1  Zr   0.020149  -0.007945   0.008654   0.004381  -0.000727  -0.000445
     2  O   -0.022057  -0.011602  -0.020605  -0.000012  -0.004974  -0.000008
     3  O   -0.000122   0.000016   0.000747  -0.017749  -0.019545  -0.000043
     4  O   -0.001096  -0.000013  -0.001589  -0.000013  -0.000196  -0.000517
     5  O   -0.000017  -0.000018   0.000036  -0.000009  -0.000054  -0.000008
     6  Si   0.001175   0.000158   0.009982  -0.000290   0.000653  -0.000436
     7  Si  -0.000289   0.000553   0.000347   0.056177   0.048340   0.043047
     8  Si   0.055024   0.062526   0.074768   0.000085   0.023494   0.000137
     9  Si  -0.000203  -0.000386  -0.000003  -0.000169  -0.000082   0.000004
    10  O   -0.000000   0.000000   0.000000  -0.000000   0.000000  -0.000000
    11  O   -0.000000   0.000000  -0.000000  -0.000000  -0.000000   0.000000
    12  O   -0.000000  -0.000006   0.000000  -0.000003  -0.000001   0.000000
    13  O    0.216988  -0.006587  -0.004519   0.000000   0.000783   0.000001
    14  O   -0.009339   0.000961   0.207260  -0.000003   0.014289   0.000006
    15  O    0.007428   0.226045   0.000098  -0.000001  -0.001329   0.000001
    16  O   -0.000257   0.000000   0.000306  -0.000000  -0.000004   0.000102
    17  O    0.000566  -0.000022   0.017700   0.000003  -0.000704  -0.000433
    18  O    0.015237   0.000008  -0.000809   0.000000  -0.000002  -0.000009
    19  O   -0.000033   0.000000  -0.000225   0.004363  -0.008610   0.222824
    20  O    0.000000  -0.000000   0.000224   0.228966   0.008112  -0.001504
    21  O   -0.000011   0.000047  -0.004713  -0.001533   0.208523  -0.007384
    22  H    0.000000  -0.000000  -0.000000  -0.000000   0.000000   0.000000
    23  H    0.000000  -0.000000   0.000000   0.000000  -0.000000  -0.000000
    24  H    0.000000  -0.000000   0.000000  -0.000000  -0.000000  -0.000000
    25  H    0.301576  -0.000030   0.000022   0.000000   0.000001   0.000000
    26  H   -0.000030   0.369525  -0.000035   0.000000   0.000018  -0.000000
    27  H    0.000022  -0.000035   0.284836  -0.000000  -0.000993   0.000005
    28  H    0.000000   0.000000  -0.000000   0.349339  -0.000017  -0.000011
    29  H    0.000001   0.000018  -0.000993  -0.000017   0.285904   0.000168
    30  H    0.000000  -0.000000   0.000005  -0.000011   0.000168   0.334706
    31  H   -0.000190   0.000000   0.000014   0.000000   0.000000  -0.000000
    32  H   -0.000001  -0.000000  -0.000000   0.000000  -0.000000  -0.000000
    33  H    0.000005   0.000000  -0.002437  -0.000002   0.000128  -0.001046
              31         32         33
     1  Zr   0.003565   0.002831  -0.015600
     2  O    0.000267  -0.000029   0.000903
     3  O   -0.000022   0.000035  -0.010522
     4  O   -0.018382   0.011527  -0.009517
     5  O   -0.000020   0.000012  -0.000077
     6  Si   0.061772   0.018348   0.053200
     7  Si   0.000096  -0.000621   0.021628
     8  Si  -0.002969   0.000162   0.000051
     9  Si  -0.000061  -0.000011   0.000091
    10  O    0.000000  -0.000000  -0.000000
    11  O   -0.000000   0.000000   0.000000
    12  O    0.000000  -0.000000   0.000000
    13  O    0.002320  -0.000007   0.000250
    14  O    0.000076  -0.000006   0.002012
    15  O   -0.000020   0.000000  -0.000056
    16  O    0.004974   0.236485   0.000256
    17  O   -0.001230  -0.003352   0.229946
    18  O    0.215708   0.003886   0.002204
    19  O    0.000002   0.000092   0.013103
    20  O   -0.000000   0.000000  -0.000051
    21  O   -0.000000   0.000001   0.001383
    22  H   -0.000000  -0.000000  -0.000000
    23  H    0.000000  -0.000000  -0.000000
    24  H    0.000000  -0.000000  -0.000000
    25  H   -0.000190  -0.000001   0.000005
    26  H    0.000000  -0.000000   0.000000
    27  H    0.000014  -0.000000  -0.002437
    28  H    0.000000   0.000000  -0.000002
    29  H    0.000000  -0.000000   0.000128
    30  H   -0.000000  -0.000000  -0.001046
    31  H    0.327628  -0.000010  -0.000036
    32  H   -0.000010   0.348934   0.000145
    33  H   -0.000036   0.000145   0.270979
 Mulliken charges:
               1
     1  Zr   0.051208
     2  O   -0.664296
     3  O   -0.445427
     4  O   -0.665514
     5  O   -0.414856
     6  Si   2.232266
     7  Si   1.793573
     8  Si   2.095008
     9  Si   1.674680
    10  O   -0.857016
    11  O   -0.780316
    12  O   -0.803795
    13  O   -0.819120
    14  O   -0.904452
    15  O   -0.869071
    16  O   -0.735509
    17  O   -0.969206
    18  O   -1.093339
    19  O   -0.989678
    20  O   -0.806609
    21  O   -0.834208
    22  H    0.390661
    23  H    0.372243
    24  H    0.364259
    25  H    0.415473
    26  H    0.366786
    27  H    0.430928
    28  H    0.376499
    29  H    0.446829
    30  H    0.410843
    31  H    0.406519
    32  H    0.381578
    33  H    0.443059
 Sum of Mulliken charges =  -0.00000
 Mulliken charges with hydrogens summed into heavy atoms:
               1
     1  Zr   0.051208
     2  O   -0.664296
     3  O   -0.445427
     4  O   -0.665514
     5  O   -0.414856
     6  Si   2.232266
     7  Si   1.793573
     8  Si   2.095008
     9  Si   1.674680
    10  O   -0.484773
    11  O   -0.416057
    12  O   -0.413135
    13  O   -0.403647
    14  O   -0.473525
    15  O   -0.502285
    16  O   -0.353930
    17  O   -0.526148
    18  O   -0.686820
    19  O   -0.578835
    20  O   -0.430110
    21  O   -0.387379
 Electronic spatial extent (au):  <R**2>=           9723.9107
 Charge=             -0.0000 electrons
 Dipole moment (field-independent basis, Debye):
    X=              2.9293    Y=             -1.4250    Z=             -3.1626  Tot=              4.5402
 Quadrupole moment (field-independent basis, Debye-Ang):
   XX=           -166.4733   YY=           -151.5991   ZZ=           -159.2211
   XY=             -6.1597   XZ=             13.2306   YZ=              3.0560
 Traceless Quadrupole moment (field-independent basis, Debye-Ang):
   XX=             -7.3755   YY=              7.4987   ZZ=             -0.1233
   XY=             -6.1597   XZ=             13.2306   YZ=              3.0560
 Octapole moment (field-independent basis, Debye-Ang**2):
  XXX=             81.1167  YYY=             -8.5421  ZZZ=            -45.7739  XYY=             -6.6123
  XXY=             25.5401  XXZ=            -21.1317  XZZ=             64.2263  YZZ=            -23.1114
  YYZ=             -2.5788  XYZ=              9.9174
 Hexadecapole moment (field-independent basis, Debye-Ang**3):
 XXXX=          -6045.1581 YYYY=          -2756.1474 ZZZZ=          -2270.3380 XXXY=             21.7515
 XXXZ=             51.2713 YYYX=            -23.6173 YYYZ=            168.3397 ZZZX=             50.5606
 ZZZY=            -80.4755 XXYY=          -1470.2073 XXZZ=          -1448.8632 YYZZ=           -923.1393
 XXYZ=             28.3817 YYXZ=            192.5893 ZZXY=            -50.9756
 N-N= 2.842301873298D+03 E-N=-1.139718854644D+04  KE= 2.373153847873D+03
 1\1\GINC-GRA1235\FOpt\RB3LYP\Gen\H12O16Si4Zr1\SARASHS\02-Aug-2020\0\\#
 n B3LYP/Gen Pseudo=cards EmpiricalDispersion=GD3 Opt=modredundant\\Tit
 le\\0,1\Zr,0.6474310298,-0.1738505466,-0.171258044\O,-0.1730346732,-0.
 91525441,1.4291522565\O,0.1626202516,1.7172543155,-0.2126879466\O,-0.3
 833442595,-1.0122413626,-1.6362139456\O,2.5716899984,-0.5533121601,-0.
 308124596\Si,-1.9748748328,-1.3356987505,-1.8755232368\Si,-1.005178592
 ,2.8640733696,-0.1349644972\Si,-1.6501997784,-1.0408098361,2.176808309
 \Si,4.1373119468,-0.229470983,0.0433904155\O,4.9216380317,0.6583840009
 ,-1.1051271836\O,4.9982418501,-1.6389553025,0.1757874519\O,4.074755282
 1,0.6666363779,1.4299863052\O,-2.3067788737,-2.5057219129,1.8386396915
 \O,-2.6070490208,0.21292981,1.643333481\O,-1.5169503352,-0.8073797491,
 3.7944940858\O,-2.2679326984,-1.6020489513,-3.4765183349\O,-2.89095418
 4,-0.1448211099,-1.1914898241\O,-2.4544265577,-2.6889035829,-1.0353698
 821\O,-2.0307532255,2.4543557349,-1.4051788704\O,-0.4719073207,4.39069
 58473,-0.4405339173\O,-1.7636027975,2.8746557133,1.314975439\H,4.87355
 64023,1.1442230697,1.6798806211\H,5.4113215654,0.1572770631,-1.7670478
 767\H,4.5701809655,-2.3768145184,0.6236312801\H,-2.3855138301,-2.74161
 17668,0.896934286\H,-0.8761810524,-1.3478285983,4.2679491544\H,-3.0229
 61232,0.0449469067,0.7768246751\H,-0.3141254646,4.9458146311,0.3316725
 304\H,-2.0931181398,2.0098486466,1.6362611264\H,-2.6369414039,3.152295
 4213,-1.6833953706\H,-2.5585816657,-3.4968977309,-1.5502810221\H,-1.57
 0437761,-1.3477925039,-4.0907848601\H,-2.6535796248,0.7848528682,-1.40
 81417009\\Version=ES64L-G16RevB.01\State=1-A\HF=-2416.945848\RMSD=8.81
 8e-09\RMSF=3.013e-05\Dipole=1.1945764,-0.5508292,-1.2084295\Quadrupole
 =-5.6854548,5.4111024,0.2743523,-4.7541756,9.7267022,2.3287253\PG=C01 
 [X(H12O16Si4Zr1)]\\@


 ERWIN WITH HIS PSI CAN DO
 CALCULATIONS QUITE A FEW.
 BUT ONE THING HAS NOT BEEN SEEN
 JUST WHAT DOES PSI REALLY MEAN.
 -- WALTER HUCKEL, TRANS. BY FELIX BLOCH
 Job cpu time:       0 days 19 hours 27 minutes 28.0 seconds.
 Elapsed time:       0 days  1 hours 28 minutes  2.2 seconds.
 File lengths (MBytes):  RWF=    167 Int=      0 D2E=      0 Chk=     21 Scr=      1
 Normal termination of Gaussian 16 at Sun Aug  2 08:31:11 2020.
