 Entering Gaussian System, Link 0=g16
 Initial command:
 /opt/software/gaussian/g16.b01/l1.exe "/localscratch/sarashs.37192505.0/Gau-796.inp" -scrdir="/localscratch/sarashs.37192505.0/"
 Entering Link 1 = /opt/software/gaussian/g16.b01/l1.exe PID=       797.
  
 Copyright (c) 1988-2017, Gaussian, Inc.  All Rights Reserved.
  
 This is part of the Gaussian(R) 16 program.  It is based on
 the Gaussian(R) 09 system (copyright 2009, Gaussian, Inc.),
 the Gaussian(R) 03 system (copyright 2003, Gaussian, Inc.),
 the Gaussian(R) 98 system (copyright 1998, Gaussian, Inc.),
 the Gaussian(R) 94 system (copyright 1995, Gaussian, Inc.),
 the Gaussian 92(TM) system (copyright 1992, Gaussian, Inc.),
 the Gaussian 90(TM) system (copyright 1990, Gaussian, Inc.),
 the Gaussian 88(TM) system (copyright 1988, Gaussian, Inc.),
 the Gaussian 86(TM) system (copyright 1986, Carnegie Mellon
 University), and the Gaussian 82(TM) system (copyright 1983,
 Carnegie Mellon University). Gaussian is a federally registered
 trademark of Gaussian, Inc.
  
 This software contains proprietary and confidential information,
 including trade secrets, belonging to Gaussian, Inc.
  
 This software is provided under written license and may be
 used, copied, transmitted, or stored only in accord with that
 written license.
  
 The following legend is applicable only to US Government
 contracts under FAR:
  
                    RESTRICTED RIGHTS LEGEND
  
 Use, reproduction and disclosure by the US Government is
 subject to restrictions as set forth in subparagraphs (a)
 and (c) of the Commercial Computer Software - Restricted
 Rights clause in FAR 52.227-19.
  
 Gaussian, Inc.
 340 Quinnipiac St., Bldg. 40, Wallingford CT 06492
  
  
 ---------------------------------------------------------------
 Warning -- This program may not be used in any manner that
 competes with the business of Gaussian, Inc. or will provide
 assistance to any competitor of Gaussian, Inc.  The licensee
 of this program is prohibited from giving any competitor of
 Gaussian, Inc. access to this program.  By using this program,
 the user acknowledges that Gaussian, Inc. is engaged in the
 business of creating and licensing software in the field of
 computational chemistry and represents and warrants to the
 licensee that it is not a competitor of Gaussian, Inc. and that
 it will not use this program in any manner prohibited above.
 ---------------------------------------------------------------
  

 Cite this work as:
 Gaussian 16, Revision B.01,
 M. J. Frisch, G. W. Trucks, H. B. Schlegel, G. E. Scuseria, 
 M. A. Robb, J. R. Cheeseman, G. Scalmani, V. Barone, 
 G. A. Petersson, H. Nakatsuji, X. Li, M. Caricato, A. V. Marenich, 
 J. Bloino, B. G. Janesko, R. Gomperts, B. Mennucci, H. P. Hratchian, 
 J. V. Ortiz, A. F. Izmaylov, J. L. Sonnenberg, D. Williams-Young, 
 F. Ding, F. Lipparini, F. Egidi, J. Goings, B. Peng, A. Petrone, 
 T. Henderson, D. Ranasinghe, V. G. Zakrzewski, J. Gao, N. Rega, 
 G. Zheng, W. Liang, M. Hada, M. Ehara, K. Toyota, R. Fukuda, 
 J. Hasegawa, M. Ishida, T. Nakajima, Y. Honda, O. Kitao, H. Nakai, 
 T. Vreven, K. Throssell, J. A. Montgomery, Jr., J. E. Peralta, 
 F. Ogliaro, M. J. Bearpark, J. J. Heyd, E. N. Brothers, K. N. Kudin, 
 V. N. Staroverov, T. A. Keith, R. Kobayashi, J. Normand, 
 K. Raghavachari, A. P. Rendell, J. C. Burant, S. S. Iyengar, 
 J. Tomasi, M. Cossi, J. M. Millam, M. Klene, C. Adamo, R. Cammi, 
 J. W. Ochterski, R. L. Martin, K. Morokuma, O. Farkas, 
 J. B. Foresman, and D. J. Fox, Gaussian, Inc., Wallingford CT, 2016.
 
 ******************************************
 Gaussian 16:  ES64L-G16RevB.01 20-Dec-2017
                12-Aug-2020 
 ******************************************
 %NProcShared=16
 Will use up to   16 processors via shared memory.
 ------------------------------------------------------------------
 #n B3LYP/Gen Pseudo=cards EmpiricalDispersion=GD3 Opt=modredundant
 ------------------------------------------------------------------
 1/18=120,19=15,26=3,38=1/1,3;
 2/9=110,12=2,17=6,18=5,40=1/2;
 3/5=7,11=2,16=1,17=8,25=1,30=1,71=1,74=-5,124=31/1,2,3;
 4//1;
 5/5=2,38=5/2;
 6/7=2,8=2,9=2,10=2,28=1/1;
 7//1,2,3,16;
 1/18=20,19=15,26=3/3(2);
 2/9=110/2;
 99//99;
 2/9=110/2;
 3/5=7,6=1,11=2,16=1,17=8,25=1,30=1,71=1,74=-5,82=7,124=31/1,2,3;
 4/5=5,16=3,69=1/1;
 5/5=2,38=5/2;
 7//1,2,3,16;
 1/18=20,19=15,26=3/3(-5);
 2/9=110/2;
 6/7=2,8=2,9=2,10=2,19=2,28=1/1;
 99/9=1/99;
 -----
 Title
 -----
 Symbolic Z-matrix:
 Charge =  0 Multiplicity = 1
 Zr                    0.65779  -0.12506  -0.07164 
 O                    -0.22285  -0.90624   1.4773 
 O                     0.10302   1.74748  -0.12299 
 O                    -0.2683   -0.97885  -1.59705 
 O                     2.59206  -0.4363   -0.08284 
 Si                   -1.83119  -1.33244  -1.9536 
 Si                   -1.1155    2.84172  -0.08279 
 Si                   -1.72376  -1.15291   2.11517 
 Si                    4.21162  -0.22591   0.0208 
 O                     4.95493  -0.04958  -1.44275 
 O                     4.91946  -1.55638   0.71059 
 O                     4.40852   1.16982   0.87825 
 O                    -2.31924  -2.624     1.69627 
 O                    -2.72422   0.06508   1.55086 
 O                    -1.59734  -1.01957   3.74439 
 O                    -2.00144  -1.55965  -3.57782 
 O                    -2.82509  -0.18676  -1.30145 
 O                    -2.34448  -2.71439  -1.18277 
 O                    -2.04046   2.43957  -1.43023 
 O                    -0.63565   4.40049  -0.29987 
 O                    -1.96551   2.76086   1.31383 
 H                     5.28747   1.56463   0.87136 
 H                     5.32294  -0.8535   -1.82668 
 H                     4.48851  -1.9361    1.48438 
 H                    -2.40577  -2.80951   0.74392 
 H                    -2.38137  -1.22423   4.26535 
 H                    -3.06034  -0.08306   0.64589 
 H                    -0.52731   4.92728   0.50015 
 H                    -2.26909   1.86932   1.58533 
 H                    -2.64854   3.12676  -1.73014 
 H                    -2.30452  -3.52952  -1.69562 
 H                    -1.27114  -1.26305  -4.13223 
 H                    -2.61026   0.75461  -1.48993 
 
 The following ModRedundant input section has been read:
 A       1       5       9 F                                                   
 D       1       5       9      12 F                                           
 D       3       1       5       9 F                                           
 

 GradGradGradGradGradGradGradGradGradGradGradGradGradGradGradGradGradGrad
 Berny optimization.
 Initialization pass.
                           ----------------------------
                           !    Initial Parameters    !
                           ! (Angstroms and Degrees)  !
 --------------------------                            --------------------------
 ! Name  Definition              Value          Derivative Info.                !
 --------------------------------------------------------------------------------
 ! R1    R(1,2)                  1.9455         estimate D2E/DX2                !
 ! R2    R(1,3)                  1.9537         estimate D2E/DX2                !
 ! R3    R(1,4)                  1.9783         estimate D2E/DX2                !
 ! R4    R(1,5)                  1.9592         estimate D2E/DX2                !
 ! R5    R(2,8)                  1.6494         estimate D2E/DX2                !
 ! R6    R(3,7)                  1.6382         estimate D2E/DX2                !
 ! R7    R(4,6)                  1.6416         estimate D2E/DX2                !
 ! R8    R(5,9)                  1.6365         estimate D2E/DX2                !
 ! R9    R(6,16)                 1.6488         estimate D2E/DX2                !
 ! R10   R(6,17)                 1.651          estimate D2E/DX2                !
 ! R11   R(6,18)                 1.6636         estimate D2E/DX2                !
 ! R12   R(7,19)                 1.6831         estimate D2E/DX2                !
 ! R13   R(7,20)                 1.6453         estimate D2E/DX2                !
 ! R14   R(7,21)                 1.6369         estimate D2E/DX2                !
 ! R15   R(8,13)                 1.6414         estimate D2E/DX2                !
 ! R16   R(8,14)                 1.6742         estimate D2E/DX2                !
 ! R17   R(8,15)                 1.6395         estimate D2E/DX2                !
 ! R18   R(9,10)                 1.6509         estimate D2E/DX2                !
 ! R19   R(9,11)                 1.6574         estimate D2E/DX2                !
 ! R20   R(9,12)                 1.6499         estimate D2E/DX2                !
 ! R21   R(10,23)                0.9639         estimate D2E/DX2                !
 ! R22   R(11,24)                0.9637         estimate D2E/DX2                !
 ! R23   R(12,22)                0.9636         estimate D2E/DX2                !
 ! R24   R(13,25)                0.9741         estimate D2E/DX2                !
 ! R25   R(14,27)                0.9767         estimate D2E/DX2                !
 ! R26   R(15,26)                0.9633         estimate D2E/DX2                !
 ! R27   R(16,32)                0.9637         estimate D2E/DX2                !
 ! R28   R(17,33)                0.9838         estimate D2E/DX2                !
 ! R29   R(18,31)                0.9639         estimate D2E/DX2                !
 ! R30   R(19,30)                0.9654         estimate D2E/DX2                !
 ! R31   R(20,28)                0.964          estimate D2E/DX2                !
 ! R32   R(21,29)                0.9802         estimate D2E/DX2                !
 ! A1    A(2,1,3)              106.0959         estimate D2E/DX2                !
 ! A2    A(2,1,4)              103.2214         estimate D2E/DX2                !
 ! A3    A(2,1,5)              112.8091         estimate D2E/DX2                !
 ! A4    A(3,1,4)              105.0977         estimate D2E/DX2                !
 ! A5    A(3,1,5)              115.6243         estimate D2E/DX2                !
 ! A6    A(4,1,5)              112.9055         estimate D2E/DX2                !
 ! A7    A(1,2,8)              141.2479         estimate D2E/DX2                !
 ! A8    A(1,3,7)              148.2962         estimate D2E/DX2                !
 ! A9    A(1,4,6)              134.9216         estimate D2E/DX2                !
 ! A10   A(1,5,9)              163.0003         Frozen                          !
 ! A11   A(4,6,16)             109.9952         estimate D2E/DX2                !
 ! A12   A(4,6,17)             109.7479         estimate D2E/DX2                !
 ! A13   A(4,6,18)             111.8422         estimate D2E/DX2                !
 ! A14   A(16,6,17)            114.9972         estimate D2E/DX2                !
 ! A15   A(16,6,18)            108.0658         estimate D2E/DX2                !
 ! A16   A(17,6,18)            101.9869         estimate D2E/DX2                !
 ! A17   A(3,7,19)             103.269          estimate D2E/DX2                !
 ! A18   A(3,7,20)             114.3706         estimate D2E/DX2                !
 ! A19   A(3,7,21)             111.9733         estimate D2E/DX2                !
 ! A20   A(19,7,20)            106.3205         estimate D2E/DX2                !
 ! A21   A(19,7,21)            112.6973         estimate D2E/DX2                !
 ! A22   A(20,7,21)            108.1076         estimate D2E/DX2                !
 ! A23   A(2,8,13)             111.4365         estimate D2E/DX2                !
 ! A24   A(2,8,14)             107.7362         estimate D2E/DX2                !
 ! A25   A(2,8,15)             107.5759         estimate D2E/DX2                !
 ! A26   A(13,8,14)            110.4391         estimate D2E/DX2                !
 ! A27   A(13,8,15)            110.7606         estimate D2E/DX2                !
 ! A28   A(14,8,15)            108.7751         estimate D2E/DX2                !
 ! A29   A(5,9,10)             113.7769         estimate D2E/DX2                !
 ! A30   A(5,9,11)             110.232          estimate D2E/DX2                !
 ! A31   A(5,9,12)             105.0574         estimate D2E/DX2                !
 ! A32   A(10,9,11)            105.2126         estimate D2E/DX2                !
 ! A33   A(10,9,12)            108.4595         estimate D2E/DX2                !
 ! A34   A(11,9,12)            114.3197         estimate D2E/DX2                !
 ! A35   A(9,10,23)            115.8434         estimate D2E/DX2                !
 ! A36   A(9,11,24)            117.3551         estimate D2E/DX2                !
 ! A37   A(9,12,22)            116.8572         estimate D2E/DX2                !
 ! A38   A(8,13,25)            116.8991         estimate D2E/DX2                !
 ! A39   A(8,14,27)            114.056          estimate D2E/DX2                !
 ! A40   A(8,15,26)            117.2166         estimate D2E/DX2                !
 ! A41   A(6,16,32)            116.4907         estimate D2E/DX2                !
 ! A42   A(6,17,33)            117.1859         estimate D2E/DX2                !
 ! A43   A(6,18,31)            116.3076         estimate D2E/DX2                !
 ! A44   A(7,19,30)            115.1373         estimate D2E/DX2                !
 ! A45   A(7,20,28)            116.1676         estimate D2E/DX2                !
 ! A46   A(7,21,29)            116.2372         estimate D2E/DX2                !
 ! D1    D(3,1,2,8)             57.7292         estimate D2E/DX2                !
 ! D2    D(4,1,2,8)            -52.5301         estimate D2E/DX2                !
 ! D3    D(5,1,2,8)           -174.7067         estimate D2E/DX2                !
 ! D4    D(2,1,3,7)            -50.098          estimate D2E/DX2                !
 ! D5    D(4,1,3,7)             58.8315         estimate D2E/DX2                !
 ! D6    D(5,1,3,7)           -175.9641         estimate D2E/DX2                !
 ! D7    D(2,1,4,6)             42.7683         estimate D2E/DX2                !
 ! D8    D(3,1,4,6)            -68.2312         estimate D2E/DX2                !
 ! D9    D(5,1,4,6)            164.8802         estimate D2E/DX2                !
 ! D10   D(2,1,5,9)           -106.925          estimate D2E/DX2                !
 ! D11   D(3,1,5,9)             15.4382         Frozen                          !
 ! D12   D(4,1,5,9)            136.5204         estimate D2E/DX2                !
 ! D13   D(1,2,8,13)            93.5308         estimate D2E/DX2                !
 ! D14   D(1,2,8,14)           -27.7655         estimate D2E/DX2                !
 ! D15   D(1,2,8,15)          -144.8802         estimate D2E/DX2                !
 ! D16   D(1,3,7,19)           -61.1012         estimate D2E/DX2                !
 ! D17   D(1,3,7,20)          -176.1751         estimate D2E/DX2                !
 ! D18   D(1,3,7,21)            60.409          estimate D2E/DX2                !
 ! D19   D(1,4,6,16)           160.167          estimate D2E/DX2                !
 ! D20   D(1,4,6,17)            32.6925         estimate D2E/DX2                !
 ! D21   D(1,4,6,18)           -79.742          estimate D2E/DX2                !
 ! D22   D(1,5,9,10)          -100.1287         estimate D2E/DX2                !
 ! D23   D(1,5,9,11)           141.9686         estimate D2E/DX2                !
 ! D24   D(1,5,9,12)            18.3497         Frozen                          !
 ! D25   D(4,6,16,32)          -14.1998         estimate D2E/DX2                !
 ! D26   D(17,6,16,32)         110.2979         estimate D2E/DX2                !
 ! D27   D(18,6,16,32)        -136.5531         estimate D2E/DX2                !
 ! D28   D(4,6,17,33)           51.0095         estimate D2E/DX2                !
 ! D29   D(16,6,17,33)         -73.6179         estimate D2E/DX2                !
 ! D30   D(18,6,17,33)         169.7166         estimate D2E/DX2                !
 ! D31   D(4,6,18,31)          -96.4424         estimate D2E/DX2                !
 ! D32   D(16,6,18,31)          24.7715         estimate D2E/DX2                !
 ! D33   D(17,6,18,31)         146.349          estimate D2E/DX2                !
 ! D34   D(3,7,19,30)         -162.1837         estimate D2E/DX2                !
 ! D35   D(20,7,19,30)         -41.4662         estimate D2E/DX2                !
 ! D36   D(21,7,19,30)          76.796          estimate D2E/DX2                !
 ! D37   D(3,7,20,28)          -98.427          estimate D2E/DX2                !
 ! D38   D(19,7,20,28)         148.2947         estimate D2E/DX2                !
 ! D39   D(21,7,20,28)          27.0455         estimate D2E/DX2                !
 ! D40   D(3,7,21,29)          -49.8995         estimate D2E/DX2                !
 ! D41   D(19,7,21,29)          66.0156         estimate D2E/DX2                !
 ! D42   D(20,7,21,29)        -176.7753         estimate D2E/DX2                !
 ! D43   D(2,8,13,25)          -58.468          estimate D2E/DX2                !
 ! D44   D(14,8,13,25)          61.2404         estimate D2E/DX2                !
 ! D45   D(15,8,13,25)        -178.1888         estimate D2E/DX2                !
 ! D46   D(2,8,14,27)           80.2918         estimate D2E/DX2                !
 ! D47   D(13,8,14,27)         -41.6247         estimate D2E/DX2                !
 ! D48   D(15,8,14,27)        -163.3756         estimate D2E/DX2                !
 ! D49   D(2,8,15,26)         -174.1994         estimate D2E/DX2                !
 ! D50   D(13,8,15,26)         -52.1897         estimate D2E/DX2                !
 ! D51   D(14,8,15,26)          69.3652         estimate D2E/DX2                !
 ! D52   D(5,9,10,23)          -94.8509         estimate D2E/DX2                !
 ! D53   D(11,9,10,23)          25.9078         estimate D2E/DX2                !
 ! D54   D(12,9,10,23)         148.6395         estimate D2E/DX2                !
 ! D55   D(5,9,11,24)          -43.8203         estimate D2E/DX2                !
 ! D56   D(10,9,11,24)        -166.8801         estimate D2E/DX2                !
 ! D57   D(12,9,11,24)          74.2397         estimate D2E/DX2                !
 ! D58   D(5,9,12,22)         -166.4772         estimate D2E/DX2                !
 ! D59   D(10,9,12,22)         -44.4744         estimate D2E/DX2                !
 ! D60   D(11,9,12,22)          72.5541         estimate D2E/DX2                !
 --------------------------------------------------------------------------------
 Trust Radius=3.00D-01 FncErr=1.00D-07 GrdErr=1.00D-06 EigMax=2.50D+02 EigMin=1.00D-04
 Number of steps in this run=    148 maximum allowed number of steps=    198.
 GradGradGradGradGradGradGradGradGradGradGradGradGradGradGradGradGradGrad

                          Input orientation:                          
 ---------------------------------------------------------------------
 Center     Atomic      Atomic             Coordinates (Angstroms)
 Number     Number       Type             X           Y           Z
 ---------------------------------------------------------------------
      1         40           0        0.657790   -0.125060   -0.071640
      2          8           0       -0.222850   -0.906240    1.477300
      3          8           0        0.103020    1.747480   -0.122990
      4          8           0       -0.268300   -0.978850   -1.597050
      5          8           0        2.592060   -0.436300   -0.082840
      6         14           0       -1.831190   -1.332440   -1.953600
      7         14           0       -1.115500    2.841720   -0.082790
      8         14           0       -1.723760   -1.152910    2.115170
      9         14           0        4.211620   -0.225910    0.020800
     10          8           0        4.954930   -0.049580   -1.442750
     11          8           0        4.919460   -1.556380    0.710590
     12          8           0        4.408520    1.169820    0.878250
     13          8           0       -2.319240   -2.624000    1.696270
     14          8           0       -2.724220    0.065080    1.550860
     15          8           0       -1.597340   -1.019570    3.744390
     16          8           0       -2.001440   -1.559650   -3.577820
     17          8           0       -2.825090   -0.186760   -1.301450
     18          8           0       -2.344480   -2.714390   -1.182770
     19          8           0       -2.040460    2.439570   -1.430230
     20          8           0       -0.635650    4.400490   -0.299870
     21          8           0       -1.965510    2.760860    1.313830
     22          1           0        5.287470    1.564630    0.871360
     23          1           0        5.322940   -0.853500   -1.826680
     24          1           0        4.488510   -1.936100    1.484380
     25          1           0       -2.405770   -2.809510    0.743920
     26          1           0       -2.381370   -1.224230    4.265350
     27          1           0       -3.060340   -0.083060    0.645890
     28          1           0       -0.527310    4.927280    0.500150
     29          1           0       -2.269090    1.869320    1.585330
     30          1           0       -2.648540    3.126760   -1.730140
     31          1           0       -2.304520   -3.529520   -1.695620
     32          1           0       -1.271140   -1.263050   -4.132230
     33          1           0       -2.610260    0.754610   -1.489930
 ---------------------------------------------------------------------
                    Distance matrix (angstroms):
                    1          2          3          4          5
     1  Zr   0.000000
     2  O    1.945504   0.000000
     3  O    1.953666   3.115983   0.000000
     4  O    1.978251   3.075543   3.121475   0.000000
     5  O    1.959183   3.252476   3.311469   3.281593   0.000000
     6  Si   3.345827   3.813067   4.071635   1.641578   4.885484
     7  Si   3.456366   4.156670   1.638221   4.196128   4.948880
     8  Si   3.392697   1.649380   4.093745   3.991145   4.896027
     9  Si   3.556462   4.716860   4.560212   4.822244   1.636453
    10  O    4.511214   6.005828   5.339684   5.307493   2.753554
    11  O    4.563156   5.239645   5.899868   5.707153   2.702018
    12  O    4.080071   5.110624   4.457971   5.711089   2.608226
    13  O    4.270002   2.719099   5.318542   4.214123   5.663226
    14  O    3.755882   2.684348   3.691278   4.126823   5.584191
    15  O    4.521929   2.653632   5.050190   5.504452   5.704294
    16  O    4.628483   5.398571   5.225104   2.695283   5.880225
    17  O    3.694143   3.874372   3.701875   2.692947   5.558129
    18  O    4.117386   3.853141   5.198238   2.737563   5.546978
    19  O    3.962783   4.790812   2.604299   3.854086   5.616612
    20  O    4.712290   5.611606   2.759598   5.545712   5.818913
    21  O    4.138812   4.063399   2.714813   5.033803   5.739683
    22  H    5.017792   6.069266   5.282110   6.590062   3.489907
    23  H    5.037302   6.455606   6.075790   5.597357   3.266916
    24  H    4.513921   4.822611   5.948523   5.747937   2.881337
    25  H    4.154132   2.987545   5.273682   3.660633   5.594101
    26  H    5.408711   3.540275   5.853271   6.236426   6.653014
    27  H    3.786965   3.069237   3.734823   3.691708   5.710118
    28  H    5.220876   5.922624   3.301022   6.272775   6.232041
    29  H    3.910208   3.450000   2.925766   4.716225   5.632890
    30  H    4.925117   5.695325   3.472237   4.747556   6.547739
    31  H    4.796138   4.613282   6.009671   3.265245   6.012118
    32  H    4.637260   5.717784   5.198616   2.741094   5.657331
    33  H    3.669539   4.154829   3.196280   2.915671   5.519266
                    6          7          8          9         10
     6  Si   0.000000
     7  Si   4.629876   0.000000
     8  Si   4.074145   4.599791   0.000000
     9  Si   6.452768   6.148113   6.361953   0.000000
    10  O    6.925180   6.859973   7.647289   1.650933   0.000000
    11  O    7.260808   7.509559   6.802059   1.657407   2.628417
    12  O    7.294838   5.850952   6.673073   1.649864   2.678160
    13  O    3.902290   5.872660   1.641396   7.156128   8.330344
    14  O    3.877087   3.600906   1.674176   7.108561   8.242827
    15  O    5.711363   5.457933   1.639549   6.945433   8.413058
    16  O    1.648848   5.689656   5.714252   7.302811   7.431683
    17  O    1.650975   3.685040   3.717481   7.159970   7.782512
    18  O    1.663560   5.795749   3.701340   7.115024   7.774972
    19  O    3.813892   1.683113   5.057279   6.949732   7.425059
    20  O    6.085279   1.645340   6.152776   6.708385   7.236289
    21  O    5.239203   1.636949   4.002272   6.982095   7.961771
    22  H    8.188329   6.598438   7.621642   2.255424   2.841014
    23  H    7.171267   7.625570   8.079840   2.245458   0.963909
    24  H    7.219607   7.529178   6.293138   2.267925   3.513488
    25  H    3.128657   5.855309   2.256056   7.140570   8.159574
    26  H    6.244177   6.086107   2.249625   7.904452   9.369285
    27  H    3.135141   3.587160   2.256060   7.300174   8.283000
    28  H    6.848729   2.243958   6.403787   7.017307   7.654995
    29  H    4.792395   2.249212   3.116406   6.988372   8.064609
    30  H    4.538993   2.268308   5.827281   7.833772   8.245270
    31  H    2.262246   6.678899   4.528540   7.504666   8.054411
    32  H    2.250533   5.768130   6.264743   6.955859   6.889830
    33  H    2.275460   2.927521   4.173878   7.055620   7.607959
                   11         12         13         14         15
    11  O    0.000000
    12  O    2.778729   0.000000
    13  O    7.383099   7.766916   0.000000
    14  O    7.858819   7.249057   2.723289   0.000000
    15  O    7.208383   7.005608   2.700024   2.694049   0.000000
    16  O    8.141826   8.270076   5.389792   5.428215   7.353213
    17  O    8.118018   7.675709   3.896453   2.865182   5.259415
    18  O    7.595434   8.058406   2.880569   3.916936   5.263795
    19  O    8.306095   6.966397   5.957555   3.872032   6.240088
    20  O    8.207593   6.104822   7.494165   5.155881   6.830662
    21  O    8.148943   6.584026   5.410000   2.810526   4.509415
    22  H    3.146741   0.963574   8.722794   8.179092   7.895125
    23  H    2.663564   3.499519   8.599347   8.775440   8.885644
    24  H    0.963668   3.165522   6.845697   7.485494   6.556313
    25  H    7.431719   7.892253   0.974101   3.002637   3.586121
    26  H    8.127039   7.956540   2.926327   3.024619   0.963321
    27  H    8.114929   7.576778   2.847614   0.976674   3.552200
    28  H    8.470504   6.214812   7.852614   5.437959   6.858213
    29  H    8.010983   6.751277   4.494969   1.861079   3.668579
    30  H    9.228412   7.774021   6.702236   4.488271   6.947485
    31  H    7.865686   8.589151   3.510712   4.861783   6.032716
    32  H    7.865270   7.955018   6.076357   6.014390   7.887131
    33  H    8.177998   7.419161   4.653125   3.120071   5.618881
                   16         17         18         19         20
    16  O    0.000000
    17  O    2.783000   0.000000
    18  O    2.680926   2.575652   0.000000
    19  O    4.539540   2.744055   5.168846   0.000000
    20  O    6.937839   5.180702   7.370287   2.663909   0.000000
    21  O    6.526587   4.033241   6.029510   2.763822   2.657243
    22  H    9.093104   8.579167   8.987554   7.730549   6.670625
    23  H    7.563840   8.192118   7.916240   8.075961   8.089521
    24  H    8.239359   8.019338   7.376258   8.382654   8.342238
    25  H    4.516976   3.352340   1.930010   5.693261   7.497128
    26  H    7.859527   5.680008   5.648358   6.780802   7.451594
    27  H    4.597968   1.964238   3.283344   3.422586   5.184188
    28  H    7.802766   5.888884   8.033022   3.493521   0.963990
    29  H    6.203837   3.587492   5.355227   3.077509   3.553720
    30  H    5.078888   3.345797   5.874615   0.965369   2.778450
    31  H    2.741336   3.405937   0.963872   5.980819   8.223035
    32  H    0.963680   3.403891   3.458000   4.647801   6.867788
    33  H    3.175806   0.983796   3.492699   1.779698   4.313672
                   21         22         23         24         25
    21  O    0.000000
    22  H    7.364269   0.000000
    23  H    8.720545   3.623262   0.000000
    24  H    7.984040   3.642697   3.582096   0.000000
    25  H    5.616729   8.850722   8.376570   6.988721   0.000000
    26  H    4.976480   8.837874   9.828869   7.445522   3.861888
    27  H    3.119724   8.511854   8.774199   7.818053   2.805637
    28  H    2.724678   6.727323   8.547338   8.557637   7.965297
    29  H    0.980162   7.596327   8.757538   7.756067   4.755849
    30  H    3.141045   8.496370   8.910459   9.322187   6.435776
    31  H    6.981447   9.496213   8.084331   7.667897   2.545589
    32  H    6.806877   8.720496   6.997513   8.072972   5.239825
    33  H    3.507394   8.282872   8.101548   8.153464   4.211277
                   26         27         28         29         30
    26  H    0.000000
    27  H    3.855355   0.000000
    28  H    7.446835   5.616136   0.000000
    29  H    4.094529   2.306602   3.682734   0.000000
    30  H    7.412718   4.014728   3.565906   3.566157   0.000000
    31  H    6.391669   4.234622   8.916129   6.317702   6.665254
    32  H    8.470742   5.236797   7.767394   6.595312   5.190154
    33  H    6.090275   2.337946   5.070530   3.288799   2.384588
                   31         32         33
    31  H    0.000000
    32  H    3.484513   0.000000
    33  H    4.299948   3.584124   0.000000
 Stoichiometry    H12O16Si4Zr
 Framework group  C1[X(H12O16Si4Zr)]
 Deg. of freedom    93
 Full point group                 C1      NOp   1
 Largest Abelian subgroup         C1      NOp   1
 Largest concise Abelian subgroup C1      NOp   1
                         Standard orientation:                         
 ---------------------------------------------------------------------
 Center     Atomic      Atomic             Coordinates (Angstroms)
 Number     Number       Type             X           Y           Z
 ---------------------------------------------------------------------
      1         40           0        0.657171   -0.139398   -0.074881
      2          8           0       -0.228455   -0.912880    1.475079
      3          8           0        0.121873    1.738879   -0.123293
      4          8           0       -0.280848   -0.981966   -1.599242
      5          8           0        2.588061   -0.470794   -0.090295
      6         14           0       -1.848058   -1.318874   -1.952972
      7         14           0       -1.085077    2.845735   -0.079567
      8         14           0       -1.730571   -1.144506    2.115744
      9         14           0        4.209934   -0.277418    0.010273
     10          8           0        4.952097   -0.107404   -1.454606
     11          8           0        4.905236   -1.615885    0.697339
     12          8           0        4.423115    1.115331    0.868676
     13          8           0       -2.342215   -2.608886    1.696623
     14          8           0       -2.719398    0.084416    1.554640
     15          8           0       -1.599488   -1.014107    3.744834
     16          8           0       -2.023938   -1.542685   -3.577064
     17          8           0       -2.828631   -0.163532   -1.297703
     18          8           0       -2.374191   -2.696155   -1.182446
     19          8           0       -2.016894    2.454594   -1.425522
     20          8           0       -0.589422    4.399627   -0.296105
     21          8           0       -1.933072    2.772365    1.318691
     22          1           0        5.306123    1.500954    0.860391
     23          1           0        5.310923   -0.914740   -1.840059
     24          1           0        4.471904   -1.991854    1.471631
     25          1           0       -2.432593   -2.792540    0.744271
     26          1           0       -2.384561   -1.211091    4.267180
     27          1           0       -3.058867   -0.059312    0.650209
     28          1           0       -0.473980    4.924465    0.504205
     29          1           0       -2.245394    1.883773    1.589939
     30          1           0       -2.618371    3.148389   -1.723535
     31          1           0       -2.343773   -3.511150   -1.696166
     32          1           0       -1.291699   -1.253173   -4.132662
     33          1           0       -2.604368    0.775732   -1.485704
 ---------------------------------------------------------------------
 Rotational constants (GHZ):           0.2125803           0.1339661           0.1242316
 General basis read from cards:  (5D, 7F)
 ======================================================================================================
                                       Pseudopotential Parameters
 ======================================================================================================
  Center     Atomic      Valence      Angular      Power
  Number     Number     Electrons     Momentum     of R      Exponent        Coefficient   SO-Coeffient
 ======================================================================================================
    1         40           12
                                      G and up 
                                                     2        1.0000000        0.00000000    0.00000000
                                      S - G
                                                     2        8.6365280      150.24299400    0.00000000
                                                     2        3.7176390       18.78003600    0.00000000
                                      P - G
                                                     2        7.6267280       33.19279100    0.00000000
                                                     2        7.4532070       66.38903900    0.00000000
                                                     2        3.3583890        4.62072600    0.00000000
                                                     2        3.2297380        9.26027000    0.00000000
                                      D - G
                                                     2        5.9380860       13.99338300    0.00000000
                                                     2        5.8255440       20.99588200    0.00000000
                                                     2        2.2050190        2.28516600    0.00000000
                                                     2        2.2062920        3.44126000    0.00000000
                                      F - G
                                                     2        4.8002150       -5.23932000    0.00000000
                                                     2        4.7989920       -6.98742400    0.00000000
    2          8
                                   No pseudopotential on this center.
    3          8
                                   No pseudopotential on this center.
    4          8
                                   No pseudopotential on this center.
    5          8
                                   No pseudopotential on this center.
    6         14
                                   No pseudopotential on this center.
    7         14
                                   No pseudopotential on this center.
    8         14
                                   No pseudopotential on this center.
    9         14
                                   No pseudopotential on this center.
   10          8
                                   No pseudopotential on this center.
   11          8
                                   No pseudopotential on this center.
   12          8
                                   No pseudopotential on this center.
   13          8
                                   No pseudopotential on this center.
   14          8
                                   No pseudopotential on this center.
   15          8
                                   No pseudopotential on this center.
   16          8
                                   No pseudopotential on this center.
   17          8
                                   No pseudopotential on this center.
   18          8
                                   No pseudopotential on this center.
   19          8
                                   No pseudopotential on this center.
   20          8
                                   No pseudopotential on this center.
   21          8
                                   No pseudopotential on this center.
   22          1
                                   No pseudopotential on this center.
   23          1
                                   No pseudopotential on this center.
   24          1
                                   No pseudopotential on this center.
   25          1
                                   No pseudopotential on this center.
   26          1
                                   No pseudopotential on this center.
   27          1
                                   No pseudopotential on this center.
   28          1
                                   No pseudopotential on this center.
   29          1
                                   No pseudopotential on this center.
   30          1
                                   No pseudopotential on this center.
   31          1
                                   No pseudopotential on this center.
   32          1
                                   No pseudopotential on this center.
   33          1
                                   No pseudopotential on this center.
 ======================================================================================================
 There are   570 symmetry adapted cartesian basis functions of A   symmetry.
 There are   524 symmetry adapted basis functions of A   symmetry.
   524 basis functions,  1074 primitive gaussians,   570 cartesian basis functions
   104 alpha electrons      104 beta electrons
       nuclear repulsion energy      2833.6115996585 Hartrees.
 NAtoms=   33 NActive=   33 NUniq=   33 SFac= 1.00D+00 NAtFMM=   60 NAOKFM=F Big=F
 Integral buffers will be    131072 words long.
 Raffenetti 2 integral format.
 Two-electron integral symmetry is turned on.
 Nuclear repulsion after empirical dispersion term =     2833.5707845702 Hartrees.
 One-electron integrals computed using PRISM.
 PrsmSu:  requested number of processors reduced to:   4 ShMem   1 Linda.
   1 Symmetry operations used in ECPInt.
 ECPInt:  NShTT=   13203 NPrTT=   78401 LenC2=   11524 LenP2D=   44651.
 LDataN:  DoStor=T MaxTD1= 8 Len=  415
 Number of processors reduced to  13 by ecpmxn.
 NBasis=   524 RedAO= T EigKep=  3.15D-05  NBF=   524
 NBsUse=   524 1.00D-06 EigRej= -1.00D+00 NBFU=   524
 Defaulting to unpruned grid for atomic number  40.
 ExpMin= 1.01D-02 ExpMax= 1.61D+04 ExpMxC= 2.43D+03 IAcc=3 IRadAn=         5 AccDes= 0.00D+00
 Harris functional with IExCor=  402 and IRadAn=       5 diagonalized for initial guess.
 HarFok:  IExCor=  402 AccDes= 0.00D+00 IRadAn=         5 IDoV= 1 UseB2=F ITyADJ=14
 ICtDFT=  3500011 ScaDFX=  1.000000  1.000000  1.000000  1.000000
 Defaulting to unpruned grid for atomic number  40.
 FoFCou: FMM=F IPFlag=           0 FMFlag=      100000 FMFlg1=           0
         NFxFlg=           0 DoJE=T BraDBF=F KetDBF=T FulRan=T
         wScrn=  0.000000 ICntrl=       500 IOpCl=  0 I1Cent=   200000004 NGrid=           0
         NMat0=    1 NMatS0=      1 NMatT0=    0 NMatD0=    1 NMtDS0=    0 NMtDT0=    0
 Petite list used in FoFCou.
 Requested convergence on RMS density matrix=1.00D-08 within 128 cycles.
 Requested convergence on MAX density matrix=1.00D-06.
 Requested convergence on             energy=1.00D-06.
 No special actions if energy rises.
 Defaulting to unpruned grid for atomic number  40.
 Defaulting to unpruned grid for atomic number  40.
 Defaulting to unpruned grid for atomic number  40.
 Defaulting to unpruned grid for atomic number  40.
 Defaulting to unpruned grid for atomic number  40.
 Defaulting to unpruned grid for atomic number  40.
 Defaulting to unpruned grid for atomic number  40.
 Defaulting to unpruned grid for atomic number  40.
 Defaulting to unpruned grid for atomic number  40.
 Defaulting to unpruned grid for atomic number  40.
 Defaulting to unpruned grid for atomic number  40.
 Defaulting to unpruned grid for atomic number  40.
 Defaulting to unpruned grid for atomic number  40.
 Defaulting to unpruned grid for atomic number  40.
 Defaulting to unpruned grid for atomic number  40.
 Defaulting to unpruned grid for atomic number  40.
 SCF Done:  E(RB3LYP) =  -2416.94685707     A.U. after   14 cycles
            NFock= 14  Conv=0.26D-08     -V/T= 2.0185

 **********************************************************************

            Population analysis using the SCF Density.

 **********************************************************************

 Orbital symmetries:
       Occupied  (A) (A) (A) (A) (A) (A) (A) (A) (A) (A) (A) (A)
                 (A) (A) (A) (A) (A) (A) (A) (A) (A) (A) (A) (A)
                 (A) (A) (A) (A) (A) (A) (A) (A) (A) (A) (A) (A)
                 (A) (A) (A) (A) (A) (A) (A) (A) (A) (A) (A) (A)
                 (A) (A) (A) (A) (A) (A) (A) (A) (A) (A) (A) (A)
                 (A) (A) (A) (A) (A) (A) (A) (A) (A) (A) (A) (A)
                 (A) (A) (A) (A) (A) (A) (A) (A) (A) (A) (A) (A)
                 (A) (A) (A) (A) (A) (A) (A) (A) (A) (A) (A) (A)
                 (A) (A) (A) (A) (A) (A) (A) (A)
       Virtual   (A) (A) (A) (A) (A) (A) (A) (A) (A) (A) (A) (A)
                 (A) (A) (A) (A) (A) (A) (A) (A) (A) (A) (A) (A)
                 (A) (A) (A) (A) (A) (A) (A) (A) (A) (A) (A) (A)
                 (A) (A) (A) (A) (A) (A) (A) (A) (A) (A) (A) (A)
                 (A) (A) (A) (A) (A) (A) (A) (A) (A) (A) (A) (A)
                 (A) (A) (A) (A) (A) (A) (A) (A) (A) (A) (A) (A)
                 (A) (A) (A) (A) (A) (A) (A) (A) (A) (A) (A) (A)
                 (A) (A) (A) (A) (A) (A) (A) (A) (A) (A) (A) (A)
                 (A) (A) (A) (A) (A) (A) (A) (A) (A) (A) (A) (A)
                 (A) (A) (A) (A) (A) (A) (A) (A) (A) (A) (A) (A)
                 (A) (A) (A) (A) (A) (A) (A) (A) (A) (A) (A) (A)
                 (A) (A) (A) (A) (A) (A) (A) (A) (A) (A) (A) (A)
                 (A) (A) (A) (A) (A) (A) (A) (A) (A) (A) (A) (A)
                 (A) (A) (A) (A) (A) (A) (A) (A) (A) (A) (A) (A)
                 (A) (A) (A) (A) (A) (A) (A) (A) (A) (A) (A) (A)
                 (A) (A) (A) (A) (A) (A) (A) (A) (A) (A) (A) (A)
                 (A) (A) (A) (A) (A) (A) (A) (A) (A) (A) (A) (A)
                 (A) (A) (A) (A) (A) (A) (A) (A) (A) (A) (A) (A)
                 (A) (A) (A) (A) (A) (A) (A) (A) (A) (A) (A) (A)
                 (A) (A) (A) (A) (A) (A) (A) (A) (A) (A) (A) (A)
                 (A) (A) (A) (A) (A) (A) (A) (A) (A) (A) (A) (A)
                 (A) (A) (A) (A) (A) (A) (A) (A) (A) (A) (A) (A)
                 (A) (A) (A) (A) (A) (A) (A) (A) (A) (A) (A) (A)
                 (A) (A) (A) (A) (A) (A) (A) (A) (A) (A) (A) (A)
                 (A) (A) (A) (A) (A) (A) (A) (A) (A) (A) (A) (A)
                 (A) (A) (A) (A) (A) (A) (A) (A) (A) (A) (A) (A)
                 (A) (A) (A) (A) (A) (A) (A) (A) (A) (A) (A) (A)
                 (A) (A) (A) (A) (A) (A) (A) (A) (A) (A) (A) (A)
                 (A) (A) (A) (A) (A) (A) (A) (A) (A) (A) (A) (A)
                 (A) (A) (A) (A) (A) (A) (A) (A) (A) (A) (A) (A)
                 (A) (A) (A) (A) (A) (A) (A) (A) (A) (A) (A) (A)
                 (A) (A) (A) (A) (A) (A) (A) (A) (A) (A) (A) (A)
                 (A) (A) (A) (A) (A) (A) (A) (A) (A) (A) (A) (A)
                 (A) (A) (A) (A) (A) (A) (A) (A) (A) (A) (A) (A)
                 (A) (A) (A) (A) (A) (A) (A) (A) (A) (A) (A) (A)
 The electronic state is 1-A.
 Alpha  occ. eigenvalues --  -66.22798 -66.21749 -66.21493 -66.21030 -19.18583
 Alpha  occ. eigenvalues --  -19.18346 -19.17782 -19.17020 -19.16728 -19.16536
 Alpha  occ. eigenvalues --  -19.16443 -19.16238 -19.16178 -19.16004 -19.15991
 Alpha  occ. eigenvalues --  -19.15496 -19.15337 -19.15244 -19.14890 -19.14700
 Alpha  occ. eigenvalues --   -5.36858  -5.35830  -5.35569  -5.35090  -3.72842
 Alpha  occ. eigenvalues --   -3.72815  -3.72769  -3.71822  -3.71775  -3.71740
 Alpha  occ. eigenvalues --   -3.71538  -3.71530  -3.71490  -3.71055  -3.71046
 Alpha  occ. eigenvalues --   -3.71021  -2.13354  -1.29599  -1.29513  -1.29356
 Alpha  occ. eigenvalues --   -1.05674  -1.04770  -1.04157  -1.03490  -1.02559
 Alpha  occ. eigenvalues --   -1.02164  -1.01466  -1.00929  -1.00766  -1.00659
 Alpha  occ. eigenvalues --   -0.99826  -0.99299  -0.97368  -0.96275  -0.95722
 Alpha  occ. eigenvalues --   -0.95398  -0.60984  -0.59155  -0.58977  -0.58483
 Alpha  occ. eigenvalues --   -0.55535  -0.54526  -0.53871  -0.53035  -0.52997
 Alpha  occ. eigenvalues --   -0.52486  -0.52141  -0.51702  -0.48771  -0.47597
 Alpha  occ. eigenvalues --   -0.47196  -0.46710  -0.43370  -0.42645  -0.41855
 Alpha  occ. eigenvalues --   -0.41391  -0.41116  -0.40517  -0.39826  -0.39325
 Alpha  occ. eigenvalues --   -0.38804  -0.38673  -0.38651  -0.38140  -0.38011
 Alpha  occ. eigenvalues --   -0.37622  -0.37480  -0.37178  -0.36536  -0.36407
 Alpha  occ. eigenvalues --   -0.36088  -0.35629  -0.35466  -0.35087  -0.34904
 Alpha  occ. eigenvalues --   -0.34600  -0.33995  -0.33695  -0.33475  -0.33256
 Alpha  occ. eigenvalues --   -0.32812  -0.32183  -0.32048  -0.31295
 Alpha virt. eigenvalues --   -0.04321  -0.03150  -0.03032  -0.02755  -0.02087
 Alpha virt. eigenvalues --   -0.01166  -0.00547  -0.00122   0.00132   0.00280
 Alpha virt. eigenvalues --    0.00772   0.00931   0.01033   0.01956   0.02347
 Alpha virt. eigenvalues --    0.03227   0.03335   0.03854   0.03953   0.04069
 Alpha virt. eigenvalues --    0.04145   0.04733   0.05574   0.05852   0.06190
 Alpha virt. eigenvalues --    0.06485   0.07086   0.07454   0.07715   0.08665
 Alpha virt. eigenvalues --    0.08799   0.09057   0.09191   0.09695   0.09964
 Alpha virt. eigenvalues --    0.10374   0.10670   0.10846   0.11260   0.11696
 Alpha virt. eigenvalues --    0.11807   0.12564   0.13285   0.13329   0.13623
 Alpha virt. eigenvalues --    0.14052   0.14417   0.14896   0.15079   0.15286
 Alpha virt. eigenvalues --    0.15355   0.15748   0.16183   0.16706   0.16955
 Alpha virt. eigenvalues --    0.17385   0.17516   0.17696   0.18132   0.18395
 Alpha virt. eigenvalues --    0.18505   0.18775   0.19226   0.19685   0.19765
 Alpha virt. eigenvalues --    0.20115   0.20324   0.20660   0.20965   0.21202
 Alpha virt. eigenvalues --    0.21755   0.21962   0.22301   0.22458   0.22773
 Alpha virt. eigenvalues --    0.23369   0.23769   0.24049   0.24172   0.24502
 Alpha virt. eigenvalues --    0.24886   0.25102   0.25602   0.25855   0.26168
 Alpha virt. eigenvalues --    0.26585   0.26681   0.26904   0.27231   0.27436
 Alpha virt. eigenvalues --    0.27960   0.28266   0.28544   0.28840   0.29029
 Alpha virt. eigenvalues --    0.29473   0.29723   0.30068   0.30410   0.30681
 Alpha virt. eigenvalues --    0.30841   0.31366   0.31519   0.31590   0.32154
 Alpha virt. eigenvalues --    0.32315   0.32828   0.33070   0.33567   0.34030
 Alpha virt. eigenvalues --    0.34520   0.34637   0.35324   0.35734   0.36263
 Alpha virt. eigenvalues --    0.37010   0.37549   0.38073   0.38503   0.38774
 Alpha virt. eigenvalues --    0.39357   0.39941   0.40019   0.41119   0.41597
 Alpha virt. eigenvalues --    0.42700   0.43141   0.43914   0.44349   0.44960
 Alpha virt. eigenvalues --    0.45289   0.45608   0.45984   0.46615   0.47460
 Alpha virt. eigenvalues --    0.47915   0.48561   0.48883   0.49420   0.49558
 Alpha virt. eigenvalues --    0.50094   0.50877   0.51077   0.51354   0.53226
 Alpha virt. eigenvalues --    0.54131   0.54469   0.55150   0.56796   0.57304
 Alpha virt. eigenvalues --    0.58271   0.58653   0.59029   0.59352   0.60411
 Alpha virt. eigenvalues --    0.61187   0.61692   0.62127   0.64163   0.65893
 Alpha virt. eigenvalues --    0.66889   0.67931   0.68472   0.68773   0.69509
 Alpha virt. eigenvalues --    0.70054   0.70424   0.73001   0.74409   0.75117
 Alpha virt. eigenvalues --    0.75478   0.77394   0.78578   0.79039   0.80315
 Alpha virt. eigenvalues --    0.81187   0.81501   0.82567   0.84144   0.85404
 Alpha virt. eigenvalues --    0.86680   0.87649   0.89825   0.90662   0.91187
 Alpha virt. eigenvalues --    0.94433   0.95725   0.96254   0.96899   0.97497
 Alpha virt. eigenvalues --    0.98099   0.98779   0.99276   0.99789   1.00390
 Alpha virt. eigenvalues --    1.00699   1.01473   1.02066   1.03276   1.04052
 Alpha virt. eigenvalues --    1.04300   1.05569   1.06395   1.06696   1.07949
 Alpha virt. eigenvalues --    1.09761   1.12301   1.15234   1.16201   1.16473
 Alpha virt. eigenvalues --    1.18734   1.19082   1.19849   1.20602   1.21030
 Alpha virt. eigenvalues --    1.21339   1.21795   1.22394   1.22872   1.22984
 Alpha virt. eigenvalues --    1.23488   1.23966   1.24318   1.25234   1.25717
 Alpha virt. eigenvalues --    1.26042   1.27155   1.27541   1.28138   1.28510
 Alpha virt. eigenvalues --    1.29001   1.29834   1.30122   1.30904   1.31448
 Alpha virt. eigenvalues --    1.32492   1.32643   1.33051   1.33408   1.34450
 Alpha virt. eigenvalues --    1.35282   1.36065   1.36505   1.36895   1.37813
 Alpha virt. eigenvalues --    1.39160   1.39742   1.40235   1.41220   1.41501
 Alpha virt. eigenvalues --    1.42792   1.43761   1.44260   1.45271   1.46338
 Alpha virt. eigenvalues --    1.47019   1.48822   1.51200   1.51350   1.52686
 Alpha virt. eigenvalues --    1.56736   1.57260   1.57759   1.59269   1.59829
 Alpha virt. eigenvalues --    1.60046   1.61242   1.61936   1.62464   1.63041
 Alpha virt. eigenvalues --    1.63224   1.63831   1.65253   1.65414   1.66586
 Alpha virt. eigenvalues --    1.67249   1.67999   1.69304   1.69512   1.70133
 Alpha virt. eigenvalues --    1.71348   1.71542   1.71615   1.72666   1.73271
 Alpha virt. eigenvalues --    1.74078   1.74914   1.75654   1.76161   1.76758
 Alpha virt. eigenvalues --    1.77239   1.77389   1.78437   1.78737   1.79642
 Alpha virt. eigenvalues --    1.80553   1.81367   1.82218   1.82458   1.83124
 Alpha virt. eigenvalues --    1.83358   1.84722   1.85124   1.85931   1.86584
 Alpha virt. eigenvalues --    1.87187   1.88077   1.88608   1.89843   1.90460
 Alpha virt. eigenvalues --    1.91246   1.91418   1.92557   1.92824   1.93961
 Alpha virt. eigenvalues --    1.94759   1.94878   1.95810   1.97289   1.98352
 Alpha virt. eigenvalues --    1.99073   2.00519   2.01209   2.02743   2.03663
 Alpha virt. eigenvalues --    2.05900   2.06549   2.07805   2.09789   2.10422
 Alpha virt. eigenvalues --    2.11196   2.13038   2.14343   2.16128   2.16374
 Alpha virt. eigenvalues --    2.17786   2.18841   2.19212   2.20937   2.26102
 Alpha virt. eigenvalues --    2.32627   2.33451   2.35471   2.39479   2.40433
 Alpha virt. eigenvalues --    2.41164   2.41381   2.41715   2.42736   2.43759
 Alpha virt. eigenvalues --    2.44021   2.45640   2.46698   2.47630   2.49044
 Alpha virt. eigenvalues --    2.50206   2.50314   2.51680   2.52688   2.53366
 Alpha virt. eigenvalues --    2.55440   2.58375   2.59325   2.60080   2.60702
 Alpha virt. eigenvalues --    2.61138   2.61768   2.62072   2.62463   2.62800
 Alpha virt. eigenvalues --    2.63161   2.64044   2.64641   2.64996   2.65969
 Alpha virt. eigenvalues --    2.66337   2.66649   2.67361   2.67570   2.69385
 Alpha virt. eigenvalues --    2.69935   2.70329   2.71225   2.71672   2.72454
 Alpha virt. eigenvalues --    2.72992   2.74388   2.75568   2.76779   2.77498
 Alpha virt. eigenvalues --    2.78943   2.80548   2.81496   2.82471   2.83482
 Alpha virt. eigenvalues --    2.83744   2.84701   2.86682   2.87802   2.88142
 Alpha virt. eigenvalues --    3.14842   3.20432   3.35836   3.41085   3.46729
 Alpha virt. eigenvalues --    3.47847   3.48608   3.48682   3.51089   3.51105
 Alpha virt. eigenvalues --    3.52811   3.54159   3.60314   3.61082   3.62061
 Alpha virt. eigenvalues --    3.66203   4.33459   4.60045   7.88057  31.28658
          Condensed to atoms (all electrons):
               1          2          3          4          5          6
     1  Zr  15.133511  -0.130325  -0.000235  -0.142205  -0.190974  -0.601063
     2  O   -0.130325   9.063695   0.019000  -0.042381  -0.056790   0.089333
     3  O   -0.000235   0.019000   8.824334   0.015309  -0.043636  -0.004783
     4  O   -0.142205  -0.042381   0.015309   8.809197  -0.060883  -0.670164
     5  O   -0.190974  -0.056790  -0.043636  -0.060883   9.418220  -0.006132
     6  Si  -0.601063   0.089333  -0.004783  -0.670164  -0.006132  13.979918
     7  Si  -0.620635  -0.027695  -0.873758  -0.006564  -0.033136   0.085669
     8  Si  -0.592997  -0.995190  -0.021248   0.073288  -0.013089  -0.018135
     9  Si  -0.332028  -0.039180  -0.022546  -0.031505  -1.228717   0.040178
    10  O   -0.015270   0.000977  -0.002220   0.000868   0.128791  -0.002481
    11  O   -0.067703   0.003429   0.002993   0.001245   0.314872  -0.000760
    12  O    0.043844  -0.000063   0.004795   0.002067   0.154755  -0.003028
    13  O   -0.036110   0.186950   0.001629  -0.015499  -0.000721   0.034933
    14  O   -0.020281   0.262485  -0.017886  -0.008965   0.001739   0.029871
    15  O   -0.083477   0.292332  -0.000676   0.001226   0.000583   0.000041
    16  O   -0.124132   0.004684  -0.000486   0.344716   0.003191  -0.424325
    17  O   -0.086900  -0.039710   0.007794   0.217852   0.001211  -0.448602
    18  O   -0.028762  -0.014458   0.003709   0.198922  -0.000651  -0.450186
    19  O    0.000950   0.008994   0.265507   0.010402   0.002107  -0.007814
    20  O   -0.145191  -0.000580   0.162180  -0.000858   0.001395   0.009057
    21  O    0.036679   0.010348   0.147124   0.003444   0.000242  -0.012292
    22  H   -0.009366  -0.000018  -0.000010  -0.000009   0.005642   0.000092
    23  H   -0.007455  -0.000013  -0.000006  -0.000056  -0.025228   0.000087
    24  H   -0.005308  -0.000181  -0.000010   0.000003  -0.005233   0.000067
    25  H    0.016898  -0.020017  -0.000110  -0.000334   0.000020   0.002739
    26  H    0.007460   0.000619   0.000014  -0.000011  -0.000003  -0.000166
    27  H    0.005475  -0.019223   0.000864  -0.001700   0.000013   0.008428
    28  H    0.005022  -0.000011  -0.018344  -0.000014  -0.000015  -0.000285
    29  H    0.004107  -0.007062  -0.020255  -0.000138  -0.000071   0.000115
    30  H    0.000729  -0.000012   0.000071  -0.000455  -0.000008  -0.000676
    31  H    0.000035   0.000172  -0.000020  -0.018431  -0.000009   0.063670
    32  H    0.002100  -0.000024   0.000040   0.010472   0.000001   0.022761
    33  H   -0.016171   0.001022  -0.010119  -0.009645  -0.000099   0.053451
               7          8          9         10         11         12
     1  Zr  -0.620635  -0.592997  -0.332028  -0.015270  -0.067703   0.043844
     2  O   -0.027695  -0.995190  -0.039180   0.000977   0.003429  -0.000063
     3  O   -0.873758  -0.021248  -0.022546  -0.002220   0.002993   0.004795
     4  O   -0.006564   0.073288  -0.031505   0.000868   0.001245   0.002067
     5  O   -0.033136  -0.013089  -1.228717   0.128791   0.314872   0.154755
     6  Si   0.085669  -0.018135   0.040178  -0.002481  -0.000760  -0.003028
     7  Si  13.793913   0.183152   0.020609  -0.000183  -0.000798   0.004099
     8  Si   0.183152  13.798561   0.026880  -0.000995   0.001254  -0.000854
     9  Si   0.020609   0.026880  14.254752  -0.063953  -0.182336  -0.218931
    10  O   -0.000183  -0.000995  -0.063953   8.525407   0.012446   0.032789
    11  O   -0.000798   0.001254  -0.182336   0.012446   8.522819  -0.050990
    12  O    0.004099  -0.000854  -0.218931   0.032789  -0.050990   8.603691
    13  O    0.007271  -0.095495   0.000193   0.000000   0.000018   0.000009
    14  O    0.010325  -0.365540  -0.001431  -0.000002   0.000002   0.000020
    15  O   -0.002541  -0.304336  -0.000581   0.000000  -0.000024  -0.000018
    16  O    0.003753  -0.010324  -0.001065   0.000006  -0.000003  -0.000001
    17  O    0.000208   0.098025   0.002698  -0.000001   0.000002  -0.000006
    18  O   -0.000744   0.075048   0.004191  -0.000002  -0.000001  -0.000001
    19  O   -0.409515  -0.016261   0.001042   0.000007  -0.000002  -0.000022
    20  O   -0.106764   0.009683   0.003231   0.000003  -0.000003  -0.000029
    21  O    0.023243  -0.040691  -0.001910   0.000001   0.000001   0.000026
    22  H   -0.000196   0.000095   0.047841  -0.006408  -0.005081   0.219581
    23  H    0.000059   0.000061   0.080536   0.228697  -0.006036   0.005857
    24  H    0.000055  -0.000089   0.037455   0.007416   0.241986  -0.007400
    25  H   -0.000455   0.057422  -0.000206   0.000000  -0.000000  -0.000000
    26  H   -0.000386   0.045965  -0.000046  -0.000000   0.000000  -0.000000
    27  H    0.001159   0.067977  -0.000018   0.000000  -0.000000  -0.000000
    28  H    0.056543  -0.000066  -0.000137  -0.000000  -0.000000  -0.000004
    29  H    0.048186   0.021939  -0.000061   0.000000   0.000000  -0.000001
    30  H    0.040326   0.000118   0.000023  -0.000000  -0.000000   0.000000
    31  H    0.000154  -0.002018  -0.000052   0.000000  -0.000000   0.000000
    32  H   -0.000667   0.000055   0.000002  -0.000000   0.000000  -0.000000
    33  H    0.020645   0.000121   0.000080  -0.000000   0.000000   0.000000
              13         14         15         16         17         18
     1  Zr  -0.036110  -0.020281  -0.083477  -0.124132  -0.086900  -0.028762
     2  O    0.186950   0.262485   0.292332   0.004684  -0.039710  -0.014458
     3  O    0.001629  -0.017886  -0.000676  -0.000486   0.007794   0.003709
     4  O   -0.015499  -0.008965   0.001226   0.344716   0.217852   0.198922
     5  O   -0.000721   0.001739   0.000583   0.003191   0.001211  -0.000651
     6  Si   0.034933   0.029871   0.000041  -0.424325  -0.448602  -0.450186
     7  Si   0.007271   0.010325  -0.002541   0.003753   0.000208  -0.000744
     8  Si  -0.095495  -0.365540  -0.304336  -0.010324   0.098025   0.075048
     9  Si   0.000193  -0.001431  -0.000581  -0.001065   0.002698   0.004191
    10  O    0.000000  -0.000002   0.000000   0.000006  -0.000001  -0.000002
    11  O    0.000018   0.000002  -0.000024  -0.000003   0.000002  -0.000001
    12  O    0.000009   0.000020  -0.000018  -0.000001  -0.000006  -0.000001
    13  O    8.628516   0.087043  -0.090834   0.003732  -0.030904  -0.045546
    14  O    0.087043   8.674288   0.055487   0.003648  -0.035833  -0.026905
    15  O   -0.090834   0.055487   8.776975  -0.000174   0.003610   0.001670
    16  O    0.003732   0.003648  -0.000174   8.902235  -0.091705  -0.114899
    17  O   -0.030904  -0.035833   0.003610  -0.091705   8.935313   0.227456
    18  O   -0.045546  -0.026905   0.001670  -0.114899   0.227456   9.013115
    19  O    0.000186  -0.000417   0.000140  -0.001534  -0.029943   0.000169
    20  O    0.000008  -0.000277   0.000038   0.000064  -0.001004   0.000015
    21  O   -0.000250   0.016142  -0.000604  -0.000212  -0.005597   0.000475
    22  H   -0.000000  -0.000000   0.000000   0.000000   0.000000  -0.000000
    23  H    0.000000   0.000000  -0.000000  -0.000000   0.000000  -0.000000
    24  H   -0.000000   0.000000   0.000002   0.000000  -0.000000  -0.000000
    25  H    0.218353  -0.011936   0.008921  -0.000054   0.000629   0.014892
    26  H   -0.005144  -0.010089   0.217027   0.000000  -0.000003   0.000006
    27  H   -0.009738   0.219207   0.004621   0.000187   0.017854  -0.000261
    28  H   -0.000000  -0.000006  -0.000001  -0.000000   0.000004  -0.000000
    29  H    0.000795   0.017593  -0.002570  -0.000004  -0.000392   0.000006
    30  H    0.000001   0.000002   0.000000   0.000116  -0.000388  -0.000008
    31  H    0.002355   0.000167  -0.000018   0.003780  -0.000747   0.218096
    32  H   -0.000008  -0.000006   0.000000   0.233458  -0.003633   0.003882
    33  H    0.000232   0.002096  -0.000035  -0.000125   0.230986   0.002104
              19         20         21         22         23         24
     1  Zr   0.000950  -0.145191   0.036679  -0.009366  -0.007455  -0.005308
     2  O    0.008994  -0.000580   0.010348  -0.000018  -0.000013  -0.000181
     3  O    0.265507   0.162180   0.147124  -0.000010  -0.000006  -0.000010
     4  O    0.010402  -0.000858   0.003444  -0.000009  -0.000056   0.000003
     5  O    0.002107   0.001395   0.000242   0.005642  -0.025228  -0.005233
     6  Si  -0.007814   0.009057  -0.012292   0.000092   0.000087   0.000067
     7  Si  -0.409515  -0.106764   0.023243  -0.000196   0.000059   0.000055
     8  Si  -0.016261   0.009683  -0.040691   0.000095   0.000061  -0.000089
     9  Si   0.001042   0.003231  -0.001910   0.047841   0.080536   0.037455
    10  O    0.000007   0.000003   0.000001  -0.006408   0.228697   0.007416
    11  O   -0.000002  -0.000003   0.000001  -0.005081  -0.006036   0.241986
    12  O   -0.000022  -0.000029   0.000026   0.219581   0.005857  -0.007400
    13  O    0.000186   0.000008  -0.000250  -0.000000   0.000000  -0.000000
    14  O   -0.000417  -0.000277   0.016142  -0.000000   0.000000   0.000000
    15  O    0.000140   0.000038  -0.000604   0.000000  -0.000000   0.000002
    16  O   -0.001534   0.000064  -0.000212   0.000000  -0.000000   0.000000
    17  O   -0.029943  -0.001004  -0.005597   0.000000   0.000000  -0.000000
    18  O    0.000169   0.000015   0.000475  -0.000000  -0.000000  -0.000000
    19  O    8.873278   0.032008   0.023773  -0.000000   0.000000  -0.000000
    20  O    0.032008   8.656181  -0.050497   0.000000   0.000000  -0.000000
    21  O    0.023773  -0.050497   8.486177  -0.000000   0.000000   0.000000
    22  H   -0.000000   0.000000  -0.000000   0.361151   0.000056   0.000122
    23  H    0.000000   0.000000   0.000000   0.000056   0.351004   0.000014
    24  H   -0.000000  -0.000000   0.000000   0.000122   0.000014   0.365215
    25  H   -0.000024   0.000000  -0.000019   0.000000   0.000000   0.000000
    26  H    0.000001  -0.000000   0.000039  -0.000000  -0.000000  -0.000000
    27  H    0.000023   0.000193  -0.004030  -0.000000  -0.000000   0.000000
    28  H    0.004620   0.229591  -0.002050  -0.000000   0.000000  -0.000000
    29  H   -0.008567   0.007673   0.206489   0.000000   0.000000  -0.000000
    30  H    0.224159  -0.001480  -0.007158   0.000000  -0.000000  -0.000000
    31  H    0.000004  -0.000000  -0.000000  -0.000000  -0.000000   0.000000
    32  H    0.000096   0.000000   0.000001  -0.000000  -0.000000  -0.000000
    33  H    0.014803  -0.000076   0.001466  -0.000000  -0.000000  -0.000000
              25         26         27         28         29         30
     1  Zr   0.016898   0.007460   0.005475   0.005022   0.004107   0.000729
     2  O   -0.020017   0.000619  -0.019223  -0.000011  -0.007062  -0.000012
     3  O   -0.000110   0.000014   0.000864  -0.018344  -0.020255   0.000071
     4  O   -0.000334  -0.000011  -0.001700  -0.000014  -0.000138  -0.000455
     5  O    0.000020  -0.000003   0.000013  -0.000015  -0.000071  -0.000008
     6  Si   0.002739  -0.000166   0.008428  -0.000285   0.000115  -0.000676
     7  Si  -0.000455  -0.000386   0.001159   0.056543   0.048186   0.040326
     8  Si   0.057422   0.045965   0.067977  -0.000066   0.021939   0.000118
     9  Si  -0.000206  -0.000046  -0.000018  -0.000137  -0.000061   0.000023
    10  O    0.000000  -0.000000   0.000000  -0.000000   0.000000  -0.000000
    11  O   -0.000000   0.000000  -0.000000  -0.000000   0.000000  -0.000000
    12  O   -0.000000  -0.000000  -0.000000  -0.000004  -0.000001   0.000000
    13  O    0.218353  -0.005144  -0.009738  -0.000000   0.000795   0.000001
    14  O   -0.011936  -0.010089   0.219207  -0.000006   0.017593   0.000002
    15  O    0.008921   0.217027   0.004621  -0.000001  -0.002570   0.000000
    16  O   -0.000054   0.000000   0.000187  -0.000000  -0.000004   0.000116
    17  O    0.000629  -0.000003   0.017854   0.000004  -0.000392  -0.000388
    18  O    0.014892   0.000006  -0.000261  -0.000000   0.000006  -0.000008
    19  O   -0.000024   0.000001   0.000023   0.004620  -0.008567   0.224159
    20  O    0.000000  -0.000000   0.000193   0.229591   0.007673  -0.001480
    21  O   -0.000019   0.000039  -0.004030  -0.002050   0.206489  -0.007158
    22  H    0.000000  -0.000000  -0.000000  -0.000000   0.000000   0.000000
    23  H    0.000000  -0.000000  -0.000000   0.000000   0.000000  -0.000000
    24  H    0.000000  -0.000000   0.000000  -0.000000  -0.000000  -0.000000
    25  H    0.298917  -0.000012   0.000111   0.000000   0.000001   0.000000
    26  H   -0.000012   0.366052   0.000036   0.000000   0.000021  -0.000000
    27  H    0.000111   0.000036   0.283405  -0.000000  -0.001495   0.000009
    28  H    0.000000   0.000000  -0.000000   0.349226  -0.000017  -0.000016
    29  H    0.000001   0.000021  -0.001495  -0.000017   0.285917   0.000155
    30  H    0.000000  -0.000000   0.000009  -0.000016   0.000155   0.334279
    31  H   -0.000490   0.000000   0.000013  -0.000000   0.000000  -0.000000
    32  H   -0.000001   0.000000  -0.000000   0.000000  -0.000000  -0.000000
    33  H    0.000005  -0.000000  -0.002405  -0.000002   0.000101  -0.001157
              31         32         33
     1  Zr   0.000035   0.002100  -0.016171
     2  O    0.000172  -0.000024   0.001022
     3  O   -0.000020   0.000040  -0.010119
     4  O   -0.018431   0.010472  -0.009645
     5  O   -0.000009   0.000001  -0.000099
     6  Si   0.063670   0.022761   0.053451
     7  Si   0.000154  -0.000667   0.020645
     8  Si  -0.002018   0.000055   0.000121
     9  Si  -0.000052   0.000002   0.000080
    10  O    0.000000  -0.000000  -0.000000
    11  O   -0.000000   0.000000   0.000000
    12  O    0.000000  -0.000000   0.000000
    13  O    0.002355  -0.000008   0.000232
    14  O    0.000167  -0.000006   0.002096
    15  O   -0.000018   0.000000  -0.000035
    16  O    0.003780   0.233458  -0.000125
    17  O   -0.000747  -0.003633   0.230986
    18  O    0.218096   0.003882   0.002104
    19  O    0.000004   0.000096   0.014803
    20  O   -0.000000   0.000000  -0.000076
    21  O   -0.000000   0.000001   0.001466
    22  H   -0.000000  -0.000000  -0.000000
    23  H   -0.000000  -0.000000  -0.000000
    24  H    0.000000  -0.000000  -0.000000
    25  H   -0.000490  -0.000001   0.000005
    26  H    0.000000   0.000000  -0.000000
    27  H    0.000013  -0.000000  -0.002405
    28  H   -0.000000   0.000000  -0.000002
    29  H    0.000000  -0.000000   0.000101
    30  H   -0.000000  -0.000000  -0.001157
    31  H    0.331395   0.000001  -0.000038
    32  H    0.000001   0.349969   0.000157
    33  H   -0.000038   0.000157   0.269262
 Mulliken charges:
               1
     1  Zr  -0.000222
     2  O   -0.551110
     3  O   -0.419017
     4  O   -0.679193
     5  O   -0.367386
     6  Si   2.230484
     7  Si   1.784670
     8  Si   2.017684
     9  Si   1.604995
    10  O   -0.845892
    11  O   -0.787331
    12  O   -0.790184
    13  O   -0.841973
    14  O   -0.880541
    15  O   -0.876783
    16  O   -0.734527
    17  O   -0.968273
    18  O   -1.081336
    19  O   -0.988169
    20  O   -0.804561
    21  O   -0.830362
    22  H    0.386508
    23  H    0.372424
    24  H    0.365887
    25  H    0.414747
    26  H    0.378622
    27  H    0.429296
    28  H    0.375962
    29  H    0.447536
    30  H    0.411370
    31  H    0.401983
    32  H    0.381347
    33  H    0.443343
 Sum of Mulliken charges =  -0.00000
 Mulliken charges with hydrogens summed into heavy atoms:
               1
     1  Zr  -0.000222
     2  O   -0.551110
     3  O   -0.419017
     4  O   -0.679193
     5  O   -0.367386
     6  Si   2.230484
     7  Si   1.784670
     8  Si   2.017684
     9  Si   1.604995
    10  O   -0.473468
    11  O   -0.421443
    12  O   -0.403676
    13  O   -0.427227
    14  O   -0.451245
    15  O   -0.498161
    16  O   -0.353180
    17  O   -0.524930
    18  O   -0.679352
    19  O   -0.576799
    20  O   -0.428599
    21  O   -0.382826
 Electronic spatial extent (au):  <R**2>=           9858.6095
 Charge=             -0.0000 electrons
 Dipole moment (field-independent basis, Debye):
    X=              1.0940    Y=             -0.7613    Z=             -2.4050  Tot=              2.7496
 Quadrupole moment (field-independent basis, Debye-Ang):
   XX=           -160.2121   YY=           -154.5309   ZZ=           -157.7866
   XY=             -4.7519   XZ=              2.3011   YZ=              5.7516
 Traceless Quadrupole moment (field-independent basis, Debye-Ang):
   XX=             -2.7022   YY=              2.9789   ZZ=             -0.2767
   XY=             -4.7519   XZ=              2.3011   YZ=              5.7516
 Octapole moment (field-independent basis, Debye-Ang**2):
  XXX=             74.5005  YYY=              6.8146  ZZZ=            -18.6260  XYY=             -1.9279
  XXY=             19.7449  XXZ=             19.2176  XZZ=              5.3739  YZZ=            -17.3146
  YYZ=            -16.0124  XYZ=             27.7554
 Hexadecapole moment (field-independent basis, Debye-Ang**3):
 XXXX=          -6033.7628 YYYY=          -2831.2206 ZZZZ=          -2260.0941 XXXY=             56.7430
 XXXZ=            -29.8353 YYYX=              6.8884 YYYZ=            214.4787 ZZZX=           -184.0338
 ZZZY=            -53.2812 XXYY=          -1477.5957 XXZZ=          -1360.9363 YYZZ=           -923.3585
 XXYZ=             -4.2260 YYXZ=            134.5017 ZZXY=            -59.8716
 N-N= 2.833570784570D+03 E-N=-1.137975209346D+04  KE= 2.373155680749D+03
 PrsmSu:  requested number of processors reduced to:   2 ShMem   1 Linda.
 PrsmSu:  requested number of processors reduced to:  10 ShMem   1 Linda.
   1 Symmetry operations used in ECPInt.
 ECPInt:  NShTT=   13203 NPrTT=   78401 LenC2=   11524 LenP2D=   44651.
 LDataN:  DoStor=T MaxTD1= 9 Len=  602
 Number of processors reduced to  14 by ecpmxn.
 Calling FoFJK, ICntrl=      2127 FMM=F ISym2X=0 I1Cent= 0 IOpClX= 0 NMat=1 NMatS=1 NMatT=0.
 CoulSu:  requested number of processors reduced to:  10 ShMem   1 Linda.
 Defaulting to unpruned grid for atomic number  40.
 Defaulting to unpruned grid for atomic number  40.
 Defaulting to unpruned grid for atomic number  40.
 Defaulting to unpruned grid for atomic number  40.
 Defaulting to unpruned grid for atomic number  40.
 Defaulting to unpruned grid for atomic number  40.
 Defaulting to unpruned grid for atomic number  40.
 Defaulting to unpruned grid for atomic number  40.
 Defaulting to unpruned grid for atomic number  40.
 Defaulting to unpruned grid for atomic number  40.
 Defaulting to unpruned grid for atomic number  40.
 Defaulting to unpruned grid for atomic number  40.
 Defaulting to unpruned grid for atomic number  40.
 Defaulting to unpruned grid for atomic number  40.
 Defaulting to unpruned grid for atomic number  40.
 Defaulting to unpruned grid for atomic number  40.
 ***** Axes restored to original set *****
 -------------------------------------------------------------------
 Center     Atomic                   Forces (Hartrees/Bohr)
 Number     Number              X              Y              Z
 -------------------------------------------------------------------
      1       40          -0.000215450    0.000047165    0.000006681
      2        8          -0.000011861   -0.000002098    0.000017961
      3        8           0.000003291   -0.000043483   -0.000003010
      4        8          -0.000003381   -0.000006608   -0.000017723
      5        8           0.000138398    0.000101069    0.000019763
      6       14           0.000000384    0.000011264    0.000013450
      7       14           0.000022019   -0.000018511    0.000004159
      8       14           0.000020759   -0.000004572   -0.000008186
      9       14           0.000098666   -0.000220304   -0.000057255
     10        8           0.000010098    0.000033077    0.000015132
     11        8           0.000004647    0.000029814   -0.000000271
     12        8          -0.000012581    0.000047114    0.000023088
     13        8          -0.000009599    0.000001995    0.000003731
     14        8          -0.000013344    0.000011389    0.000002035
     15        8          -0.000006400   -0.000000612   -0.000002051
     16        8          -0.000000092   -0.000000750   -0.000006705
     17        8           0.000004448   -0.000001423   -0.000007420
     18        8          -0.000012155    0.000003501    0.000001301
     19        8          -0.000003096    0.000005873   -0.000003432
     20        8          -0.000001980    0.000009146    0.000000734
     21        8          -0.000008443    0.000005533   -0.000002019
     22        1          -0.000001281    0.000013434    0.000007994
     23        1          -0.000014888   -0.000007951   -0.000002820
     24        1          -0.000008436   -0.000001982   -0.000006094
     25        1           0.000003108   -0.000001419   -0.000001980
     26        1           0.000001031    0.000003333    0.000001198
     27        1          -0.000000912   -0.000001928   -0.000000690
     28        1           0.000004342   -0.000004983   -0.000000771
     29        1           0.000014414   -0.000005163   -0.000001946
     30        1           0.000001770    0.000000715    0.000001287
     31        1           0.000006399   -0.000002630   -0.000001678
     32        1          -0.000003854    0.000000199    0.000003470
     33        1          -0.000006022   -0.000000204    0.000002067
 -------------------------------------------------------------------
 Cartesian Forces:  Max     0.000220304 RMS     0.000039152

 GradGradGradGradGradGradGradGradGradGradGradGradGradGradGradGradGradGrad
 Berny optimization.
 FormGI is forming the generalized inverse of G from B-inverse, IUseBI=4.
 Internal  Forces:  Max     0.000211181 RMS     0.000027197
 Search for a local minimum.
 Step number   1 out of a maximum of  148
 All quantities printed in internal units (Hartrees-Bohrs-Radians)
 Mixed Optimization -- En-DIIS/RFO-DIIS
 Second derivative matrix not updated -- first step.
 ITU=  0
     Eigenvalues ---    0.00230   0.00230   0.00230   0.03240   0.03358
     Eigenvalues ---    0.03498   0.03580   0.03665   0.03665   0.03680
     Eigenvalues ---    0.03686   0.03693   0.03739   0.03789   0.03792
     Eigenvalues ---    0.03816   0.03834   0.03850   0.05521   0.09402
     Eigenvalues ---    0.09687   0.11077   0.11224   0.11833   0.11884
     Eigenvalues ---    0.11890   0.12177   0.12239   0.12299   0.12782
     Eigenvalues ---    0.12895   0.13099   0.13313   0.16000   0.16000
     Eigenvalues ---    0.16000   0.16000   0.16000   0.16000   0.16000
     Eigenvalues ---    0.16000   0.16000   0.16000   0.16000   0.16000
     Eigenvalues ---    0.19173   0.19314   0.19332   0.20013   0.20203
     Eigenvalues ---    0.20204   0.20208   0.20515   0.20653   0.20795
     Eigenvalues ---    0.20989   0.21175   0.21186   0.21227   0.25000
     Eigenvalues ---    0.25000   0.25000   0.38002   0.39187   0.40659
     Eigenvalues ---    0.41547   0.42502   0.42508   0.42670   0.42743
     Eigenvalues ---    0.42824   0.43363   0.43951   0.43980   0.44273
     Eigenvalues ---    0.44485   0.44689   0.44769   0.50655   0.51353
     Eigenvalues ---    0.52036   0.52548   0.54334   0.54624   0.54641
     Eigenvalues ---    0.54649   0.54689   0.54692   0.54712   0.54765
     Eigenvalues --- 1000.000001000.000001000.000001000.000001000.00000
     Eigenvalues --- 1000.000001000.000001000.000001000.000001000.00000
     Eigenvalues --- 1000.000001000.000001000.000001000.000001000.00000
     Eigenvalues --- 1000.000001000.000001000.000001000.000001000.00000
     Eigenvalues --- 1000.000001000.000001000.000001000.000001000.00000
     Eigenvalues --- 1000.000001000.000001000.000001000.000001000.00000
     Eigenvalues --- 1000.000001000.000001000.000001000.000001000.00000
     Eigenvalues --- 1000.000001000.000001000.000001000.000001000.00000
     Eigenvalues --- 1000.000001000.000001000.000001000.000001000.00000
     Eigenvalues --- 1000.000001000.000001000.00000
 RFO step:  Lambda=-4.28030475D-07 EMin= 2.30000000D-03
 Linear search not attempted -- first point.
 Iteration  1 RMS(Cart)=  0.00195909 RMS(Int)=  0.00000095
 Iteration  2 RMS(Cart)=  0.00000167 RMS(Int)=  0.00000001
 Iteration  3 RMS(Cart)=  0.00000000 RMS(Int)=  0.00000001
 Iteration  1 RMS(Cart)=  0.00000000 RMS(Int)=  0.00000000
 Variable       Old X    -DE/DX   Delta X   Delta X   Delta X     New X
                                 (Linear)    (Quad)   (Total)
    R1        3.67647   0.00002   0.00000   0.00007   0.00007   3.67654
    R2        3.69189  -0.00006   0.00000  -0.00029  -0.00029   3.69161
    R3        3.73835   0.00002   0.00000   0.00008   0.00008   3.73843
    R4        3.70232   0.00021   0.00000   0.00105   0.00105   3.70336
    R5        3.11688  -0.00000   0.00000  -0.00000  -0.00000   3.11687
    R6        3.09579  -0.00002   0.00000  -0.00005  -0.00005   3.09574
    R7        3.10213   0.00000   0.00000   0.00001   0.00001   3.10214
    R8        3.09245   0.00006   0.00000   0.00014   0.00014   3.09259
    R9        3.11587   0.00000   0.00000   0.00001   0.00001   3.11588
   R10        3.11989  -0.00000   0.00000  -0.00001  -0.00001   3.11988
   R11        3.14367   0.00000   0.00000   0.00001   0.00001   3.14368
   R12        3.18062   0.00000   0.00000   0.00001   0.00001   3.18063
   R13        3.10924   0.00000   0.00000   0.00001   0.00001   3.10925
   R14        3.09339  -0.00001   0.00000  -0.00001  -0.00001   3.09337
   R15        3.10179   0.00000   0.00000   0.00000   0.00000   3.10179
   R16        3.16373   0.00001   0.00000   0.00003   0.00003   3.16377
   R17        3.09830  -0.00000   0.00000  -0.00000  -0.00000   3.09830
   R18        3.11981  -0.00001   0.00000  -0.00002  -0.00002   3.11979
   R19        3.13205  -0.00003   0.00000  -0.00007  -0.00007   3.13197
   R20        3.11779   0.00007   0.00000   0.00016   0.00016   3.11795
   R21        1.82152   0.00000   0.00000   0.00000   0.00000   1.82152
   R22        1.82107  -0.00000   0.00000  -0.00000  -0.00000   1.82107
   R23        1.82089   0.00000   0.00000   0.00001   0.00001   1.82090
   R24        1.84078   0.00000   0.00000   0.00000   0.00000   1.84079
   R25        1.84565   0.00000   0.00000   0.00000   0.00000   1.84565
   R26        1.82041  -0.00000   0.00000  -0.00000  -0.00000   1.82041
   R27        1.82109  -0.00000   0.00000  -0.00001  -0.00001   1.82108
   R28        1.85910  -0.00000   0.00000  -0.00001  -0.00001   1.85910
   R29        1.82145   0.00000   0.00000   0.00001   0.00001   1.82146
   R30        1.82428  -0.00000   0.00000  -0.00000  -0.00000   1.82428
   R31        1.82168  -0.00000   0.00000  -0.00001  -0.00001   1.82167
   R32        1.85224   0.00000   0.00000   0.00000   0.00000   1.85224
    A1        1.85172  -0.00001   0.00000  -0.00014  -0.00014   1.85159
    A2        1.80155  -0.00000   0.00000   0.00000   0.00000   1.80156
    A3        1.96889   0.00001   0.00000   0.00004   0.00004   1.96893
    A4        1.83430   0.00000   0.00000   0.00008   0.00008   1.83438
    A5        2.01802  -0.00000   0.00000  -0.00002  -0.00002   2.01800
    A6        1.97057  -0.00001   0.00000   0.00003   0.00003   1.97060
    A7        2.46524  -0.00001   0.00000  -0.00003  -0.00003   2.46521
    A8        2.58826  -0.00002   0.00000  -0.00006  -0.00006   2.58819
    A9        2.35483   0.00001   0.00000   0.00002   0.00002   2.35485
   A10        2.84489   0.00017   0.00000   0.00000   0.00000   2.84489
   A11        1.91978  -0.00000   0.00000  -0.00001  -0.00001   1.91976
   A12        1.91546   0.00001   0.00000   0.00009   0.00009   1.91555
   A13        1.95201  -0.00000   0.00000  -0.00002  -0.00002   1.95199
   A14        2.00708  -0.00000   0.00000  -0.00002  -0.00002   2.00706
   A15        1.88610  -0.00000   0.00000  -0.00003  -0.00003   1.88608
[...]
 Alpha virt. eigenvalues --    3.47848   3.48607   3.48684   3.51087   3.51102
 Alpha virt. eigenvalues --    3.52803   3.54164   3.60313   3.61093   3.62056
 Alpha virt. eigenvalues --    3.66215   4.33474   4.60122   7.87974  31.28636
          Condensed to atoms (all electrons):
               1          2          3          4          5          6
     1  Zr  15.132565  -0.130206  -0.000006  -0.142066  -0.190209  -0.601222
     2  O   -0.130206   9.063626   0.019028  -0.042406  -0.056745   0.089360
     3  O   -0.000006   0.019028   8.824204   0.015320  -0.043622  -0.004822
     4  O   -0.142066  -0.042406   0.015320   8.808887  -0.060866  -0.669952
     5  O   -0.190209  -0.056745  -0.043622  -0.060866   9.417182  -0.006108
     6  Si  -0.601222   0.089360  -0.004822  -0.669952  -0.006108  13.979704
     7  Si  -0.620922  -0.027732  -0.873951  -0.006583  -0.033138   0.085701
     8  Si  -0.592982  -0.995303  -0.021348   0.073297  -0.013085  -0.018152
     9  Si  -0.332468  -0.039139  -0.022528  -0.031465  -1.228127   0.040219
    10  O   -0.015235   0.000974  -0.002223   0.000866   0.128834  -0.002485
    11  O   -0.067760   0.003425   0.002993   0.001244   0.314702  -0.000758
    12  O    0.043943  -0.000059   0.004811   0.002068   0.155001  -0.003029
    13  O   -0.036095   0.186948   0.001629  -0.015497  -0.000721   0.034918
    14  O   -0.020246   0.262460  -0.017867  -0.008981   0.001736   0.029889
    15  O   -0.083455   0.292305  -0.000673   0.001227   0.000583   0.000041
    16  O   -0.124079   0.004686  -0.000486   0.344744   0.003188  -0.424340
    17  O   -0.086870  -0.039751   0.007770   0.217819   0.001205  -0.448634
    18  O   -0.028764  -0.014463   0.003710   0.198895  -0.000648  -0.450037
    19  O    0.000995   0.008998   0.265560   0.010411   0.002106  -0.007847
    20  O   -0.145129  -0.000581   0.162152  -0.000860   0.001393   0.009056
    21  O    0.036657   0.010347   0.147235   0.003448   0.000241  -0.012300
    22  H   -0.009353  -0.000018  -0.000010  -0.000009   0.005610   0.000092
    23  H   -0.007445  -0.000013  -0.000006  -0.000056  -0.025219   0.000087
    24  H   -0.005292  -0.000181  -0.000010   0.000003  -0.005226   0.000066
    25  H    0.016902  -0.020018  -0.000110  -0.000332   0.000020   0.002736
    26  H    0.007459   0.000619   0.000014  -0.000011  -0.000003  -0.000166
    27  H    0.005461  -0.019214   0.000864  -0.001698   0.000012   0.008433
    28  H    0.005016  -0.000011  -0.018347  -0.000014  -0.000015  -0.000285
    29  H    0.004119  -0.007069  -0.020260  -0.000138  -0.000071   0.000116
    30  H    0.000729  -0.000012   0.000073  -0.000455  -0.000008  -0.000677
    31  H    0.000026   0.000172  -0.000020  -0.018436  -0.000009   0.063695
    32  H    0.002103  -0.000024   0.000040   0.010472   0.000001   0.022766
    33  H   -0.016172   0.001024  -0.010119  -0.009638  -0.000099   0.053448
               7          8          9         10         11         12
     1  Zr  -0.620922  -0.592982  -0.332468  -0.015235  -0.067760   0.043943
     2  O   -0.027732  -0.995303  -0.039139   0.000974   0.003425  -0.000059
     3  O   -0.873951  -0.021348  -0.022528  -0.002223   0.002993   0.004811
     4  O   -0.006583   0.073297  -0.031465   0.000866   0.001244   0.002068
     5  O   -0.033138  -0.013085  -1.228127   0.128834   0.314702   0.155001
     6  Si   0.085701  -0.018152   0.040219  -0.002485  -0.000758  -0.003029
     7  Si  13.794451   0.183235   0.020574  -0.000181  -0.000798   0.004107
     8  Si   0.183235  13.798886   0.026866  -0.000995   0.001255  -0.000854
     9  Si   0.020574   0.026866  14.254544  -0.063969  -0.182038  -0.219597
    10  O   -0.000181  -0.000995  -0.063969   8.525401   0.012162   0.033062
    11  O   -0.000798   0.001255  -0.182038   0.012162   8.522708  -0.050957
    12  O    0.004107  -0.000854  -0.219597   0.033062  -0.050957   8.604134
    13  O    0.007269  -0.095539   0.000192   0.000000   0.000018   0.000009
    14  O    0.010333  -0.365645  -0.001430  -0.000002   0.000002   0.000020
    15  O   -0.002542  -0.304267  -0.000580   0.000000  -0.000024  -0.000019
    16  O    0.003753  -0.010332  -0.001067   0.000006  -0.000003  -0.000001
    17  O    0.000271   0.098069   0.002698  -0.000001   0.000002  -0.000006
    18  O   -0.000754   0.075053   0.004187  -0.000002  -0.000001  -0.000001
    19  O   -0.409561  -0.016279   0.001038   0.000007  -0.000002  -0.000023
    20  O   -0.106726   0.009683   0.003226   0.000003  -0.000003  -0.000029
    21  O    0.023190  -0.040701  -0.001910   0.000001   0.000001   0.000026
    22  H   -0.000197   0.000096   0.047854  -0.006414  -0.005074   0.219555
    23  H    0.000059   0.000061   0.080490   0.228704  -0.006029   0.005858
    24  H    0.000054  -0.000088   0.037436   0.007413   0.241967  -0.007397
    25  H   -0.000455   0.057422  -0.000205   0.000000  -0.000000  -0.000000
    26  H   -0.000386   0.045962  -0.000046  -0.000000   0.000000  -0.000000
    27  H    0.001152   0.067970  -0.000018   0.000000  -0.000000  -0.000000
    28  H    0.056551  -0.000066  -0.000137  -0.000000  -0.000000  -0.000004
    29  H    0.048185   0.021963  -0.000061   0.000000   0.000000  -0.000001
    30  H    0.040309   0.000118   0.000023  -0.000000  -0.000000   0.000000
    31  H    0.000154  -0.002019  -0.000052   0.000000  -0.000000   0.000000
    32  H   -0.000669   0.000055   0.000002  -0.000000   0.000000  -0.000000
    33  H    0.020642   0.000121   0.000080  -0.000000   0.000000   0.000000
              13         14         15         16         17         18
     1  Zr  -0.036095  -0.020246  -0.083455  -0.124079  -0.086870  -0.028764
     2  O    0.186948   0.262460   0.292305   0.004686  -0.039751  -0.014463
     3  O    0.001629  -0.017867  -0.000673  -0.000486   0.007770   0.003710
     4  O   -0.015497  -0.008981   0.001227   0.344744   0.217819   0.198895
     5  O   -0.000721   0.001736   0.000583   0.003188   0.001205  -0.000648
     6  Si   0.034918   0.029889   0.000041  -0.424340  -0.448634  -0.450037
     7  Si   0.007269   0.010333  -0.002542   0.003753   0.000271  -0.000754
     8  Si  -0.095539  -0.365645  -0.304267  -0.010332   0.098069   0.075053
     9  Si   0.000192  -0.001430  -0.000580  -0.001067   0.002698   0.004187
    10  O    0.000000  -0.000002   0.000000   0.000006  -0.000001  -0.000002
    11  O    0.000018   0.000002  -0.000024  -0.000003   0.000002  -0.000001
    12  O    0.000009   0.000020  -0.000019  -0.000001  -0.000006  -0.000001
    13  O    8.628438   0.087066  -0.090842   0.003730  -0.030902  -0.045520
    14  O    0.087066   8.674344   0.055513   0.003646  -0.035873  -0.026902
    15  O   -0.090842   0.055513   8.776888  -0.000174   0.003609   0.001670
    16  O    0.003730   0.003646  -0.000174   8.902253  -0.091729  -0.114941
    17  O   -0.030902  -0.035873   0.003609  -0.091729   8.935571   0.227460
    18  O   -0.045520  -0.026902   0.001670  -0.114941   0.227460   9.012941
    19  O    0.000186  -0.000414   0.000140  -0.001532  -0.029982   0.000169
    20  O    0.000008  -0.000281   0.000038   0.000064  -0.001005   0.000015
    21  O   -0.000249   0.016113  -0.000607  -0.000212  -0.005607   0.000476
    22  H   -0.000000  -0.000000   0.000000   0.000000   0.000000  -0.000000
    23  H    0.000000   0.000000  -0.000000  -0.000000   0.000000  -0.000000
    24  H   -0.000000   0.000000   0.000002   0.000000  -0.000000  -0.000000
    25  H    0.218361  -0.011940   0.008920  -0.000054   0.000628   0.014894
    26  H   -0.005142  -0.010092   0.217038   0.000000  -0.000003   0.000006
    27  H   -0.009734   0.219217   0.004623   0.000187   0.017855  -0.000262
    28  H   -0.000000  -0.000006  -0.000001  -0.000000   0.000004  -0.000000
    29  H    0.000795   0.017586  -0.002571  -0.000004  -0.000391   0.000006
    30  H    0.000001   0.000002   0.000000   0.000116  -0.000386  -0.000008
    31  H    0.002353   0.000167  -0.000018   0.003773  -0.000743   0.218092
    32  H   -0.000008  -0.000006   0.000000   0.233446  -0.003633   0.003882
    33  H    0.000232   0.002097  -0.000035  -0.000120   0.230970   0.002102
              19         20         21         22         23         24
     1  Zr   0.000995  -0.145129   0.036657  -0.009353  -0.007445  -0.005292
     2  O    0.008998  -0.000581   0.010347  -0.000018  -0.000013  -0.000181
     3  O    0.265560   0.162152   0.147235  -0.000010  -0.000006  -0.000010
     4  O    0.010411  -0.000860   0.003448  -0.000009  -0.000056   0.000003
     5  O    0.002106   0.001393   0.000241   0.005610  -0.025219  -0.005226
     6  Si  -0.007847   0.009056  -0.012300   0.000092   0.000087   0.000066
     7  Si  -0.409561  -0.106726   0.023190  -0.000197   0.000059   0.000054
     8  Si  -0.016279   0.009683  -0.040701   0.000096   0.000061  -0.000088
     9  Si   0.001038   0.003226  -0.001910   0.047854   0.080490   0.037436
    10  O    0.000007   0.000003   0.000001  -0.006414   0.228704   0.007413
    11  O   -0.000002  -0.000003   0.000001  -0.005074  -0.006029   0.241967
    12  O   -0.000023  -0.000029   0.000026   0.219555   0.005858  -0.007397
    13  O    0.000186   0.000008  -0.000249  -0.000000   0.000000  -0.000000
    14  O   -0.000414  -0.000281   0.016113  -0.000000   0.000000   0.000000
    15  O    0.000140   0.000038  -0.000607   0.000000  -0.000000   0.000002
    16  O   -0.001532   0.000064  -0.000212   0.000000  -0.000000   0.000000
    17  O   -0.029982  -0.001005  -0.005607   0.000000   0.000000  -0.000000
    18  O    0.000169   0.000015   0.000476  -0.000000  -0.000000  -0.000000
    19  O    8.873275   0.031990   0.023778  -0.000000   0.000000  -0.000000
    20  O    0.031990   8.656115  -0.050534   0.000000   0.000000  -0.000000
    21  O    0.023778  -0.050534   8.486255  -0.000000   0.000000   0.000000
    22  H   -0.000000   0.000000  -0.000000   0.361182   0.000055   0.000122
    23  H    0.000000   0.000000   0.000000   0.000055   0.351058   0.000014
    24  H   -0.000000  -0.000000   0.000000   0.000122   0.000014   0.365223
    25  H   -0.000024   0.000000  -0.000019   0.000000   0.000000   0.000000
    26  H    0.000001  -0.000000   0.000039  -0.000000  -0.000000  -0.000000
    27  H    0.000024   0.000193  -0.004030  -0.000000  -0.000000   0.000000
    28  H    0.004622   0.229599  -0.002053  -0.000000   0.000000  -0.000000
    29  H   -0.008567   0.007672   0.206458   0.000000   0.000000  -0.000000
    30  H    0.224180  -0.001476  -0.007158   0.000000  -0.000000  -0.000000
    31  H    0.000004  -0.000000  -0.000000  -0.000000  -0.000000   0.000000
    32  H    0.000096   0.000000   0.000001  -0.000000  -0.000000  -0.000000
    33  H    0.014792  -0.000076   0.001468  -0.000000  -0.000000  -0.000000
              25         26         27         28         29         30
     1  Zr   0.016902   0.007459   0.005461   0.005016   0.004119   0.000729
     2  O   -0.020018   0.000619  -0.019214  -0.000011  -0.007069  -0.000012
     3  O   -0.000110   0.000014   0.000864  -0.018347  -0.020260   0.000073
     4  O   -0.000332  -0.000011  -0.001698  -0.000014  -0.000138  -0.000455
     5  O    0.000020  -0.000003   0.000012  -0.000015  -0.000071  -0.000008
     6  Si   0.002736  -0.000166   0.008433  -0.000285   0.000116  -0.000677
     7  Si  -0.000455  -0.000386   0.001152   0.056551   0.048185   0.040309
     8  Si   0.057422   0.045962   0.067970  -0.000066   0.021963   0.000118
     9  Si  -0.000205  -0.000046  -0.000018  -0.000137  -0.000061   0.000023
    10  O    0.000000  -0.000000   0.000000  -0.000000   0.000000  -0.000000
    11  O   -0.000000   0.000000  -0.000000  -0.000000   0.000000  -0.000000
    12  O   -0.000000  -0.000000  -0.000000  -0.000004  -0.000001   0.000000
    13  O    0.218361  -0.005142  -0.009734  -0.000000   0.000795   0.000001
    14  O   -0.011940  -0.010092   0.219217  -0.000006   0.017586   0.000002
    15  O    0.008920   0.217038   0.004623  -0.000001  -0.002571   0.000000
    16  O   -0.000054   0.000000   0.000187  -0.000000  -0.000004   0.000116
    17  O    0.000628  -0.000003   0.017855   0.000004  -0.000391  -0.000386
    18  O    0.014894   0.000006  -0.000262  -0.000000   0.000006  -0.000008
    19  O   -0.000024   0.000001   0.000024   0.004622  -0.008567   0.224180
    20  O    0.000000  -0.000000   0.000193   0.229599   0.007672  -0.001476
    21  O   -0.000019   0.000039  -0.004030  -0.002053   0.206458  -0.007158
    22  H    0.000000  -0.000000  -0.000000  -0.000000   0.000000   0.000000
    23  H    0.000000  -0.000000  -0.000000   0.000000   0.000000  -0.000000
    24  H    0.000000  -0.000000   0.000000  -0.000000  -0.000000  -0.000000
    25  H    0.298941  -0.000012   0.000111   0.000000   0.000001   0.000000
    26  H   -0.000012   0.366041   0.000036   0.000000   0.000021  -0.000000
    27  H    0.000111   0.000036   0.283385  -0.000000  -0.001495   0.000009
    28  H    0.000000   0.000000  -0.000000   0.349219  -0.000017  -0.000016
    29  H    0.000001   0.000021  -0.001495  -0.000017   0.285890   0.000155
    30  H    0.000000  -0.000000   0.000009  -0.000016   0.000155   0.334251
    31  H   -0.000491   0.000000   0.000013  -0.000000   0.000000  -0.000000
    32  H   -0.000001   0.000000  -0.000000   0.000000  -0.000000  -0.000000
    33  H    0.000005  -0.000000  -0.002405  -0.000002   0.000101  -0.001158
              31         32         33
     1  Zr   0.000026   0.002103  -0.016172
     2  O    0.000172  -0.000024   0.001024
     3  O   -0.000020   0.000040  -0.010119
     4  O   -0.018436   0.010472  -0.009638
     5  O   -0.000009   0.000001  -0.000099
     6  Si   0.063695   0.022766   0.053448
     7  Si   0.000154  -0.000669   0.020642
     8  Si  -0.002019   0.000055   0.000121
     9  Si  -0.000052   0.000002   0.000080
    10  O    0.000000  -0.000000  -0.000000
    11  O   -0.000000   0.000000   0.000000
    12  O    0.000000  -0.000000   0.000000
    13  O    0.002353  -0.000008   0.000232
    14  O    0.000167  -0.000006   0.002097
    15  O   -0.000018   0.000000  -0.000035
    16  O    0.003773   0.233446  -0.000120
    17  O   -0.000743  -0.003633   0.230970
    18  O    0.218092   0.003882   0.002102
    19  O    0.000004   0.000096   0.014792
    20  O   -0.000000   0.000000  -0.000076
    21  O   -0.000000   0.000001   0.001468
    22  H   -0.000000  -0.000000  -0.000000
    23  H   -0.000000  -0.000000  -0.000000
    24  H    0.000000  -0.000000  -0.000000
    25  H   -0.000491  -0.000001   0.000005
    26  H    0.000000   0.000000  -0.000000
    27  H    0.000013  -0.000000  -0.002405
    28  H   -0.000000   0.000000  -0.000002
    29  H    0.000000  -0.000000   0.000101
    30  H   -0.000000  -0.000000  -0.001158
    31  H    0.331425   0.000001  -0.000038
    32  H    0.000001   0.349979   0.000157
    33  H   -0.000038   0.000157   0.269210
 Mulliken charges:
               1
     1  Zr   0.000002
     2  O   -0.551028
     3  O   -0.418998
     4  O   -0.679233
     5  O   -0.367895
     6  Si   2.230488
     7  Si   1.784605
     8  Si   2.017544
     9  Si   1.605410
    10  O   -0.845926
    11  O   -0.787034
    12  O   -0.790616
    13  O   -0.841905
    14  O   -0.880506
    15  O   -0.876789
    16  O   -0.734516
    17  O   -0.968416
    18  O   -1.081258
    19  O   -0.988138
    20  O   -0.804507
    21  O   -0.830357
    22  H    0.386508
    23  H    0.372383
    24  H    0.365894
    25  H    0.414718
    26  H    0.378626
    27  H    0.429310
    28  H    0.375964
    29  H    0.447576
    30  H    0.411387
    31  H    0.401952
    32  H    0.381341
    33  H    0.443414
 Sum of Mulliken charges =  -0.00000
 Mulliken charges with hydrogens summed into heavy atoms:
               1
     1  Zr   0.000002
     2  O   -0.551028
     3  O   -0.418998
     4  O   -0.679233
     5  O   -0.367895
     6  Si   2.230488
     7  Si   1.784605
     8  Si   2.017544
     9  Si   1.605410
    10  O   -0.473543
    11  O   -0.421139
    12  O   -0.404109
    13  O   -0.427187
    14  O   -0.451196
    15  O   -0.498163
    16  O   -0.353175
    17  O   -0.525002
    18  O   -0.679306
    19  O   -0.576751
    20  O   -0.428543
    21  O   -0.382781
 Electronic spatial extent (au):  <R**2>=           9858.9193
 Charge=              0.0000 electrons
 Dipole moment (field-independent basis, Debye):
    X=              1.0920    Y=             -0.7623    Z=             -2.4052  Tot=              2.7493
 Quadrupole moment (field-independent basis, Debye-Ang):
   XX=           -160.2370   YY=           -154.5218   ZZ=           -157.7845
   XY=             -4.7596   XZ=              2.2943   YZ=              5.7504
 Traceless Quadrupole moment (field-independent basis, Debye-Ang):
   XX=             -2.7226   YY=              2.9926   ZZ=             -0.2700
   XY=             -4.7596   XZ=              2.2943   YZ=              5.7504
 Octapole moment (field-independent basis, Debye-Ang**2):
  XXX=             74.3611  YYY=              6.8103  ZZZ=            -18.6252  XYY=             -1.8899
  XXY=             19.7317  XXZ=             19.2024  XZZ=              5.3921  YZZ=            -17.3002
  YYZ=            -16.0079  XYZ=             27.7638
 Hexadecapole moment (field-independent basis, Debye-Ang**3):
 XXXX=          -6035.9243 YYYY=          -2830.5513 ZZZZ=          -2260.0826 XXXY=             56.6347
 XXXZ=            -30.0167 YYYX=              6.9271 YYYZ=            214.4073 ZZZX=           -184.1465
 ZZZY=            -53.2296 XXYY=          -1477.6326 XXZZ=          -1361.0042 YYZZ=           -923.2979
 XXYZ=             -4.1752 YYXZ=            134.5873 ZZXY=            -59.9287
 N-N= 2.833572670318D+03 E-N=-1.137975507669D+04  KE= 2.373155209353D+03
 1\1\GINC-GRA612\FOpt\RB3LYP\Gen\H12O16Si4Zr1\SARASHS\12-Aug-2020\0\\#n
  B3LYP/Gen Pseudo=cards EmpiricalDispersion=GD3 Opt=modredundant\\Titl
 e\\0,1\Zr,0.6577954927,-0.1253261668,-0.0716485383\O,-0.2230642201,-0.
 9062353218,1.4773018275\O,0.1030384566,1.7470127207,-0.1229836407\O,-0
 .2684176691,-0.9788993758,-1.5970835656\O,2.5924591887,-0.4366411556,-
 0.0828751076\Si,-1.8313533898,-1.3323238222,-1.9536011498\Si,-1.115458
 3603,2.8412996147,-0.0828295295\Si,-1.7239818949,-1.1527183267,2.11519
 69754\Si,4.2120825868,-0.2262528358,0.0207489181\O,4.9555098986,-0.049
 0353391,-1.4426297695\O,4.9203290746,-1.5564370825,0.7104623758\O,4.40
 81117978,1.1697047971,0.8783537578\O,-2.3196505468,-2.6237899322,1.696
 5174648\O,-2.7244098309,0.0652926684,1.5507987782\O,-1.597562678,-1.01
 90964047,3.7443869536\O,-2.0016238657,-1.5594717749,-3.5778338135\O,-2
 .8251397704,-0.1865959523,-1.3014005088\O,-2.3447668945,-2.7142859957,
 -1.1828592014\O,-2.040428389,2.4392172108,-1.4302858151\O,-0.635540053
 5,4.400053771,-0.2998890449\O,-1.9654753719,2.7604322248,1.3137749702\
 H,5.2867239095,1.5652657376,0.8718050171\H,5.3233708484,-0.8527716459,
 -1.8271009811\H,4.4891372379,-1.9364795522,1.4839618762\H,-2.406083167
 8,-2.8094320233,0.7441818959\H,-2.3816120519,-1.2234934242,4.265415558
 6\H,-3.0606163082,-0.0829082828,0.6458726681\H,-0.5270549041,4.9267350
 114,0.5001817093\H,-2.2688887678,1.8688210932,1.5852983226\H,-2.648419
 5388,3.1265018366,-1.7301576279\H,-2.3045448014,-3.5294008933,-1.69572
 57614\H,-1.2712997611,-1.262903375,-4.1322228327\H,-2.6102162554,0.754
 7719966,-1.4896921813\\Version=ES64L-G16RevB.01\State=1-A\HF=-2416.946
 8572\RMSD=2.612e-09\RMSF=1.245e-05\Dipole=0.4346219,-0.2963074,-0.9451
 527\Quadrupole=-1.9566085,2.1586567,-0.2020483,-3.5891689,1.6609074,4.
 2834783\PG=C01 [X(H12O16Si4Zr1)]\\@


  THE LARGE PRINT GIVETH,
  AND THE SMALL PRINT TAKETH AWAY.

                     -- TOM WAITS
 Job cpu time:       0 days  9 hours  5 minutes  6.4 seconds.
 Elapsed time:       0 days  0 hours 41 minutes 35.0 seconds.
 File lengths (MBytes):  RWF=    167 Int=      0 D2E=      0 Chk=     21 Scr=      1
 Normal termination of Gaussian 16 at Wed Aug 12 20:24:38 2020.
