 Entering Gaussian System, Link 0=g16
 Initial command:
 /opt/software/gaussian/g16.b01/l1.exe "/localscratch/sarashs.36760137.0/Gau-47575.inp" -scrdir="/localscratch/sarashs.36760137.0/"
 Entering Link 1 = /opt/software/gaussian/g16.b01/l1.exe PID=     47576.
  
 Copyright (c) 1988-2017, Gaussian, Inc.  All Rights Reserved.
  
 This is part of the Gaussian(R) 16 program.  It is based on
 the Gaussian(R) 09 system (copyright 2009, Gaussian, Inc.),
 the Gaussian(R) 03 system (copyright 2003, Gaussian, Inc.),
 the Gaussian(R) 98 system (copyright 1998, Gaussian, Inc.),
 the Gaussian(R) 94 system (copyright 1995, Gaussian, Inc.),
 the Gaussian 92(TM) system (copyright 1992, Gaussian, Inc.),
 the Gaussian 90(TM) system (copyright 1990, Gaussian, Inc.),
 the Gaussian 88(TM) system (copyright 1988, Gaussian, Inc.),
 the Gaussian 86(TM) system (copyright 1986, Carnegie Mellon
 University), and the Gaussian 82(TM) system (copyright 1983,
 Carnegie Mellon University). Gaussian is a federally registered
 trademark of Gaussian, Inc.
  
 This software contains proprietary and confidential information,
 including trade secrets, belonging to Gaussian, Inc.
  
 This software is provided under written license and may be
 used, copied, transmitted, or stored only in accord with that
 written license.
  
 The following legend is applicable only to US Government
 contracts under FAR:
  
                    RESTRICTED RIGHTS LEGEND
  
 Use, reproduction and disclosure by the US Government is
 subject to restrictions as set forth in subparagraphs (a)
 and (c) of the Commercial Computer Software - Restricted
 Rights clause in FAR 52.227-19.
  
 Gaussian, Inc.
 340 Quinnipiac St., Bldg. 40, Wallingford CT 06492
  
  
 ---------------------------------------------------------------
 Warning -- This program may not be used in any manner that
 competes with the business of Gaussian, Inc. or will provide
 assistance to any competitor of Gaussian, Inc.  The licensee
 of this program is prohibited from giving any competitor of
 Gaussian, Inc. access to this program.  By using this program,
 the user acknowledges that Gaussian, Inc. is engaged in the
 business of creating and licensing software in the field of
 computational chemistry and represents and warrants to the
 licensee that it is not a competitor of Gaussian, Inc. and that
 it will not use this program in any manner prohibited above.
 ---------------------------------------------------------------
  

 Cite this work as:
 Gaussian 16, Revision B.01,
 M. J. Frisch, G. W. Trucks, H. B. Schlegel, G. E. Scuseria, 
 M. A. Robb, J. R. Cheeseman, G. Scalmani, V. Barone, 
 G. A. Petersson, H. Nakatsuji, X. Li, M. Caricato, A. V. Marenich, 
 J. Bloino, B. G. Janesko, R. Gomperts, B. Mennucci, H. P. Hratchian, 
 J. V. Ortiz, A. F. Izmaylov, J. L. Sonnenberg, D. Williams-Young, 
 F. Ding, F. Lipparini, F. Egidi, J. Goings, B. Peng, A. Petrone, 
 T. Henderson, D. Ranasinghe, V. G. Zakrzewski, J. Gao, N. Rega, 
 G. Zheng, W. Liang, M. Hada, M. Ehara, K. Toyota, R. Fukuda, 
 J. Hasegawa, M. Ishida, T. Nakajima, Y. Honda, O. Kitao, H. Nakai, 
 T. Vreven, K. Throssell, J. A. Montgomery, Jr., J. E. Peralta, 
 F. Ogliaro, M. J. Bearpark, J. J. Heyd, E. N. Brothers, K. N. Kudin, 
 V. N. Staroverov, T. A. Keith, R. Kobayashi, J. Normand, 
 K. Raghavachari, A. P. Rendell, J. C. Burant, S. S. Iyengar, 
 J. Tomasi, M. Cossi, J. M. Millam, M. Klene, C. Adamo, R. Cammi, 
 J. W. Ochterski, R. L. Martin, K. Morokuma, O. Farkas, 
 J. B. Foresman, and D. J. Fox, Gaussian, Inc., Wallingford CT, 2016.
 
 ******************************************
 Gaussian 16:  ES64L-G16RevB.01 20-Dec-2017
                 2-Aug-2020 
 ******************************************
 %NProcShared=16
 Will use up to   16 processors via shared memory.
 ------------------------------------------------------------------
 #n B3LYP/Gen Pseudo=cards EmpiricalDispersion=GD3 Opt=modredundant
 ------------------------------------------------------------------
 1/18=120,19=15,26=3,38=1/1,3;
 2/9=110,12=2,17=6,18=5,40=1/2;
 3/5=7,11=2,16=1,17=8,25=1,30=1,71=1,74=-5,124=31/1,2,3;
 4//1;
 5/5=2,38=5/2;
 6/7=2,8=2,9=2,10=2,28=1/1;
 7//1,2,3,16;
 1/18=20,19=15,26=3/3(2);
 2/9=110/2;
 99//99;
 2/9=110/2;
 3/5=7,6=1,11=2,16=1,17=8,25=1,30=1,71=1,74=-5,82=7,124=31/1,2,3;
 4/5=5,16=3,69=1/1;
 5/5=2,38=5/2;
 7//1,2,3,16;
 1/18=20,19=15,26=3/3(-5);
 2/9=110/2;
 6/7=2,8=2,9=2,10=2,19=2,28=1/1;
 99/9=1/99;
 -----
 Title
 -----
 Symbolic Z-matrix:
 Charge =  0 Multiplicity = 1
 Zr                    0.64646  -0.19013  -0.1519 
 O                    -0.19212  -0.93131   1.43939 
 O                     0.17263   1.70395  -0.1904 
 O                    -0.37772  -1.01692  -1.62844 
 O                     2.5678   -0.57883  -0.26812 
 Si                   -1.96924  -1.33216  -1.87829 
 Si                   -0.98958   2.85681  -0.11809 
 Si                   -1.67476  -1.05152   2.17706 
 Si                    4.11846  -0.17196   0.06044 
 O                     4.8576    0.68989  -1.13719 
 O                     5.04081  -1.53552   0.25201 
 O                     4.02732   0.78362   1.40406 
 O                    -2.33574  -2.51245   1.83004 
 O                    -2.6209    0.20928   1.64149 
 O                    -1.552    -0.82432   3.7965 
 O                    -2.25427  -1.59164  -3.48183 
 O                    -2.88371  -0.13912  -1.19557 
 O                    -2.46027  -2.68598  -1.04579 
 O                    -2.00825   2.45605  -1.3967 
 O                    -0.44623   4.38142  -0.41555 
 O                    -1.75835   2.86715   1.32642 
 H                     4.81035   1.29919   1.62696 
 H                     5.37232   0.17776  -1.77109 
 H                     4.6571   -2.26107   0.75656 
 H                    -2.40738  -2.74575   0.88712 
 H                    -0.93391  -1.38513   4.27638 
 H                    -3.02928   0.04705   0.77024 
 H                    -0.29029   4.93346   0.35924 
 H                    -2.09489   2.00321   1.64266 
 H                    -2.6086    3.15807  -1.6773 
 H                    -2.56602  -3.49143  -1.56436 
 H                    -1.55278  -1.33714  -4.09141 
 H                    -2.64046   0.78995  -1.40829 
 
 The following ModRedundant input section has been read:
 A       1       5       9 F                                                   
 

 GradGradGradGradGradGradGradGradGradGradGradGradGradGradGradGradGradGrad
 Berny optimization.
 Initialization pass.
                           ----------------------------
                           !    Initial Parameters    !
                           ! (Angstroms and Degrees)  !
 --------------------------                            --------------------------
 ! Name  Definition              Value          Derivative Info.                !
 --------------------------------------------------------------------------------
 ! R1    R(1,2)                  1.9454         estimate D2E/DX2                !
 ! R2    R(1,3)                  1.9528         estimate D2E/DX2                !
 ! R3    R(1,4)                  1.9781         estimate D2E/DX2                !
 ! R4    R(1,5)                  1.9637         estimate D2E/DX2                !
 ! R5    R(2,8)                  1.6604         estimate D2E/DX2                !
 ! R6    R(3,7)                  1.6386         estimate D2E/DX2                !
 ! R7    R(4,6)                  1.6416         estimate D2E/DX2                !
 ! R8    R(5,9)                  1.6365         estimate D2E/DX2                !
 ! R9    R(6,16)                 1.6492         estimate D2E/DX2                !
 ! R10   R(6,17)                 1.651          estimate D2E/DX2                !
 ! R11   R(6,18)                 1.6634         estimate D2E/DX2                !
 ! R12   R(7,19)                 1.6832         estimate D2E/DX2                !
 ! R13   R(7,20)                 1.6456         estimate D2E/DX2                !
 ! R14   R(7,21)                 1.6364         estimate D2E/DX2                !
 ! R15   R(8,13)                 1.6406         estimate D2E/DX2                !
 ! R16   R(8,14)                 1.6648         estimate D2E/DX2                !
 ! R17   R(8,15)                 1.6399         estimate D2E/DX2                !
 ! R18   R(9,10)                 1.6503         estimate D2E/DX2                !
 ! R19   R(9,11)                 1.6573         estimate D2E/DX2                !
 ! R20   R(9,12)                 1.6513         estimate D2E/DX2                !
 ! R21   R(10,23)                0.9639         estimate D2E/DX2                !
 ! R22   R(11,24)                0.9634         estimate D2E/DX2                !
 ! R23   R(12,22)                0.9637         estimate D2E/DX2                !
 ! R24   R(13,25)                0.974          estimate D2E/DX2                !
 ! R25   R(14,27)                0.9758         estimate D2E/DX2                !
 ! R26   R(15,26)                0.9627         estimate D2E/DX2                !
 ! R27   R(16,32)                0.9636         estimate D2E/DX2                !
 ! R28   R(17,33)                0.9837         estimate D2E/DX2                !
 ! R29   R(18,31)                0.9638         estimate D2E/DX2                !
 ! R30   R(19,30)                0.9654         estimate D2E/DX2                !
 ! R31   R(20,28)                0.964          estimate D2E/DX2                !
 ! R32   R(21,29)                0.9796         estimate D2E/DX2                !
 ! A1    A(2,1,3)              106.3234         estimate D2E/DX2                !
 ! A2    A(2,1,4)              103.1879         estimate D2E/DX2                !
 ! A3    A(2,1,5)              113.2501         estimate D2E/DX2                !
 ! A4    A(3,1,4)              105.3705         estimate D2E/DX2                !
 ! A5    A(3,1,5)              115.3549         estimate D2E/DX2                !
 ! A6    A(4,1,5)              112.3142         estimate D2E/DX2                !
 ! A7    A(1,2,8)              140.8859         estimate D2E/DX2                !
 ! A8    A(1,3,7)              148.6074         estimate D2E/DX2                !
 ! A9    A(1,4,6)              134.0964         estimate D2E/DX2                !
 ! A10   A(1,5,9)              149.9997         Frozen                          !
 ! A11   A(4,6,16)             110.2282         estimate D2E/DX2                !
 ! A12   A(4,6,17)             109.5909         estimate D2E/DX2                !
 ! A13   A(4,6,18)             111.4884         estimate D2E/DX2                !
 ! A14   A(16,6,17)            114.8371         estimate D2E/DX2                !
 ! A15   A(16,6,18)            107.9112         estimate D2E/DX2                !
 ! A16   A(17,6,18)            102.5719         estimate D2E/DX2                !
 ! A17   A(3,7,19)             103.1918         estimate D2E/DX2                !
 ! A18   A(3,7,20)             114.1832         estimate D2E/DX2                !
 ! A19   A(3,7,21)             112.1241         estimate D2E/DX2                !
 ! A20   A(19,7,20)            106.4451         estimate D2E/DX2                !
 ! A21   A(19,7,21)            112.8144         estimate D2E/DX2                !
 ! A22   A(20,7,21)            107.9884         estimate D2E/DX2                !
 ! A23   A(2,8,13)             109.2843         estimate D2E/DX2                !
 ! A24   A(2,8,14)             108.0427         estimate D2E/DX2                !
 ! A25   A(2,8,15)             111.2146         estimate D2E/DX2                !
 ! A26   A(13,8,14)            112.1704         estimate D2E/DX2                !
 ! A27   A(13,8,15)            111.2482         estimate D2E/DX2                !
 ! A28   A(14,8,15)            104.7916         estimate D2E/DX2                !
 ! A29   A(5,9,10)             114.1132         estimate D2E/DX2                !
 ! A30   A(5,9,11)             110.2427         estimate D2E/DX2                !
 ! A31   A(5,9,12)             104.7702         estimate D2E/DX2                !
 ! A32   A(10,9,11)            105.3252         estimate D2E/DX2                !
 ! A33   A(10,9,12)            108.2402         estimate D2E/DX2                !
 ! A34   A(11,9,12)            114.3794         estimate D2E/DX2                !
 ! A35   A(9,10,23)            116.0381         estimate D2E/DX2                !
 ! A36   A(9,11,24)            117.289          estimate D2E/DX2                !
 ! A37   A(9,12,22)            116.9343         estimate D2E/DX2                !
 ! A38   A(8,13,25)            116.5961         estimate D2E/DX2                !
 ! A39   A(8,14,27)            113.5263         estimate D2E/DX2                !
 ! A40   A(8,15,26)            117.3612         estimate D2E/DX2                !
 ! A41   A(6,16,32)            116.5984         estimate D2E/DX2                !
 ! A42   A(6,17,33)            117.1373         estimate D2E/DX2                !
 ! A43   A(6,18,31)            116.3135         estimate D2E/DX2                !
 ! A44   A(7,19,30)            115.0881         estimate D2E/DX2                !
 ! A45   A(7,20,28)            116.018          estimate D2E/DX2                !
 ! A46   A(7,21,29)            116.1544         estimate D2E/DX2                !
 ! D1    D(3,1,2,8)             54.013          estimate D2E/DX2                !
 ! D2    D(4,1,2,8)            -56.615          estimate D2E/DX2                !
 ! D3    D(5,1,2,8)           -178.2908         estimate D2E/DX2                !
 ! D4    D(2,1,3,7)            -51.1331         estimate D2E/DX2                !
 ! D5    D(4,1,3,7)             57.9568         estimate D2E/DX2                !
 ! D6    D(5,1,3,7)           -177.5709         estimate D2E/DX2                !
 ! D7    D(2,1,4,6)             41.2968         estimate D2E/DX2                !
 ! D8    D(3,1,4,6)            -70.0365         estimate D2E/DX2                !
 ! D9    D(5,1,4,6)            163.602          estimate D2E/DX2                !
 ! D10   D(2,1,5,9)            -89.6363         estimate D2E/DX2                !
 ! D11   D(3,1,5,9)             33.1903         estimate D2E/DX2                !
 ! D12   D(4,1,5,9)            153.9569         estimate D2E/DX2                !
 ! D13   D(1,2,8,13)            98.0767         estimate D2E/DX2                !
 ! D14   D(1,2,8,14)           -24.2296         estimate D2E/DX2                !
 ! D15   D(1,2,8,15)          -138.7156         estimate D2E/DX2                !
 ! D16   D(1,3,7,19)           -58.6416         estimate D2E/DX2                !
 ! D17   D(1,3,7,20)          -173.7291         estimate D2E/DX2                !
 ! D18   D(1,3,7,21)            63.0404         estimate D2E/DX2                !
 ! D19   D(1,4,6,16)           161.8736         estimate D2E/DX2                !
 ! D20   D(1,4,6,17)            34.551          estimate D2E/DX2                !
 ! D21   D(1,4,6,18)           -78.3045         estimate D2E/DX2                !
 ! D22   D(1,5,9,10)           -93.0138         estimate D2E/DX2                !
 ! D23   D(1,5,9,11)           148.7121         estimate D2E/DX2                !
 ! D24   D(1,5,9,12)            25.193          estimate D2E/DX2                !
 ! D25   D(4,6,16,32)          -13.7229         estimate D2E/DX2                !
 ! D26   D(17,6,16,32)         110.6319         estimate D2E/DX2                !
 ! D27   D(18,6,16,32)        -135.686          estimate D2E/DX2                !
 ! D28   D(4,6,17,33)           49.7998         estimate D2E/DX2                !
 ! D29   D(16,6,17,33)         -74.8906         estimate D2E/DX2                !
 ! D30   D(18,6,17,33)         168.3378         estimate D2E/DX2                !
 ! D31   D(4,6,18,31)         -102.9126         estimate D2E/DX2                !
 ! D32   D(16,6,18,31)          18.2691         estimate D2E/DX2                !
 ! D33   D(17,6,18,31)         139.8941         estimate D2E/DX2                !
 ! D34   D(3,7,19,30)         -162.9704         estimate D2E/DX2                !
 ! D35   D(20,7,19,30)         -42.4468         estimate D2E/DX2                !
 ! D36   D(21,7,19,30)          75.8144         estimate D2E/DX2                !
 ! D37   D(3,7,20,28)         -100.1112         estimate D2E/DX2                !
 ! D38   D(19,7,20,28)         146.7232         estimate D2E/DX2                !
 ! D39   D(21,7,20,28)          25.3303         estimate D2E/DX2                !
 ! D40   D(3,7,21,29)          -50.5298         estimate D2E/DX2                !
 ! D41   D(19,7,21,29)          65.4642         estimate D2E/DX2                !
 ! D42   D(20,7,21,29)        -177.1813         estimate D2E/DX2                !
 ! D43   D(2,8,13,25)          -54.0971         estimate D2E/DX2                !
 ! D44   D(14,8,13,25)          65.6987         estimate D2E/DX2                !
 ! D45   D(15,8,13,25)        -177.2849         estimate D2E/DX2                !
 ! D46   D(2,8,14,27)           81.1206         estimate D2E/DX2                !
 ! D47   D(13,8,14,27)         -39.3971         estimate D2E/DX2                !
 ! D48   D(15,8,14,27)        -160.2179         estimate D2E/DX2                !
 ! D49   D(2,8,15,26)          -54.9076         estimate D2E/DX2                !
 ! D50   D(13,8,15,26)          67.168          estimate D2E/DX2                !
 ! D51   D(14,8,15,26)        -171.403          estimate D2E/DX2                !
 ! D52   D(5,9,10,23)          -94.373          estimate D2E/DX2                !
 ! D53   D(11,9,10,23)          26.6721         estimate D2E/DX2                !
 ! D54   D(12,9,10,23)         149.4206         estimate D2E/DX2                !
 ! D55   D(5,9,11,24)          -42.1576         estimate D2E/DX2                !
 ! D56   D(10,9,11,24)        -165.6997         estimate D2E/DX2                !
 ! D57   D(12,9,11,24)          75.5819         estimate D2E/DX2                !
 ! D58   D(5,9,12,22)         -165.3213         estimate D2E/DX2                !
 ! D59   D(10,9,12,22)         -43.1978         estimate D2E/DX2                !
 ! D60   D(11,9,12,22)          73.8592         estimate D2E/DX2                !
 --------------------------------------------------------------------------------
 Trust Radius=3.00D-01 FncErr=1.00D-07 GrdErr=1.00D-06 EigMax=2.50D+02 EigMin=1.00D-04
 Number of steps in this run=    148 maximum allowed number of steps=    198.
 GradGradGradGradGradGradGradGradGradGradGradGradGradGradGradGradGradGrad

                          Input orientation:                          
 ---------------------------------------------------------------------
 Center     Atomic      Atomic             Coordinates (Angstroms)
 Number     Number       Type             X           Y           Z
 ---------------------------------------------------------------------
      1         40           0        0.646460   -0.190130   -0.151900
      2          8           0       -0.192120   -0.931310    1.439390
      3          8           0        0.172630    1.703950   -0.190400
      4          8           0       -0.377720   -1.016920   -1.628440
      5          8           0        2.567800   -0.578830   -0.268120
      6         14           0       -1.969240   -1.332160   -1.878290
      7         14           0       -0.989580    2.856810   -0.118090
      8         14           0       -1.674760   -1.051520    2.177060
      9         14           0        4.118460   -0.171960    0.060440
     10          8           0        4.857600    0.689890   -1.137190
     11          8           0        5.040810   -1.535520    0.252010
     12          8           0        4.027320    0.783620    1.404060
     13          8           0       -2.335740   -2.512450    1.830040
     14          8           0       -2.620900    0.209280    1.641490
     15          8           0       -1.552000   -0.824320    3.796500
     16          8           0       -2.254270   -1.591640   -3.481830
     17          8           0       -2.883710   -0.139120   -1.195570
     18          8           0       -2.460270   -2.685980   -1.045790
     19          8           0       -2.008250    2.456050   -1.396700
     20          8           0       -0.446230    4.381420   -0.415550
     21          8           0       -1.758350    2.867150    1.326420
     22          1           0        4.810350    1.299190    1.626960
     23          1           0        5.372320    0.177760   -1.771090
     24          1           0        4.657100   -2.261070    0.756560
     25          1           0       -2.407380   -2.745750    0.887120
     26          1           0       -0.933910   -1.385130    4.276380
     27          1           0       -3.029280    0.047050    0.770240
     28          1           0       -0.290290    4.933460    0.359240
     29          1           0       -2.094890    2.003210    1.642660
     30          1           0       -2.608600    3.158070   -1.677300
     31          1           0       -2.566020   -3.491430   -1.564360
     32          1           0       -1.552780   -1.337140   -4.091410
     33          1           0       -2.640460    0.789950   -1.408290
 ---------------------------------------------------------------------
                    Distance matrix (angstroms):
                    1          2          3          4          5
     1  Zr   0.000000
     2  O    1.945448   0.000000
     3  O    1.952828   3.119912   0.000000
     4  O    1.978054   3.074631   3.126336   0.000000
     5  O    1.963706   3.264505   3.309677   3.273909   0.000000
     6  Si   3.335647   3.784949   4.080998   1.641565   4.872872
     7  Si   3.458557   4.172714   1.638611   4.202537   4.947836
     8  Si   3.399134   1.660370   4.075577   4.020614   4.919518
     9  Si   3.478535   4.589032   4.376246   4.876670   1.636472
    10  O    4.413494   5.896332   4.886069   5.528391   2.758282
    11  O    4.613408   5.399861   5.864219   5.758950   2.702142
    12  O    3.847001   4.554768   4.271761   5.642905   2.604353
    13  O    4.267877   2.692159   5.305858   4.246356   5.673259
    14  O    3.748522   2.690866   3.659736   4.150646   5.584831
    15  O    4.563473   2.723360   5.026119   5.553918   5.792595
    16  O    4.633238   5.376514   5.252073   2.699407   5.882693
    17  O    3.681569   3.849056   3.707895   2.690334   5.547294
    18  O    4.084125   3.794666   5.189927   2.731713   5.506936
    19  O    3.949592   4.776604   2.603277   3.843677   5.605749
    20  O    4.707712   5.632981   2.757268   5.533342   5.806048
    21  O    4.161190   4.110248   2.717068   5.071818   5.756119
    22  H    4.766592   5.480421   4.997507   6.548134   3.485300
    23  H    5.009079   6.519219   5.644875   5.874570   3.270578
    24  H    4.604273   5.074392   6.060412   5.708375   2.871424
    25  H    4.115422   2.916260   5.255219   3.665572   5.548201
    26  H    4.851315   2.967274   5.542470   5.942375   5.793494
    27  H    3.797060   3.074805   3.731002   3.730478   5.726886
    28  H    5.233540   5.964217   3.308494   6.274196   6.240801
    29  H    3.942865   3.503321   2.931094   4.771787   5.662039
    30  H    4.912505   5.681211   3.472834   4.733894   6.537991
    31  H    4.818055   4.605663   6.031579   3.303931   6.043144
    32  H    4.655322   5.710153   5.238621   2.747640   5.672016
    33  H    3.652796   4.131148   3.198770   2.904004   5.504500
                    6          7          8          9         10
     6  Si   0.000000
     7  Si   4.648172   0.000000
     8  Si   4.075701   4.583910   0.000000
     9  Si   6.493445   5.941161   6.230177   0.000000
    10  O    7.158468   6.318514   7.529176   1.650282   0.000000
    11  O    7.329416   7.469614   7.002782   1.657324   2.629808
    12  O    7.156052   5.637760   6.039783   1.651289   2.675089
    13  O    3.908851   5.868246   1.640620   7.089857   8.414486
    14  O    3.897377   3.573058   1.664822   6.932823   7.992497
    15  O    5.712725   5.402874   1.639901   6.821864   8.229040
    16  O    1.649216   5.718645   5.714070   7.427978   7.828244
    17  O    1.650971   3.704631   3.697116   7.114002   7.785791
    18  O    1.663429   5.809137   3.698006   7.129076   8.059533
    19  O    3.818898   1.683194   5.018568   6.823948   7.094122
    20  O    6.091319   1.645645   6.143920   6.465000   6.502213
    21  O    5.286667   1.636375   4.010804   6.736155   7.387870
    22  H    8.073018   6.253844   6.919906   2.257649   2.830902
    23  H    7.495989   7.098133   8.170701   2.246992   0.963869
    24  H    7.191223   7.670900   6.601006   2.266958   3.512073
    25  H    3.136510   5.865943   2.251909   7.063596   8.287423
    26  H    6.241368   6.108070   2.251066   6.691216   8.194757
    27  H    3.168693   3.583889   2.240697   7.186235   8.139681
    28  H    6.861735   2.242616   6.406342   6.752160   6.837248
    29  H    4.851553   2.247350   3.129452   6.770561   7.601940
    30  H    4.539972   2.267845   5.783493   7.704685   7.882117
    31  H    2.262111   6.699031   4.554748   7.638136   8.530888
    32  H    2.251969   5.804626   6.276159   7.124498   7.343653
    33  H    2.274816   2.943116   4.144674   6.983225   7.503627
                   11         12         13         14         15
    11  O    0.000000
    12  O    2.780790   0.000000
    13  O    7.606449   7.178723   0.000000
    14  O    7.979773   6.677205   2.743115   0.000000
    15  O    7.518933   6.279972   2.707581   2.618195   0.000000
    16  O    8.195298   8.304948   5.391706   5.442990   7.352282
    17  O    8.175784   7.441227   3.884235   2.870429   5.211882
    18  O    7.698964   7.754271   2.883751   3.953455   5.266736
    19  O    8.266808   6.860713   5.933388   3.828043   6.159409
    20  O    8.097124   6.022275   7.492554   5.134915   6.787033
    21  O    8.171073   6.149886   5.433885   2.812034   4.446440
    22  H    3.158984   0.963656   8.101632   7.510765   7.049517
    23  H    2.671734   3.501095   8.922979   8.691275   8.941389
    24  H    0.963445   3.175849   7.079220   7.736602   7.061049
    25  H    7.572553   7.357244   0.973991   3.057265   3.589994
    26  H    7.205238   6.129233   3.036537   3.511513   0.962719
    27  H    8.240112   7.123192   2.855734   0.975792   3.478490
    28  H    8.383306   6.079028   7.860578   5.421604   6.823394
    29  H    8.085464   6.247062   4.525959   1.869458   3.595648
    30  H    9.179624   7.692089   6.673131   4.439581   6.851155
    31  H    8.061554   8.399982   3.540252   4.896503   6.072934
    32  H    7.898106   8.113897   6.087524   6.033112   7.904563
    33  H    8.195506   7.236618   4.635243   3.104629   5.557018
                   16         17         18         19         20
    16  O    0.000000
    17  O    2.780826   0.000000
    18  O    2.678490   2.586162   0.000000
    19  O    4.559834   2.746232   5.173774   0.000000
    20  O    6.953311   5.194711   7.375751   2.666385   0.000000
    21  O    6.576170   4.082221   6.079254   2.765291   2.655020
    22  H    9.185069   8.320695   8.711320   7.548122   6.426789
    23  H    8.013881   8.282129   8.371173   7.733278   7.305051
    24  H    8.135055   8.073246   7.354316   8.444800   8.458161
    25  H    4.521409   3.370313   1.934557   5.695073   7.505972
    26  H    7.872472   5.941086   5.687484   6.934891   7.450177
    27  H    4.622342   1.979964   3.330344   3.397265   5.183147
    28  H    7.822274   5.905449   8.046042   3.488878   0.964036
    29  H    6.261689   3.642439   5.417543   3.074131   3.551083
    30  H    5.093292   3.343533   5.879943   0.965396   2.786475
    31  H    2.717183   3.387464   0.963767   5.975930   8.233774
    32  H    0.963559   3.404778   3.452348   4.675169   6.887549
    33  H    3.181302   0.983662   3.499423   1.782053   4.324215
                   21         22         23         24         25
    21  O    0.000000
    22  H    6.759929   0.000000
    23  H    8.226411   3.622176   0.000000
    24  H    8.232945   3.668315   3.584473   0.000000
    25  H    5.667351   8.306896   8.725636   7.082290   0.000000
    26  H    5.240596   6.871792   8.875982   6.664518   3.938208
    27  H    3.142859   7.985087   8.778515   8.025462   2.863591
    28  H    2.712983   6.389958   7.695462   8.740469   7.983169
    29  H    0.979622   6.941054   8.411016   8.034838   4.818829
    30  H    3.135266   8.331530   8.519749   9.385156   6.439863
    31  H    7.031392   9.356570   8.747739   7.685956   2.567286
    32  H    6.860845   8.952062   7.458942   7.932154   5.244071
    33  H    3.545633   8.061429   8.044317   8.200590   4.221896
                   26         27         28         29         30
    26  H    0.000000
    27  H    4.328364   0.000000
    28  H    7.462092   5.616760   0.000000
    29  H    4.445807   2.336828   3.672889   0.000000
    30  H    7.674084   3.980687   3.560065   3.552426   0.000000
    31  H    6.419854   4.264482   8.936328   6.379499   6.650595
    32  H    8.390781   5.266087   7.792470   6.658181   5.210527
    33  H    6.321294   2.334325   5.080958   3.328354   2.383563
                   31         32         33
    31  H    0.000000
    32  H    3.471830   0.000000
    33  H    4.284870   3.592589   0.000000
 Stoichiometry    H12O16Si4Zr
 Framework group  C1[X(H12O16Si4Zr)]
 Deg. of freedom    93
 Full point group                 C1      NOp   1
 Largest Abelian subgroup         C1      NOp   1
 Largest concise Abelian subgroup C1      NOp   1
                         Standard orientation:                         
 ---------------------------------------------------------------------
 Center     Atomic      Atomic             Coordinates (Angstroms)
 Number     Number       Type             X           Y           Z
 ---------------------------------------------------------------------
      1         40           0        0.641055   -0.252767   -0.189599
      2          8           0       -0.196919   -0.977904    1.409383
      3          8           0        0.259321    1.662387   -0.188915
      4          8           0       -0.454882   -1.005305   -1.654285
      5          8           0        2.538104   -0.732030   -0.355889
      6         14           0       -2.065049   -1.239159   -1.872031
      7         14           0       -0.843441    2.868804   -0.072636
      8         14           0       -1.666824   -1.038060    2.179181
      9         14           0        4.113690   -0.405949   -0.057154
     10          8           0        4.867030    0.438209   -1.258532
     11          8           0        4.972561   -1.815416    0.092738
     12          8           0        4.099218    0.531285    1.302308
     13          8           0       -2.405771   -2.459567    1.825757
     14          8           0       -2.562133    0.275440    1.684435
     15          8           0       -1.497034   -0.843022    3.798566
     16          8           0       -2.398094   -1.458840   -3.472260
     17          8           0       -2.904848   -0.014370   -1.150687
     18          8           0       -2.602751   -2.580801   -1.048703
     19          8           0       -1.908704    2.538307   -1.333242
     20          8           0       -0.233234    4.369917   -0.359786
     21          8           0       -1.578368    2.893184    1.389215
     22          1           0        4.911214    1.004744    1.514749
     23          1           0        5.341915   -0.088002   -1.911701
     24          1           0        4.565314   -2.529544    0.595131
     25          1           0       -2.509715   -2.674001    0.881366
     26          1           0       -0.896444   -1.440683    4.255647
     27          1           0       -2.997272    0.147123    0.820515
     28          1           0       -0.033334    4.901292    0.419345
     29          1           0       -1.949457    2.041580    1.700218
     30          1           0       -2.480252    3.272945   -1.589422
     31          1           0       -2.759160   -3.371787   -1.576647
     32          1           0       -1.698816   -1.228839   -4.093996
     33          1           0       -2.621432    0.905134   -1.355086
 ---------------------------------------------------------------------
 Rotational constants (GHZ):           0.2140686           0.1364266           0.1268445
 General basis read from cards:  (5D, 7F)
 ======================================================================================================
                                       Pseudopotential Parameters
 ======================================================================================================
  Center     Atomic      Valence      Angular      Power
  Number     Number     Electrons     Momentum     of R      Exponent        Coefficient   SO-Coeffient
 ======================================================================================================
    1         40           12
                                      G and up 
                                                     2        1.0000000        0.00000000    0.00000000
                                      S - G
                                                     2        8.6365280      150.24299400    0.00000000
                                                     2        3.7176390       18.78003600    0.00000000
                                      P - G
                                                     2        7.6267280       33.19279100    0.00000000
                                                     2        7.4532070       66.38903900    0.00000000
                                                     2        3.3583890        4.62072600    0.00000000
                                                     2        3.2297380        9.26027000    0.00000000
                                      D - G
                                                     2        5.9380860       13.99338300    0.00000000
                                                     2        5.8255440       20.99588200    0.00000000
                                                     2        2.2050190        2.28516600    0.00000000
                                                     2        2.2062920        3.44126000    0.00000000
                                      F - G
                                                     2        4.8002150       -5.23932000    0.00000000
                                                     2        4.7989920       -6.98742400    0.00000000
    2          8
                                   No pseudopotential on this center.
    3          8
                                   No pseudopotential on this center.
    4          8
                                   No pseudopotential on this center.
    5          8
                                   No pseudopotential on this center.
    6         14
                                   No pseudopotential on this center.
    7         14
                                   No pseudopotential on this center.
    8         14
                                   No pseudopotential on this center.
    9         14
                                   No pseudopotential on this center.
   10          8
                                   No pseudopotential on this center.
   11          8
                                   No pseudopotential on this center.
   12          8
                                   No pseudopotential on this center.
   13          8
                                   No pseudopotential on this center.
   14          8
                                   No pseudopotential on this center.
   15          8
                                   No pseudopotential on this center.
   16          8
                                   No pseudopotential on this center.
   17          8
                                   No pseudopotential on this center.
   18          8
                                   No pseudopotential on this center.
   19          8
                                   No pseudopotential on this center.
   20          8
                                   No pseudopotential on this center.
   21          8
                                   No pseudopotential on this center.
   22          1
                                   No pseudopotential on this center.
   23          1
                                   No pseudopotential on this center.
   24          1
                                   No pseudopotential on this center.
   25          1
                                   No pseudopotential on this center.
   26          1
                                   No pseudopotential on this center.
   27          1
                                   No pseudopotential on this center.
   28          1
                                   No pseudopotential on this center.
   29          1
                                   No pseudopotential on this center.
   30          1
                                   No pseudopotential on this center.
   31          1
                                   No pseudopotential on this center.
   32          1
                                   No pseudopotential on this center.
   33          1
                                   No pseudopotential on this center.
 ======================================================================================================
 There are   570 symmetry adapted cartesian basis functions of A   symmetry.
 There are   524 symmetry adapted basis functions of A   symmetry.
   524 basis functions,  1074 primitive gaussians,   570 cartesian basis functions
   104 alpha electrons      104 beta electrons
       nuclear repulsion energy      2844.5887036486 Hartrees.
 NAtoms=   33 NActive=   33 NUniq=   33 SFac= 1.00D+00 NAtFMM=   60 NAOKFM=F Big=F
 Integral buffers will be    131072 words long.
 Raffenetti 2 integral format.
 Two-electron integral symmetry is turned on.
 Nuclear repulsion after empirical dispersion term =     2844.5476984363 Hartrees.
 One-electron integrals computed using PRISM.
 PrsmSu:  requested number of processors reduced to:   4 ShMem   1 Linda.
   1 Symmetry operations used in ECPInt.
 ECPInt:  NShTT=   13203 NPrTT=   78401 LenC2=   11555 LenP2D=   44828.
 LDataN:  DoStor=T MaxTD1= 8 Len=  415
 Number of processors reduced to  13 by ecpmxn.
 NBasis=   524 RedAO= T EigKep=  3.07D-05  NBF=   524
 NBsUse=   524 1.00D-06 EigRej= -1.00D+00 NBFU=   524
 Defaulting to unpruned grid for atomic number  40.
 ExpMin= 1.01D-02 ExpMax= 1.61D+04 ExpMxC= 2.43D+03 IAcc=3 IRadAn=         5 AccDes= 0.00D+00
 Harris functional with IExCor=  402 and IRadAn=       5 diagonalized for initial guess.
 HarFok:  IExCor=  402 AccDes= 0.00D+00 IRadAn=         5 IDoV= 1 UseB2=F ITyADJ=14
 ICtDFT=  3500011 ScaDFX=  1.000000  1.000000  1.000000  1.000000
 Defaulting to unpruned grid for atomic number  40.
 FoFCou: FMM=F IPFlag=           0 FMFlag=      100000 FMFlg1=           0
         NFxFlg=           0 DoJE=T BraDBF=F KetDBF=T FulRan=T
         wScrn=  0.000000 ICntrl=       500 IOpCl=  0 I1Cent=   200000004 NGrid=           0
         NMat0=    1 NMatS0=      1 NMatT0=    0 NMatD0=    1 NMtDS0=    0 NMtDT0=    0
 Petite list used in FoFCou.
 Requested convergence on RMS density matrix=1.00D-08 within 128 cycles.
 Requested convergence on MAX density matrix=1.00D-06.
 Requested convergence on             energy=1.00D-06.
 No special actions if energy rises.
 Defaulting to unpruned grid for atomic number  40.
 Defaulting to unpruned grid for atomic number  40.
 Defaulting to unpruned grid for atomic number  40.
 Defaulting to unpruned grid for atomic number  40.
 Defaulting to unpruned grid for atomic number  40.
 Defaulting to unpruned grid for atomic number  40.
 Defaulting to unpruned grid for atomic number  40.
 Defaulting to unpruned grid for atomic number  40.
 Defaulting to unpruned grid for atomic number  40.
 Defaulting to unpruned grid for atomic number  40.
 Defaulting to unpruned grid for atomic number  40.
 Defaulting to unpruned grid for atomic number  40.
 Defaulting to unpruned grid for atomic number  40.
 Defaulting to unpruned grid for atomic number  40.
 Defaulting to unpruned grid for atomic number  40.
 Defaulting to unpruned grid for atomic number  40.
 SCF Done:  E(RB3LYP) =  -2416.94579804     A.U. after   14 cycles
            NFock= 14  Conv=0.34D-08     -V/T= 2.0185

 **********************************************************************

            Population analysis using the SCF Density.

 **********************************************************************

 Orbital symmetries:
       Occupied  (A) (A) (A) (A) (A) (A) (A) (A) (A) (A) (A) (A)
                 (A) (A) (A) (A) (A) (A) (A) (A) (A) (A) (A) (A)
                 (A) (A) (A) (A) (A) (A) (A) (A) (A) (A) (A) (A)
                 (A) (A) (A) (A) (A) (A) (A) (A) (A) (A) (A) (A)
                 (A) (A) (A) (A) (A) (A) (A) (A) (A) (A) (A) (A)
                 (A) (A) (A) (A) (A) (A) (A) (A) (A) (A) (A) (A)
                 (A) (A) (A) (A) (A) (A) (A) (A) (A) (A) (A) (A)
                 (A) (A) (A) (A) (A) (A) (A) (A) (A) (A) (A) (A)
                 (A) (A) (A) (A) (A) (A) (A) (A)
       Virtual   (A) (A) (A) (A) (A) (A) (A) (A) (A) (A) (A) (A)
                 (A) (A) (A) (A) (A) (A) (A) (A) (A) (A) (A) (A)
                 (A) (A) (A) (A) (A) (A) (A) (A) (A) (A) (A) (A)
                 (A) (A) (A) (A) (A) (A) (A) (A) (A) (A) (A) (A)
                 (A) (A) (A) (A) (A) (A) (A) (A) (A) (A) (A) (A)
                 (A) (A) (A) (A) (A) (A) (A) (A) (A) (A) (A) (A)
                 (A) (A) (A) (A) (A) (A) (A) (A) (A) (A) (A) (A)
                 (A) (A) (A) (A) (A) (A) (A) (A) (A) (A) (A) (A)
                 (A) (A) (A) (A) (A) (A) (A) (A) (A) (A) (A) (A)
                 (A) (A) (A) (A) (A) (A) (A) (A) (A) (A) (A) (A)
                 (A) (A) (A) (A) (A) (A) (A) (A) (A) (A) (A) (A)
                 (A) (A) (A) (A) (A) (A) (A) (A) (A) (A) (A) (A)
                 (A) (A) (A) (A) (A) (A) (A) (A) (A) (A) (A) (A)
                 (A) (A) (A) (A) (A) (A) (A) (A) (A) (A) (A) (A)
                 (A) (A) (A) (A) (A) (A) (A) (A) (A) (A) (A) (A)
                 (A) (A) (A) (A) (A) (A) (A) (A) (A) (A) (A) (A)
                 (A) (A) (A) (A) (A) (A) (A) (A) (A) (A) (A) (A)
                 (A) (A) (A) (A) (A) (A) (A) (A) (A) (A) (A) (A)
                 (A) (A) (A) (A) (A) (A) (A) (A) (A) (A) (A) (A)
                 (A) (A) (A) (A) (A) (A) (A) (A) (A) (A) (A) (A)
                 (A) (A) (A) (A) (A) (A) (A) (A) (A) (A) (A) (A)
                 (A) (A) (A) (A) (A) (A) (A) (A) (A) (A) (A) (A)
                 (A) (A) (A) (A) (A) (A) (A) (A) (A) (A) (A) (A)
                 (A) (A) (A) (A) (A) (A) (A) (A) (A) (A) (A) (A)
                 (A) (A) (A) (A) (A) (A) (A) (A) (A) (A) (A) (A)
                 (A) (A) (A) (A) (A) (A) (A) (A) (A) (A) (A) (A)
                 (A) (A) (A) (A) (A) (A) (A) (A) (A) (A) (A) (A)
                 (A) (A) (A) (A) (A) (A) (A) (A) (A) (A) (A) (A)
                 (A) (A) (A) (A) (A) (A) (A) (A) (A) (A) (A) (A)
                 (A) (A) (A) (A) (A) (A) (A) (A) (A) (A) (A) (A)
                 (A) (A) (A) (A) (A) (A) (A) (A) (A) (A) (A) (A)
                 (A) (A) (A) (A) (A) (A) (A) (A) (A) (A) (A) (A)
                 (A) (A) (A) (A) (A) (A) (A) (A) (A) (A) (A) (A)
                 (A) (A) (A) (A) (A) (A) (A) (A) (A) (A) (A) (A)
                 (A) (A) (A) (A) (A) (A) (A) (A) (A) (A) (A) (A)
 The electronic state is 1-A.
 Alpha  occ. eigenvalues --  -66.22733 -66.21686 -66.21673 -66.20957 -19.18473
 Alpha  occ. eigenvalues --  -19.18289 -19.17751 -19.16907 -19.16775 -19.16657
 Alpha  occ. eigenvalues --  -19.16629 -19.16603 -19.16117 -19.15948 -19.15927
 Alpha  occ. eigenvalues --  -19.15476 -19.15473 -19.15208 -19.14806 -19.14556
 Alpha  occ. eigenvalues --   -5.36792  -5.35767  -5.35763  -5.35014  -3.72778
 Alpha  occ. eigenvalues --   -3.72752  -3.72698  -3.71757  -3.71728  -3.71722
 Alpha  occ. eigenvalues --   -3.71711  -3.71687  -3.71677  -3.70995  -3.70976
 Alpha  occ. eigenvalues --   -3.70923  -2.13282  -1.29533  -1.29457  -1.29293
 Alpha  occ. eigenvalues --   -1.05591  -1.04705  -1.04403  -1.03451  -1.02486
 Alpha  occ. eigenvalues --   -1.02089  -1.01393  -1.01238  -1.00979  -1.00635
 Alpha  occ. eigenvalues --   -0.99750  -0.99277  -0.97373  -0.96233  -0.95747
 Alpha  occ. eigenvalues --   -0.95237  -0.60856  -0.59215  -0.59058  -0.58880
 Alpha  occ. eigenvalues --   -0.55510  -0.54462  -0.54125  -0.53274  -0.53035
 Alpha  occ. eigenvalues --   -0.52522  -0.51802  -0.50121  -0.48602  -0.47778
 Alpha  occ. eigenvalues --   -0.47435  -0.46988  -0.43343  -0.42796  -0.41778
 Alpha  occ. eigenvalues --   -0.41489  -0.41257  -0.40498  -0.39795  -0.39426
 Alpha  occ. eigenvalues --   -0.38971  -0.38833  -0.38620  -0.38156  -0.37989
 Alpha  occ. eigenvalues --   -0.37588  -0.37405  -0.37035  -0.36505  -0.36391
 Alpha  occ. eigenvalues --   -0.36172  -0.35840  -0.35406  -0.35290  -0.34910
 Alpha  occ. eigenvalues --   -0.34419  -0.34029  -0.33755  -0.33566  -0.33041
 Alpha  occ. eigenvalues --   -0.32695  -0.32247  -0.31948  -0.31244
 Alpha virt. eigenvalues --   -0.04366  -0.03098  -0.02990  -0.02915  -0.02034
 Alpha virt. eigenvalues --   -0.01309  -0.00498  -0.00152  -0.00064   0.00234
 Alpha virt. eigenvalues --    0.00722   0.00921   0.01018   0.01920   0.02207
 Alpha virt. eigenvalues --    0.02880   0.03306   0.03852   0.03893   0.04147
 Alpha virt. eigenvalues --    0.04428   0.04799   0.05848   0.06015   0.06131
 Alpha virt. eigenvalues --    0.06440   0.06920   0.07574   0.07658   0.08338
 Alpha virt. eigenvalues --    0.08621   0.08813   0.09162   0.09510   0.09891
 Alpha virt. eigenvalues --    0.10376   0.10675   0.10954   0.11112   0.11581
 Alpha virt. eigenvalues --    0.11880   0.12557   0.13096   0.13479   0.13739
 Alpha virt. eigenvalues --    0.14042   0.14162   0.14843   0.14937   0.15288
 Alpha virt. eigenvalues --    0.15559   0.15661   0.16231   0.16587   0.16904
 Alpha virt. eigenvalues --    0.17125   0.17410   0.17601   0.17735   0.18497
 Alpha virt. eigenvalues --    0.18658   0.18838   0.19114   0.19423   0.19668
 Alpha virt. eigenvalues --    0.20068   0.20353   0.20940   0.21253   0.21393
 Alpha virt. eigenvalues --    0.21581   0.21894   0.22331   0.22437   0.23279
 Alpha virt. eigenvalues --    0.23601   0.23948   0.24119   0.24498   0.24674
 Alpha virt. eigenvalues --    0.24937   0.25732   0.25764   0.26072   0.26116
 Alpha virt. eigenvalues --    0.26666   0.26756   0.26814   0.27259   0.27653
 Alpha virt. eigenvalues --    0.27869   0.28393   0.28570   0.28744   0.28863
 Alpha virt. eigenvalues --    0.29612   0.29991   0.30185   0.30578   0.30776
 Alpha virt. eigenvalues --    0.30812   0.31134   0.31636   0.31866   0.32358
 Alpha virt. eigenvalues --    0.32487   0.32906   0.33243   0.33629   0.34112
 Alpha virt. eigenvalues --    0.34333   0.35064   0.35336   0.35964   0.36540
 Alpha virt. eigenvalues --    0.36861   0.37669   0.38570   0.38900   0.39323
 Alpha virt. eigenvalues --    0.39536   0.40152   0.40279   0.40998   0.41283
 Alpha virt. eigenvalues --    0.41951   0.41991   0.43100   0.43899   0.44102
 Alpha virt. eigenvalues --    0.45159   0.45961   0.46271   0.46589   0.46994
 Alpha virt. eigenvalues --    0.47361   0.48545   0.48657   0.49150   0.49862
 Alpha virt. eigenvalues --    0.50112   0.50753   0.51809   0.52238   0.53466
 Alpha virt. eigenvalues --    0.53976   0.54352   0.55612   0.56558   0.57071
 Alpha virt. eigenvalues --    0.57433   0.58482   0.59092   0.60208   0.60427
 Alpha virt. eigenvalues --    0.60827   0.61498   0.61987   0.65195   0.66059
 Alpha virt. eigenvalues --    0.66649   0.66959   0.68161   0.68924   0.69351
 Alpha virt. eigenvalues --    0.70551   0.71162   0.73027   0.73546   0.74765
 Alpha virt. eigenvalues --    0.75470   0.77116   0.78373   0.78743   0.80040
 Alpha virt. eigenvalues --    0.80816   0.81882   0.83497   0.83613   0.85640
 Alpha virt. eigenvalues --    0.86480   0.87889   0.90110   0.90791   0.91146
 Alpha virt. eigenvalues --    0.93432   0.95916   0.96175   0.96840   0.97511
 Alpha virt. eigenvalues --    0.97870   0.98336   0.98948   0.99396   1.00159
 Alpha virt. eigenvalues --    1.00772   1.01113   1.01842   1.03492   1.03524
 Alpha virt. eigenvalues --    1.04487   1.04738   1.05531   1.07142   1.08073
 Alpha virt. eigenvalues --    1.09682   1.11976   1.15262   1.16272   1.16809
 Alpha virt. eigenvalues --    1.18795   1.19308   1.20083   1.20354   1.20874
 Alpha virt. eigenvalues --    1.21804   1.22148   1.22384   1.22547   1.23680
 Alpha virt. eigenvalues --    1.24185   1.24200   1.24355   1.25147   1.25504
 Alpha virt. eigenvalues --    1.26177   1.26638   1.27795   1.27936   1.28684
 Alpha virt. eigenvalues --    1.29289   1.29504   1.30471   1.30850   1.31677
 Alpha virt. eigenvalues --    1.32027   1.32636   1.33708   1.34125   1.35000
 Alpha virt. eigenvalues --    1.35699   1.36418   1.36757   1.37264   1.38430
 Alpha virt. eigenvalues --    1.39315   1.39645   1.40265   1.40721   1.41441
 Alpha virt. eigenvalues --    1.42028   1.42702   1.43878   1.44823   1.45544
 Alpha virt. eigenvalues --    1.47269   1.49412   1.50934   1.51875   1.52846
 Alpha virt. eigenvalues --    1.56527   1.57039   1.58670   1.59318   1.59430
 Alpha virt. eigenvalues --    1.60368   1.60935   1.61017   1.62082   1.62910
 Alpha virt. eigenvalues --    1.63476   1.64550   1.64959   1.66154   1.66225
 Alpha virt. eigenvalues --    1.67433   1.67915   1.68604   1.69764   1.70346
 Alpha virt. eigenvalues --    1.70841   1.71240   1.71447   1.72749   1.73408
 Alpha virt. eigenvalues --    1.74244   1.75203   1.75699   1.76275   1.76568
 Alpha virt. eigenvalues --    1.76839   1.77920   1.79097   1.79571   1.79898
 Alpha virt. eigenvalues --    1.80351   1.81071   1.82252   1.82590   1.83067
 Alpha virt. eigenvalues --    1.83634   1.84285   1.84669   1.85990   1.86313
 Alpha virt. eigenvalues --    1.87176   1.88082   1.88764   1.89892   1.90311
 Alpha virt. eigenvalues --    1.90904   1.91931   1.92856   1.92886   1.93628
 Alpha virt. eigenvalues --    1.94129   1.95013   1.96019   1.97275   1.97926
 Alpha virt. eigenvalues --    1.98697   2.00179   2.00689   2.03330   2.05361
 Alpha virt. eigenvalues --    2.06459   2.07998   2.09075   2.10252   2.10998
 Alpha virt. eigenvalues --    2.11734   2.13479   2.14018   2.15658   2.16077
 Alpha virt. eigenvalues --    2.16514   2.19903   2.19963   2.21899   2.26047
 Alpha virt. eigenvalues --    2.32028   2.33157   2.36412   2.39525   2.40149
 Alpha virt. eigenvalues --    2.40836   2.41453   2.42270   2.43071   2.43456
 Alpha virt. eigenvalues --    2.44110   2.45402   2.46044   2.47975   2.49144
 Alpha virt. eigenvalues --    2.49365   2.50434   2.50877   2.53044   2.53513
 Alpha virt. eigenvalues --    2.54677   2.57937   2.59963   2.60162   2.60849
 Alpha virt. eigenvalues --    2.61145   2.61571   2.61818   2.62285   2.62893
 Alpha virt. eigenvalues --    2.63326   2.63601   2.65035   2.65384   2.65686
 Alpha virt. eigenvalues --    2.66520   2.66674   2.67378   2.67794   2.68022
 Alpha virt. eigenvalues --    2.69488   2.71117   2.71304   2.72045   2.73375
 Alpha virt. eigenvalues --    2.74385   2.75547   2.76397   2.77215   2.78131
 Alpha virt. eigenvalues --    2.79606   2.80367   2.81370   2.83143   2.83604
 Alpha virt. eigenvalues --    2.83783   2.85175   2.86719   2.87782   2.88208
 Alpha virt. eigenvalues --    3.15982   3.23241   3.37110   3.40262   3.46380
 Alpha virt. eigenvalues --    3.47737   3.48782   3.48955   3.49020   3.51744
 Alpha virt. eigenvalues --    3.52779   3.54042   3.60019   3.61252   3.62181
 Alpha virt. eigenvalues --    3.65914   4.39036   4.81258   7.64426  31.20705
          Condensed to atoms (all electrons):
               1          2          3          4          5          6
     1  Zr  15.436115  -0.072232   0.001144  -0.163804  -0.140979  -0.765719
     2  O   -0.072232   8.847053   0.012884  -0.045614  -0.050537   0.069569
     3  O    0.001144   0.012884   8.841454   0.014187  -0.051509  -0.005101
     4  O   -0.163804  -0.045614   0.014187   8.842469  -0.066039  -0.742214
     5  O   -0.140979  -0.050537  -0.051509  -0.066039   9.267137  -0.003321
     6  Si  -0.765719   0.069569  -0.005101  -0.742214  -0.003321  14.235766
     7  Si  -0.615991  -0.017656  -0.898254  -0.012199  -0.030341   0.108375
     8  Si  -0.683739  -0.731868  -0.028949   0.075165  -0.010016   0.023681
     9  Si  -0.422824  -0.019148   0.010387  -0.005860  -1.050974   0.056078
    10  O   -0.037417   0.000497  -0.002270  -0.000579   0.114625  -0.001291
    11  O   -0.127434   0.001785   0.003148   0.002053   0.328730   0.000133
    12  O    0.059062   0.001392   0.007595   0.001410   0.118189  -0.003356
    13  O    0.009320   0.263440   0.001333  -0.014547  -0.000607   0.021451
    14  O   -0.062745   0.245053  -0.018518  -0.003312  -0.000022   0.015067
    15  O   -0.062422   0.250618   0.000404   0.002509   0.000756  -0.003377
    16  O   -0.120644   0.005460  -0.000344   0.348212   0.003074  -0.451259
    17  O   -0.116426  -0.038584   0.009200   0.212679  -0.000009  -0.432150
    18  O   -0.043496  -0.019910   0.003461   0.218985  -0.001252  -0.485734
    19  O    0.001422   0.007974   0.281361   0.014523   0.002340  -0.009457
    20  O   -0.136128  -0.000803   0.148254  -0.000513   0.001016   0.010375
    21  O    0.040740   0.011048   0.161219   0.004164   0.000690  -0.017243
    22  H   -0.015030   0.000008   0.000107  -0.000002   0.005267   0.000157
    23  H   -0.006600  -0.000009  -0.000002  -0.000031  -0.024046   0.000131
    24  H   -0.007142  -0.000040   0.000006   0.000011  -0.002247   0.000122
    25  H    0.019996  -0.021696  -0.000122  -0.001243  -0.000014   0.001493
    26  H   -0.007853  -0.012394   0.000014  -0.000012  -0.000020   0.000146
    27  H    0.011657  -0.020852   0.000752  -0.001562   0.000040   0.008874
    28  H    0.004285  -0.000012  -0.017564  -0.000014  -0.000008  -0.000301
    29  H   -0.000586  -0.005070  -0.019642  -0.000195  -0.000054   0.000632
    30  H   -0.000313  -0.000008  -0.000109  -0.000513  -0.000007  -0.000560
    31  H    0.003985   0.000287  -0.000022  -0.018418  -0.000018   0.061531
    32  H    0.002818  -0.000030   0.000035   0.011467   0.000012   0.018618
    33  H   -0.016285   0.000942  -0.010573  -0.009623  -0.000070   0.053743
               7          8          9         10         11         12
     1  Zr  -0.615991  -0.683739  -0.422824  -0.037417  -0.127434   0.059062
     2  O   -0.017656  -0.731868  -0.019148   0.000497   0.001785   0.001392
     3  O   -0.898254  -0.028949   0.010387  -0.002270   0.003148   0.007595
     4  O   -0.012199   0.075165  -0.005860  -0.000579   0.002053   0.001410
     5  O   -0.030341  -0.010016  -1.050974   0.114625   0.328730   0.118189
     6  Si   0.108375   0.023681   0.056078  -0.001291   0.000133  -0.003356
     7  Si  13.798563   0.176895   0.028817   0.001771  -0.000632   0.002355
     8  Si   0.176895  13.714235   0.044869  -0.001577   0.002396  -0.003352
     9  Si   0.028817   0.044869  13.901631  -0.007304  -0.182787  -0.207189
    10  O    0.001771  -0.001577  -0.007304   8.523450  -0.012379   0.049141
    11  O   -0.000632   0.002396  -0.182787  -0.012379   8.587165  -0.053804
    12  O    0.002355  -0.003352  -0.207189   0.049141  -0.053804   8.615876
    13  O    0.002192  -0.152701  -0.001318  -0.000001   0.000019  -0.000038
    14  O    0.022987  -0.477362  -0.000091  -0.000001   0.000008   0.000041
    15  O   -0.002374  -0.376381  -0.000545   0.000001  -0.000022   0.000076
    16  O    0.003724  -0.010729  -0.001544   0.000007  -0.000008  -0.000001
    17  O    0.002564   0.104625   0.003907   0.000007   0.000006  -0.000012
    18  O   -0.002167   0.083980   0.003807   0.000006   0.000005   0.000004
    19  O   -0.443244  -0.018711   0.000854   0.000006   0.000001  -0.000109
    20  O   -0.091108   0.009310   0.003728   0.000061  -0.000002  -0.000082
    21  O    0.009347  -0.049415  -0.002432  -0.000004   0.000004  -0.000029
    22  H    0.000040   0.000215   0.052328  -0.004962  -0.004870   0.221637
    23  H   -0.000025   0.000053   0.074974   0.232022  -0.004949   0.005362
    24  H    0.000046   0.000186   0.038991   0.007599   0.236758  -0.006754
    25  H   -0.000283   0.054423  -0.000197   0.000000  -0.000000   0.000000
    26  H    0.000552   0.063920  -0.000385   0.000000   0.000000  -0.000005
    27  H   -0.000072   0.074462  -0.000029   0.000000  -0.000000   0.000000
    28  H    0.055968   0.000082  -0.000169  -0.000000  -0.000000  -0.000005
    29  H    0.048530   0.023629  -0.000082   0.000000  -0.000000  -0.000001
    30  H    0.043213   0.000186   0.000002  -0.000000   0.000000   0.000000
    31  H    0.000096  -0.003077  -0.000060   0.000000  -0.000000   0.000000
    32  H   -0.000634   0.000158  -0.000026  -0.000000   0.000000  -0.000000
    33  H    0.021711   0.000087   0.000094  -0.000000  -0.000000   0.000000
              13         14         15         16         17         18
     1  Zr   0.009320  -0.062745  -0.062422  -0.120644  -0.116426  -0.043496
     2  O    0.263440   0.245053   0.250618   0.005460  -0.038584  -0.019910
     3  O    0.001333  -0.018518   0.000404  -0.000344   0.009200   0.003461
     4  O   -0.014547  -0.003312   0.002509   0.348212   0.212679   0.218985
     5  O   -0.000607  -0.000022   0.000756   0.003074  -0.000009  -0.001252
     6  Si   0.021451   0.015067  -0.003377  -0.451259  -0.432150  -0.485734
     7  Si   0.002192   0.022987  -0.002374   0.003724   0.002564  -0.002167
     8  Si  -0.152701  -0.477362  -0.376381  -0.010729   0.104625   0.083980
     9  Si  -0.001318  -0.000091  -0.000545  -0.001544   0.003907   0.003807
    10  O   -0.000001  -0.000001   0.000001   0.000007   0.000007   0.000006
    11  O    0.000019   0.000008  -0.000022  -0.000008   0.000006   0.000005
    12  O   -0.000038   0.000041   0.000076  -0.000001  -0.000012   0.000004
    13  O    8.642269   0.023886  -0.117461   0.003959  -0.028634  -0.042440
    14  O    0.023886   8.811149   0.155251   0.002448  -0.027733  -0.022847
    15  O   -0.117461   0.155251   8.783105  -0.000164   0.003900   0.001184
    16  O    0.003959   0.002448  -0.000164   8.910046  -0.096773  -0.101363
    17  O   -0.028634  -0.027733   0.003900  -0.096773   8.943276   0.225419
    18  O   -0.042440  -0.022847   0.001184  -0.101363   0.225419   9.038656
    19  O    0.000237   0.001393   0.000335  -0.000877  -0.030457   0.000155
    20  O    0.000008  -0.001174   0.000002   0.000040  -0.000879   0.000019
    21  O   -0.000423   0.025719   0.000769  -0.000164  -0.005980   0.000397
    22  H   -0.000000   0.000000   0.000001  -0.000000   0.000000  -0.000000
    23  H    0.000000   0.000000   0.000000  -0.000000   0.000000   0.000000
    24  H   -0.000000   0.000000   0.000001   0.000000  -0.000000  -0.000000
    25  H    0.217188  -0.009218   0.007471  -0.000266   0.000554   0.015156
    26  H   -0.006679   0.001091   0.225647   0.000000  -0.000022   0.000008
    27  H   -0.004539   0.206420   0.000059   0.000319   0.017610  -0.000850
    28  H    0.000000  -0.000003  -0.000001  -0.000000   0.000003   0.000000
    29  H    0.000778   0.014240  -0.001356  -0.000004  -0.000693  -0.000002
    30  H    0.000001   0.000008   0.000001   0.000104  -0.000420  -0.000010
    31  H    0.002306   0.000078  -0.000020   0.005068  -0.001241   0.215593
    32  H   -0.000007  -0.000007   0.000000   0.236386  -0.003421   0.003905
    33  H    0.000253   0.002044  -0.000056   0.000226   0.229918   0.002217
              19         20         21         22         23         24
     1  Zr   0.001422  -0.136128   0.040740  -0.015030  -0.006600  -0.007142
     2  O    0.007974  -0.000803   0.011048   0.000008  -0.000009  -0.000040
     3  O    0.281361   0.148254   0.161219   0.000107  -0.000002   0.000006
     4  O    0.014523  -0.000513   0.004164  -0.000002  -0.000031   0.000011
     5  O    0.002340   0.001016   0.000690   0.005267  -0.024046  -0.002247
     6  Si  -0.009457   0.010375  -0.017243   0.000157   0.000131   0.000122
     7  Si  -0.443244  -0.091108   0.009347   0.000040  -0.000025   0.000046
     8  Si  -0.018711   0.009310  -0.049415   0.000215   0.000053   0.000186
     9  Si   0.000854   0.003728  -0.002432   0.052328   0.074974   0.038991
    10  O    0.000006   0.000061  -0.000004  -0.004962   0.232022   0.007599
    11  O    0.000001  -0.000002   0.000004  -0.004870  -0.004949   0.236758
    12  O   -0.000109  -0.000082  -0.000029   0.221637   0.005362  -0.006754
    13  O    0.000237   0.000008  -0.000423  -0.000000   0.000000  -0.000000
    14  O    0.001393  -0.001174   0.025719   0.000000   0.000000   0.000000
    15  O    0.000335   0.000002   0.000769   0.000001   0.000000   0.000001
    16  O   -0.000877   0.000040  -0.000164  -0.000000  -0.000000   0.000000
    17  O   -0.030457  -0.000879  -0.005980   0.000000   0.000000  -0.000000
    18  O    0.000155   0.000019   0.000397  -0.000000   0.000000  -0.000000
    19  O    8.890125   0.033163   0.026882  -0.000000   0.000000  -0.000000
    20  O    0.033163   8.651835  -0.056031   0.000000   0.000000  -0.000000
    21  O    0.026882  -0.056031   8.488971  -0.000002   0.000000   0.000000
    22  H   -0.000000   0.000000  -0.000002   0.354275   0.000052   0.000110
    23  H    0.000000   0.000000   0.000000   0.000052   0.350607   0.000024
    24  H   -0.000000  -0.000000   0.000000   0.000110   0.000024   0.368466
    25  H   -0.000034   0.000000  -0.000011   0.000000   0.000000   0.000000
    26  H    0.000000  -0.000000   0.000046  -0.000000  -0.000000  -0.000000
    27  H   -0.000226   0.000226  -0.004745  -0.000000  -0.000000   0.000000
    28  H    0.004366   0.228911  -0.001494  -0.000000   0.000000  -0.000000
    29  H   -0.008595   0.008111   0.208509   0.000000  -0.000000  -0.000000
    30  H    0.222700  -0.001559  -0.007409   0.000000  -0.000000  -0.000000
    31  H    0.000002  -0.000000  -0.000000  -0.000000   0.000000   0.000000
    32  H    0.000089   0.000000   0.000001  -0.000000  -0.000000  -0.000000
    33  H    0.013179  -0.000041   0.001357  -0.000000  -0.000000  -0.000000
              25         26         27         28         29         30
     1  Zr   0.019996  -0.007853   0.011657   0.004285  -0.000586  -0.000313
     2  O   -0.021696  -0.012394  -0.020852  -0.000012  -0.005070  -0.000008
     3  O   -0.000122   0.000014   0.000752  -0.017564  -0.019642  -0.000109
     4  O   -0.001243  -0.000012  -0.001562  -0.000014  -0.000195  -0.000513
     5  O   -0.000014  -0.000020   0.000040  -0.000008  -0.000054  -0.000007
     6  Si   0.001493   0.000146   0.008874  -0.000301   0.000632  -0.000560
     7  Si  -0.000283   0.000552  -0.000072   0.055968   0.048530   0.043213
     8  Si   0.054423   0.063920   0.074462   0.000082   0.023629   0.000186
     9  Si  -0.000197  -0.000385  -0.000029  -0.000169  -0.000082   0.000002
    10  O    0.000000   0.000000   0.000000  -0.000000   0.000000  -0.000000
    11  O   -0.000000   0.000000  -0.000000  -0.000000  -0.000000   0.000000
    12  O    0.000000  -0.000005   0.000000  -0.000005  -0.000001   0.000000
    13  O    0.217188  -0.006679  -0.004539   0.000000   0.000778   0.000001
    14  O   -0.009218   0.001091   0.206420  -0.000003   0.014240   0.000008
    15  O    0.007471   0.225647   0.000059  -0.000001  -0.001356   0.000001
    16  O   -0.000266   0.000000   0.000319  -0.000000  -0.000004   0.000104
    17  O    0.000554  -0.000022   0.017610   0.000003  -0.000693  -0.000420
    18  O    0.015156   0.000008  -0.000850   0.000000  -0.000002  -0.000010
    19  O   -0.000034   0.000000  -0.000226   0.004366  -0.008595   0.222700
    20  O    0.000000  -0.000000   0.000226   0.228911   0.008111  -0.001559
    21  O   -0.000011   0.000046  -0.004745  -0.001494   0.208509  -0.007409
    22  H    0.000000  -0.000000  -0.000000  -0.000000   0.000000   0.000000
    23  H    0.000000  -0.000000  -0.000000   0.000000  -0.000000  -0.000000
    24  H    0.000000  -0.000000   0.000000  -0.000000  -0.000000  -0.000000
    25  H    0.301507  -0.000030   0.000022   0.000000   0.000001   0.000000
    26  H   -0.000030   0.369380  -0.000036   0.000000   0.000017  -0.000000
    27  H    0.000022  -0.000036   0.284915  -0.000000  -0.001004   0.000005
    28  H    0.000000   0.000000  -0.000000   0.349506  -0.000018  -0.000011
    29  H    0.000001   0.000017  -0.001004  -0.000018   0.285941   0.000167
    30  H    0.000000  -0.000000   0.000005  -0.000011   0.000167   0.334807
    31  H   -0.000172   0.000000   0.000014   0.000000   0.000000  -0.000000
    32  H   -0.000001  -0.000000  -0.000000   0.000000  -0.000000  -0.000000
    33  H    0.000005   0.000000  -0.002445  -0.000002   0.000130  -0.001045
              31         32         33
     1  Zr   0.003985   0.002818  -0.016285
     2  O    0.000287  -0.000030   0.000942
     3  O   -0.000022   0.000035  -0.010573
     4  O   -0.018418   0.011467  -0.009623
     5  O   -0.000018   0.000012  -0.000070
     6  Si   0.061531   0.018618   0.053743
     7  Si   0.000096  -0.000634   0.021711
     8  Si  -0.003077   0.000158   0.000087
     9  Si  -0.000060  -0.000026   0.000094
    10  O    0.000000  -0.000000  -0.000000
    11  O   -0.000000   0.000000  -0.000000
    12  O    0.000000  -0.000000   0.000000
    13  O    0.002306  -0.000007   0.000253
    14  O    0.000078  -0.000007   0.002044
    15  O   -0.000020   0.000000  -0.000056
    16  O    0.005068   0.236386   0.000226
    17  O   -0.001241  -0.003421   0.229918
    18  O    0.215593   0.003905   0.002217
    19  O    0.000002   0.000089   0.013179
    20  O   -0.000000   0.000000  -0.000041
    21  O   -0.000000   0.000001   0.001357
    22  H   -0.000000  -0.000000  -0.000000
    23  H    0.000000  -0.000000  -0.000000
    24  H    0.000000  -0.000000  -0.000000
    25  H   -0.000172  -0.000001   0.000005
    26  H    0.000000  -0.000000   0.000000
    27  H    0.000014  -0.000000  -0.002445
    28  H    0.000000   0.000000  -0.000002
    29  H    0.000000  -0.000000   0.000130
    30  H   -0.000000  -0.000000  -0.001045
    31  H    0.327527  -0.000011  -0.000037
    32  H   -0.000011   0.348995   0.000147
    33  H   -0.000037   0.000147   0.270937
 Mulliken charges:
               1
     1  Zr   0.035266
     2  O   -0.661548
     3  O   -0.443968
     4  O   -0.661542
     5  O   -0.409788
     6  Si   2.235138
     7  Si   1.787236
     8  Si   2.095322
     9  Si   1.682496
    10  O   -0.861405
    11  O   -0.775325
    12  O   -0.807403
    13  O   -0.819244
    14  O   -0.903852
    15  O   -0.867911
    16  O   -0.734932
    17  O   -0.970232
    18  O   -1.092883
    19  O   -0.989396
    20  O   -0.806739
    21  O   -0.834482
    22  H    0.390668
    23  H    0.372437
    24  H    0.363864
    25  H    0.415470
    26  H    0.366616
    27  H    0.430985
    28  H    0.376481
    29  H    0.446615
    30  H    0.410769
    31  H    0.406590
    32  H    0.381506
    33  H    0.443188
 Sum of Mulliken charges =  -0.00000
 Mulliken charges with hydrogens summed into heavy atoms:
               1
     1  Zr   0.035266
     2  O   -0.661548
     3  O   -0.443968
     4  O   -0.661542
     5  O   -0.409788
     6  Si   2.235138
     7  Si   1.787236
     8  Si   2.095322
     9  Si   1.682496
    10  O   -0.488968
    11  O   -0.411461
    12  O   -0.416735
    13  O   -0.403774
    14  O   -0.472867
    15  O   -0.501294
    16  O   -0.353426
    17  O   -0.527044
    18  O   -0.686293
    19  O   -0.578627
    20  O   -0.430258
    21  O   -0.387866
 Electronic spatial extent (au):  <R**2>=           9693.1918
 Charge=             -0.0000 electrons
 Dipole moment (field-independent basis, Debye):
    X=              3.0057    Y=             -1.4670    Z=             -3.0534  Tot=              4.5288
 Quadrupole moment (field-independent basis, Debye-Ang):
   XX=           -166.3691   YY=           -151.2266   ZZ=           -159.0578
   XY=             -5.5935   XZ=             13.4948   YZ=              2.4898
 Traceless Quadrupole moment (field-independent basis, Debye-Ang):
   XX=             -7.4846   YY=              7.6579   ZZ=             -0.1733
   XY=             -5.5935   XZ=             13.4948   YZ=              2.4898
 Octapole moment (field-independent basis, Debye-Ang**2):
  XXX=             85.5539  YYY=             -7.1564  ZZZ=            -44.2066  XYY=             -6.0596
  XXY=             23.2279  XXZ=            -20.2382  XZZ=             62.5505  YZZ=            -26.5697
  YYZ=             -1.7762  XYZ=             10.2162
 Hexadecapole moment (field-independent basis, Debye-Ang**3):
 XXXX=          -6029.6533 YYYY=          -2746.6756 ZZZZ=          -2268.7749 XXXY=             27.9701
 XXXZ=             52.1619 YYYX=            -15.6038 YYYZ=            153.0137 ZZZX=             42.6835
 ZZZY=            -86.6941 XXYY=          -1451.7508 XXZZ=          -1452.8524 YYZZ=           -910.7437
 XXYZ=             36.1027 YYXZ=            200.9326 ZZXY=            -53.0503
 N-N= 2.844547698436D+03 E-N=-1.140171477679D+04  KE= 2.373160303131D+03
 PrsmSu:  requested number of processors reduced to:   2 ShMem   1 Linda.
 PrsmSu:  requested number of processors reduced to:  10 ShMem   1 Linda.
   1 Symmetry operations used in ECPInt.
 ECPInt:  NShTT=   13203 NPrTT=   78401 LenC2=   11555 LenP2D=   44828.
 LDataN:  DoStor=T MaxTD1= 9 Len=  602
 Number of processors reduced to  14 by ecpmxn.
 Calling FoFJK, ICntrl=      2127 FMM=F ISym2X=0 I1Cent= 0 IOpClX= 0 NMat=1 NMatS=1 NMatT=0.
 CoulSu:  requested number of processors reduced to:  10 ShMem   1 Linda.
 Defaulting to unpruned grid for atomic number  40.
 Defaulting to unpruned grid for atomic number  40.
 Defaulting to unpruned grid for atomic number  40.
 Defaulting to unpruned grid for atomic number  40.
 Defaulting to unpruned grid for atomic number  40.
 Defaulting to unpruned grid for atomic number  40.
 Defaulting to unpruned grid for atomic number  40.
 Defaulting to unpruned grid for atomic number  40.
 Defaulting to unpruned grid for atomic number  40.
 Defaulting to unpruned grid for atomic number  40.
 Defaulting to unpruned grid for atomic number  40.
 Defaulting to unpruned grid for atomic number  40.
 Defaulting to unpruned grid for atomic number  40.
 Defaulting to unpruned grid for atomic number  40.
 Defaulting to unpruned grid for atomic number  40.
 Defaulting to unpruned grid for atomic number  40.
 ***** Axes restored to original set *****
 -------------------------------------------------------------------
 Center     Atomic                   Forces (Hartrees/Bohr)
 Number     Number              X              Y              Z
 -------------------------------------------------------------------
      1       40          -0.001736456    0.000260769    0.000109906
      2        8          -0.000031878   -0.000075170    0.000074287
      3        8          -0.000084784   -0.000052996   -0.000058536
      4        8           0.000033670   -0.000077458   -0.000045783
      5        8           0.000871611    0.000500044    0.000280024
      6       14           0.000090327   -0.000005024    0.000053417
      7       14           0.000077599   -0.000120803    0.000035434
      8       14           0.000158102    0.000015213   -0.000096228
      9       14           0.001205804   -0.001237445   -0.000901446
     10        8          -0.000035619    0.000129153    0.000187615
     11        8          -0.000057269    0.000246639    0.000138627
     12        8          -0.000237691    0.000243483    0.000223433
     13        8          -0.000051199   -0.000009329    0.000021231
     14        8          -0.000029007    0.000012854   -0.000002287
     15        8          -0.000028886   -0.000008019    0.000049087
     16        8          -0.000030847   -0.000001190   -0.000024262
     17        8          -0.000019979    0.000024542   -0.000013863
     18        8          -0.000029420   -0.000005170   -0.000010416
     19        8          -0.000009061    0.000029102   -0.000006570
     20        8           0.000007340    0.000055262   -0.000009296
     21        8          -0.000019386    0.000033243   -0.000017497
     22        1          -0.000058109    0.000127289    0.000097532
     23        1          -0.000017466   -0.000009771   -0.000015313
     24        1          -0.000049757   -0.000053855   -0.000061457
     25        1           0.000012087    0.000000025    0.000001622
     26        1           0.000000719    0.000011956   -0.000022857
     27        1           0.000038851    0.000007319   -0.000006092
     28        1          -0.000005389   -0.000024856   -0.000005912
     29        1          -0.000017320   -0.000010600    0.000024809
     30        1          -0.000001266   -0.000001747   -0.000004775
     31        1           0.000014539    0.000006282    0.000002721
     32        1           0.000015406   -0.000004202    0.000002864
     33        1           0.000024735   -0.000005539   -0.000000018
 -------------------------------------------------------------------
 Cartesian Forces:  Max     0.001736456 RMS     0.000292104

 GradGradGradGradGradGradGradGradGradGradGradGradGradGradGradGradGradGrad
 Berny optimization.
 FormGI is forming the generalized inverse of G from B-inverse, IUseBI=4.
 Internal  Forces:  Max     0.001602578 RMS     0.000205132
 Search for a local minimum.
 Step number   1 out of a maximum of  148
 All quantities printed in internal units (Hartrees-Bohrs-Radians)
 Mixed Optimization -- En-DIIS/RFO-DIIS
 Second derivative matrix not updated -- first step.
 ITU=  0
     Eigenvalues ---    0.00230   0.00230   0.00230   0.00230   0.03239
     Eigenvalues ---    0.03482   0.03500   0.03541   0.03581   0.03661
     Eigenvalues ---    0.03665   0.03674   0.03688   0.03735   0.03789
     Eigenvalues ---    0.03802   0.03811   0.03828   0.03857   0.03858
     Eigenvalues ---    0.08414   0.09469   0.11097   0.11247   0.11629
     Eigenvalues ---    0.11809   0.11979   0.12095   0.12205   0.12217
     Eigenvalues ---    0.12600   0.12707   0.12970   0.13105   0.13263
     Eigenvalues ---    0.16000   0.16000   0.16000   0.16000   0.16000
     Eigenvalues ---    0.16000   0.16000   0.16000   0.16000   0.16000
     Eigenvalues ---    0.16000   0.16000   0.19184   0.19894   0.19953
     Eigenvalues ---    0.20035   0.20159   0.20200   0.20253   0.20422
     Eigenvalues ---    0.20563   0.20992   0.21009   0.21136   0.21189
     Eigenvalues ---    0.21280   0.25000   0.25000   0.25000   0.37992
     Eigenvalues ---    0.40480   0.40678   0.41116   0.41559   0.42455
     Eigenvalues ---    0.42502   0.42607   0.42768   0.43316   0.43953
     Eigenvalues ---    0.44102   0.44216   0.44422   0.44766   0.44782
     Eigenvalues ---    0.50680   0.51458   0.52211   0.52570   0.54329
     Eigenvalues ---    0.54614   0.54650   0.54671   0.54694   0.54715
     Eigenvalues ---    0.54739   0.548931000.000001000.000001000.00000
     Eigenvalues --- 1000.000001000.000001000.000001000.000001000.00000
     Eigenvalues --- 1000.000001000.000001000.000001000.000001000.00000
     Eigenvalues --- 1000.000001000.000001000.000001000.000001000.00000
     Eigenvalues --- 1000.000001000.000001000.000001000.000001000.00000
     Eigenvalues --- 1000.000001000.000001000.000001000.000001000.00000
     Eigenvalues --- 1000.000001000.000001000.000001000.000001000.00000
     Eigenvalues --- 1000.000001000.000001000.000001000.000001000.00000
     Eigenvalues --- 1000.000001000.000001000.000001000.000001000.00000
     Eigenvalues --- 1000.000001000.000001000.00000
 RFO step:  Lambda=-3.14942065D-05 EMin= 2.30000000D-03
 Linear search not attempted -- first point.
 Iteration  1 RMS(Cart)=  0.02671672 RMS(Int)=  0.00018563
 Iteration  2 RMS(Cart)=  0.00030807 RMS(Int)=  0.00000052
 Iteration  3 RMS(Cart)=  0.00000003 RMS(Int)=  0.00000052
 Iteration  1 RMS(Cart)=  0.00000000 RMS(Int)=  0.00000000
 Variable       Old X    -DE/DX   Delta X   Delta X   Delta X     New X
                                 (Linear)    (Quad)   (Total)
    R1        3.67636   0.00000   0.00000   0.00002   0.00002   3.67638
    R2        3.69031  -0.00008   0.00000  -0.00037  -0.00037   3.68994
    R3        3.73798   0.00000   0.00000   0.00001   0.00001   3.73799
    R4        3.71087   0.00160   0.00000   0.00803   0.00803   3.71890
    R5        3.13764  -0.00012   0.00000  -0.00029  -0.00029   3.13735
    R6        3.09653  -0.00005   0.00000  -0.00012  -0.00012   3.09641
    R7        3.10211  -0.00006   0.00000  -0.00014  -0.00014   3.10197
    R8        3.09248   0.00050   0.00000   0.00112   0.00112   3.09360
    R9        3.11657   0.00002   0.00000   0.00006   0.00006   3.11662
   R10        3.11988   0.00001   0.00000   0.00002   0.00002   3.11990
   R11        3.14342  -0.00000   0.00000  -0.00000  -0.00000   3.14342
   R12        3.18077   0.00001   0.00000   0.00002   0.00002   3.18079
   R13        3.10982   0.00003   0.00000   0.00007   0.00007   3.10989
   R14        3.09230   0.00002   0.00000   0.00006   0.00006   3.09236
   R15        3.10032   0.00002   0.00000   0.00004   0.00004   3.10036
   R16        3.14606   0.00001   0.00000   0.00003   0.00003   3.14609
   R17        3.09896   0.00003   0.00000   0.00006   0.00006   3.09902
   R18        3.11858  -0.00008   0.00000  -0.00020  -0.00020   3.11838
   R19        3.13189  -0.00021   0.00000  -0.00050  -0.00050   3.13139
   R20        3.12048   0.00049   0.00000   0.00115   0.00115   3.12163
   R21        1.82145   0.00001   0.00000   0.00001   0.00001   1.82146
   R22        1.82065   0.00003   0.00000   0.00005   0.00005   1.82070
   R23        1.82105   0.00004   0.00000   0.00008   0.00008   1.82112
   R24        1.84058  -0.00000   0.00000  -0.00001  -0.00001   1.84057
   R25        1.84398  -0.00001   0.00000  -0.00003  -0.00003   1.84395
   R26        1.81928  -0.00002   0.00000  -0.00003  -0.00003   1.81925
   R27        1.82086   0.00001   0.00000   0.00001   0.00001   1.82088
   R28        1.85885   0.00000   0.00000   0.00000   0.00000   1.85885
   R29        1.82126  -0.00001   0.00000  -0.00002  -0.00002   1.82124
   R30        1.82433   0.00000   0.00000   0.00000   0.00000   1.82434
   R31        1.82176  -0.00002   0.00000  -0.00003  -0.00003   1.82173
   R32        1.85122   0.00002   0.00000   0.00005   0.00005   1.85126
    A1        1.85569  -0.00001   0.00000   0.00032   0.00032   1.85601
    A2        1.80097   0.00007   0.00000   0.00020   0.00020   1.80117
    A3        1.97659  -0.00002   0.00000  -0.00010  -0.00010   1.97648
    A4        1.83906   0.00002   0.00000   0.00011   0.00011   1.83917
    A5        2.01332   0.00010   0.00000   0.00065   0.00065   2.01398
    A6        1.96025  -0.00016   0.00000  -0.00116  -0.00116   1.95909
    A7        2.45892  -0.00019   0.00000  -0.00074  -0.00074   2.45818
    A8        2.59369   0.00008   0.00000   0.00033   0.00033   2.59401
    A9        2.34042  -0.00005   0.00000  -0.00019  -0.00019   2.34023
   A10        2.61799   0.00124   0.00000   0.00000  -0.00000   2.61799
   A11        1.92384   0.00001   0.00000  -0.00000  -0.00000   1.92384
   A12        1.91272  -0.00004   0.00000  -0.00022  -0.00022   1.91250
   A13        1.94584   0.00004   0.00000   0.00027   0.00027   1.94611
   A14        2.00429  -0.00001   0.00000  -0.00011  -0.00011   2.00418
   A15        1.88341  -0.00002   0.00000  -0.00003  -0.00003   1.88338
   A16        1.79022   0.00002   0.00000   0.00013   0.00013   1.79034
   A17        1.80104   0.00002   0.00000   0.00015   0.00015   1.80119
   A18        1.99287  -0.00002   0.00000  -0.00011  -0.00011   1.99276
[...]
 Alpha virt. eigenvalues --    3.16179   3.23447   3.37306   3.39935   3.46518
 Alpha virt. eigenvalues --    3.47745   3.48781   3.48971   3.49073   3.52100
 Alpha virt. eigenvalues --    3.52692   3.54023   3.59948   3.61246   3.62169
 Alpha virt. eigenvalues --    3.65856   4.39282   4.83587   7.60016  31.20465
          Condensed to atoms (all electrons):
               1          2          3          4          5          6
     1  Zr  15.307301  -0.061047   0.000853  -0.140017  -0.133565  -0.774591
     2  O   -0.061047   8.853089   0.012694  -0.049007  -0.049374   0.063836
     3  O    0.000853   0.012694   8.840795   0.013894  -0.050586  -0.002763
     4  O   -0.140017  -0.049007   0.013894   8.841881  -0.064903  -0.754478
     5  O   -0.133565  -0.049374  -0.050586  -0.064903   9.243527  -0.002863
     6  Si  -0.774591   0.063836  -0.002763  -0.754478  -0.002863  14.263486
     7  Si  -0.593591  -0.018544  -0.887513  -0.016701  -0.030342   0.108122
     8  Si  -0.648782  -0.747588  -0.028157   0.071744  -0.010270   0.029127
     9  Si  -0.399978  -0.018455   0.004418  -0.005582  -1.017177   0.054230
    10  O   -0.047410   0.000535  -0.002324  -0.000571   0.115560  -0.000730
    11  O   -0.121395   0.001318   0.003245   0.002203   0.322935  -0.000121
    12  O    0.048116   0.002361   0.006638   0.001465   0.117798  -0.002944
    13  O    0.015153   0.266875   0.001226  -0.014982  -0.000405   0.019688
    14  O   -0.066854   0.245496  -0.018690  -0.003443   0.000010   0.015999
    15  O   -0.068804   0.257606   0.000488   0.002563   0.000743  -0.001934
    16  O   -0.121640   0.005565  -0.000498   0.348463   0.003059  -0.445965
    17  O   -0.107045  -0.037954   0.010259   0.211952   0.000100  -0.438511
    18  O   -0.038295  -0.020253   0.003461   0.218635  -0.001090  -0.489642
    19  O    0.005098   0.007845   0.281498   0.015037   0.002510  -0.010132
    20  O   -0.138091  -0.000783   0.148542  -0.000506   0.001101   0.010967
    21  O    0.042550   0.010622   0.157892   0.004343   0.000638  -0.017287
    22  H   -0.013460  -0.000006   0.000084  -0.000002   0.005028   0.000151
    23  H   -0.005656  -0.000010  -0.000005  -0.000024  -0.024007   0.000118
    24  H   -0.005721  -0.000062   0.000002   0.000008  -0.001193   0.000121
    25  H    0.019553  -0.022192  -0.000118  -0.001127  -0.000018   0.001280
    26  H   -0.008076  -0.011058   0.000016  -0.000013  -0.000017   0.000127
    27  H    0.008919  -0.020614   0.000753  -0.001577   0.000036   0.010174
    28  H    0.004346  -0.000012  -0.017680  -0.000013  -0.000009  -0.000294
    29  H   -0.000781  -0.004873  -0.019459  -0.000197  -0.000052   0.000643
    30  H   -0.000509  -0.000007  -0.000080  -0.000528  -0.000007  -0.000458
    31  H    0.003447   0.000256  -0.000022  -0.018466  -0.000020   0.062243
    32  H    0.003005  -0.000029   0.000036   0.011666   0.000014   0.017894
    33  H   -0.016129   0.000881  -0.010579  -0.009491  -0.000074   0.053624
               7          8          9         10         11         12
     1  Zr  -0.593591  -0.648782  -0.399978  -0.047410  -0.121395   0.048116
     2  O   -0.018544  -0.747588  -0.018455   0.000535   0.001318   0.002361
     3  O   -0.887513  -0.028157   0.004418  -0.002324   0.003245   0.006638
     4  O   -0.016701   0.071744  -0.005582  -0.000571   0.002203   0.001465
     5  O   -0.030342  -0.010270  -1.017177   0.115560   0.322935   0.117798
     6  Si   0.108122   0.029127   0.054230  -0.000730  -0.000121  -0.002944
     7  Si  13.777521   0.168379   0.028549   0.001956  -0.000867   0.001852
     8  Si   0.168379  13.715578   0.043334  -0.001512   0.002434  -0.003005
     9  Si   0.028549   0.043334  13.827083   0.003018  -0.171009  -0.208518
    10  O    0.001956  -0.001512   0.003018   8.525999  -0.019212   0.049245
    11  O   -0.000867   0.002434  -0.171009  -0.019212   8.580583  -0.047328
    12  O    0.001852  -0.003005  -0.208518   0.049245  -0.047328   8.619673
    13  O    0.001610  -0.161688  -0.001648  -0.000001   0.000021  -0.000062
    14  O    0.024124  -0.469898   0.000205  -0.000002   0.000008   0.000049
    15  O   -0.001985  -0.383940  -0.000276   0.000001  -0.000022   0.000139
    16  O    0.003910  -0.011111  -0.001594   0.000006  -0.000009  -0.000001
    17  O    0.000768   0.101615   0.003785   0.000007   0.000006  -0.000014
    18  O   -0.002555   0.083437   0.003689   0.000005   0.000005   0.000007
    19  O   -0.447367  -0.018031   0.000639   0.000004   0.000001  -0.000115
    20  O   -0.089599   0.008974   0.003784   0.000061  -0.000003  -0.000045
    21  O    0.010076  -0.047093  -0.002268  -0.000002   0.000004  -0.000032
    22  H    0.000072   0.000214   0.049569  -0.004440  -0.004606   0.222280
    23  H   -0.000038   0.000051   0.073596   0.231958  -0.004869   0.005641
    24  H    0.000042   0.000207   0.035744   0.007683   0.236633  -0.006518
    25  H   -0.000270   0.055667  -0.000200  -0.000000  -0.000000  -0.000000
    26  H    0.000550   0.061973  -0.000444   0.000000   0.000000  -0.000008
    27  H    0.000202   0.074300  -0.000005   0.000000  -0.000000   0.000001
    28  H    0.056089   0.000090  -0.000172  -0.000000  -0.000000  -0.000004
    29  H    0.048228   0.023127  -0.000076   0.000000  -0.000000  -0.000000
    30  H    0.043388   0.000128   0.000001  -0.000000   0.000000   0.000000
    31  H    0.000097  -0.002961  -0.000062   0.000000  -0.000000   0.000000
    32  H   -0.000626   0.000176  -0.000015  -0.000000   0.000000  -0.000000
    33  H    0.021683   0.000099   0.000107  -0.000000  -0.000000   0.000000
              13         14         15         16         17         18
     1  Zr   0.015153  -0.066854  -0.068804  -0.121640  -0.107045  -0.038295
     2  O    0.266875   0.245496   0.257606   0.005565  -0.037954  -0.020253
     3  O    0.001226  -0.018690   0.000488  -0.000498   0.010259   0.003461
     4  O   -0.014982  -0.003443   0.002563   0.348463   0.211952   0.218635
     5  O   -0.000405   0.000010   0.000743   0.003059   0.000100  -0.001090
     6  Si   0.019688   0.015999  -0.001934  -0.445965  -0.438511  -0.489642
     7  Si   0.001610   0.024124  -0.001985   0.003910   0.000768  -0.002555
     8  Si  -0.161688  -0.469898  -0.383940  -0.011111   0.101615   0.083437
     9  Si  -0.001648   0.000205  -0.000276  -0.001594   0.003785   0.003689
    10  O   -0.000001  -0.000002   0.000001   0.000006   0.000007   0.000005
    11  O    0.000021   0.000008  -0.000022  -0.000009   0.000006   0.000005
    12  O   -0.000062   0.000049   0.000139  -0.000001  -0.000014   0.000007
    13  O    8.643256   0.025520  -0.116720   0.003971  -0.028752  -0.042927
    14  O    0.025520   8.806243   0.154095   0.002456  -0.027696  -0.022650
    15  O   -0.116720   0.154095   8.789658  -0.000167   0.003949   0.001236
    16  O    0.003971   0.002456  -0.000167   8.905705  -0.097414  -0.100871
    17  O   -0.028752  -0.027696   0.003949  -0.097414   8.941276   0.226664
    18  O   -0.042927  -0.022650   0.001236  -0.100871   0.226664   9.037711
    19  O    0.000229   0.000942   0.000331  -0.000758  -0.030077   0.000122
    20  O    0.000007  -0.001103   0.000007   0.000041  -0.000866   0.000017
    21  O   -0.000404   0.025180   0.000620  -0.000165  -0.005917   0.000396
    22  H   -0.000000   0.000000   0.000001  -0.000000   0.000000  -0.000000
    23  H    0.000000   0.000000   0.000000  -0.000000   0.000000   0.000000
    24  H   -0.000000   0.000000   0.000001   0.000000  -0.000000  -0.000000
    25  H    0.217037  -0.009369   0.007393  -0.000258   0.000570   0.015254
    26  H   -0.006524   0.000860   0.226143   0.000000  -0.000022   0.000008
    27  H   -0.004518   0.207422   0.000128   0.000308   0.017662  -0.000813
    28  H    0.000000  -0.000003  -0.000001  -0.000000   0.000003   0.000000
    29  H    0.000784   0.014496  -0.001302  -0.000004  -0.000701  -0.000002
    30  H    0.000001   0.000011   0.000001   0.000101  -0.000435  -0.000009
    31  H    0.002312   0.000077  -0.000020   0.004912  -0.001246   0.215524
    32  H   -0.000007  -0.000006   0.000000   0.236644  -0.003334   0.003897
    33  H    0.000248   0.002023  -0.000055   0.000300   0.230098   0.002184
              19         20         21         22         23         24
     1  Zr   0.005098  -0.138091   0.042550  -0.013460  -0.005656  -0.005721
     2  O    0.007845  -0.000783   0.010622  -0.000006  -0.000010  -0.000062
     3  O    0.281498   0.148542   0.157892   0.000084  -0.000005   0.000002
     4  O    0.015037  -0.000506   0.004343  -0.000002  -0.000024   0.000008
     5  O    0.002510   0.001101   0.000638   0.005028  -0.024007  -0.001193
     6  Si  -0.010132   0.010967  -0.017287   0.000151   0.000118   0.000121
     7  Si  -0.447367  -0.089599   0.010076   0.000072  -0.000038   0.000042
     8  Si  -0.018031   0.008974  -0.047093   0.000214   0.000051   0.000207
     9  Si   0.000639   0.003784  -0.002268   0.049569   0.073596   0.035744
    10  O    0.000004   0.000061  -0.000002  -0.004440   0.231958   0.007683
    11  O    0.000001  -0.000003   0.000004  -0.004606  -0.004869   0.236633
    12  O   -0.000115  -0.000045  -0.000032   0.222280   0.005641  -0.006518
    13  O    0.000229   0.000007  -0.000404  -0.000000   0.000000  -0.000000
    14  O    0.000942  -0.001103   0.025180   0.000000   0.000000   0.000000
    15  O    0.000331   0.000007   0.000620   0.000001   0.000000   0.000001
    16  O   -0.000758   0.000041  -0.000165  -0.000000  -0.000000   0.000000
    17  O   -0.030077  -0.000866  -0.005917   0.000000   0.000000  -0.000000
    18  O    0.000122   0.000017   0.000396  -0.000000   0.000000  -0.000000
    19  O    8.891543   0.032582   0.026312  -0.000000   0.000000  -0.000000
    20  O    0.032582   8.651974  -0.056445   0.000000   0.000000  -0.000000
    21  O    0.026312  -0.056445   8.489170  -0.000002   0.000000   0.000000
    22  H   -0.000000   0.000000  -0.000002   0.352716   0.000036   0.000095
    23  H    0.000000   0.000000   0.000000   0.000036   0.350803   0.000023
    24  H   -0.000000  -0.000000   0.000000   0.000095   0.000023   0.368565
    25  H   -0.000033   0.000000  -0.000011   0.000000   0.000000   0.000000
    26  H    0.000000  -0.000000   0.000048  -0.000000  -0.000000  -0.000000
    27  H   -0.000219   0.000224  -0.004710  -0.000000   0.000000   0.000000
    28  H    0.004360   0.228947  -0.001516  -0.000000   0.000000  -0.000000
    29  H   -0.008588   0.008119   0.208593   0.000000  -0.000000  -0.000000
    30  H    0.222666  -0.001512  -0.007421   0.000000  -0.000000  -0.000000
    31  H    0.000002  -0.000000  -0.000000  -0.000000   0.000000   0.000000
    32  H    0.000092   0.000000   0.000001  -0.000000  -0.000000  -0.000000
    33  H    0.013025  -0.000041   0.001373  -0.000000  -0.000000  -0.000000
              25         26         27         28         29         30
     1  Zr   0.019553  -0.008076   0.008919   0.004346  -0.000781  -0.000509
     2  O   -0.022192  -0.011058  -0.020614  -0.000012  -0.004873  -0.000007
     3  O   -0.000118   0.000016   0.000753  -0.017680  -0.019459  -0.000080
     4  O   -0.001127  -0.000013  -0.001577  -0.000013  -0.000197  -0.000528
     5  O   -0.000018  -0.000017   0.000036  -0.000009  -0.000052  -0.000007
     6  Si   0.001280   0.000127   0.010174  -0.000294   0.000643  -0.000458
     7  Si  -0.000270   0.000550   0.000202   0.056089   0.048228   0.043388
     8  Si   0.055667   0.061973   0.074300   0.000090   0.023127   0.000128
     9  Si  -0.000200  -0.000444  -0.000005  -0.000172  -0.000076   0.000001
    10  O   -0.000000   0.000000   0.000000  -0.000000   0.000000  -0.000000
    11  O   -0.000000   0.000000  -0.000000  -0.000000  -0.000000   0.000000
    12  O   -0.000000  -0.000008   0.000001  -0.000004  -0.000000   0.000000
    13  O    0.217037  -0.006524  -0.004518   0.000000   0.000784   0.000001
    14  O   -0.009369   0.000860   0.207422  -0.000003   0.014496   0.000011
    15  O    0.007393   0.226143   0.000128  -0.000001  -0.001302   0.000001
    16  O   -0.000258   0.000000   0.000308  -0.000000  -0.000004   0.000101
    17  O    0.000570  -0.000022   0.017662   0.000003  -0.000701  -0.000435
    18  O    0.015254   0.000008  -0.000813   0.000000  -0.000002  -0.000009
    19  O   -0.000033   0.000000  -0.000219   0.004360  -0.008588   0.222666
    20  O    0.000000  -0.000000   0.000224   0.228947   0.008119  -0.001512
    21  O   -0.000011   0.000048  -0.004710  -0.001516   0.208593  -0.007421
    22  H    0.000000  -0.000000  -0.000000  -0.000000   0.000000   0.000000
    23  H    0.000000  -0.000000   0.000000   0.000000  -0.000000  -0.000000
    24  H    0.000000  -0.000000   0.000000  -0.000000  -0.000000  -0.000000
    25  H    0.301633  -0.000029   0.000020   0.000000   0.000001   0.000000
    26  H   -0.000029   0.369654  -0.000035   0.000000   0.000019  -0.000000
    27  H    0.000020  -0.000035   0.284830  -0.000000  -0.000998   0.000005
    28  H    0.000000   0.000000  -0.000000   0.349414  -0.000018  -0.000011
    29  H    0.000001   0.000019  -0.000998  -0.000018   0.285879   0.000168
    30  H    0.000000  -0.000000   0.000005  -0.000011   0.000168   0.334805
    31  H   -0.000188   0.000000   0.000014   0.000000   0.000000  -0.000000
    32  H   -0.000001  -0.000000  -0.000000   0.000000  -0.000000  -0.000000
    33  H    0.000005   0.000000  -0.002426  -0.000002   0.000128  -0.001047
              31         32         33
     1  Zr   0.003447   0.003005  -0.016129
     2  O    0.000256  -0.000029   0.000881
     3  O   -0.000022   0.000036  -0.010579
     4  O   -0.018466   0.011666  -0.009491
     5  O   -0.000020   0.000014  -0.000074
     6  Si   0.062243   0.017894   0.053624
     7  Si   0.000097  -0.000626   0.021683
     8  Si  -0.002961   0.000176   0.000099
     9  Si  -0.000062  -0.000015   0.000107
    10  O    0.000000  -0.000000  -0.000000
    11  O   -0.000000   0.000000  -0.000000
    12  O    0.000000  -0.000000   0.000000
    13  O    0.002312  -0.000007   0.000248
    14  O    0.000077  -0.000006   0.002023
    15  O   -0.000020   0.000000  -0.000055
    16  O    0.004912   0.236644   0.000300
    17  O   -0.001246  -0.003334   0.230098
    18  O    0.215524   0.003897   0.002184
    19  O    0.000002   0.000092   0.013025
    20  O   -0.000000   0.000000  -0.000041
    21  O   -0.000000   0.000001   0.001373
    22  H   -0.000000  -0.000000  -0.000000
    23  H    0.000000  -0.000000  -0.000000
    24  H    0.000000  -0.000000  -0.000000
    25  H   -0.000188  -0.000001   0.000005
    26  H    0.000000  -0.000000   0.000000
    27  H    0.000014  -0.000000  -0.002426
    28  H    0.000000   0.000000  -0.000002
    29  H    0.000000  -0.000000   0.000128
    30  H   -0.000000  -0.000000  -0.001047
    31  H    0.327760  -0.000010  -0.000036
    32  H   -0.000010   0.348885   0.000145
    33  H   -0.000036   0.000145   0.270905
 Mulliken charges:
               1
     1  Zr   0.053097
     2  O   -0.667110
     3  O   -0.448321
     4  O   -0.662228
     5  O   -0.427087
     6  Si   2.230884
     7  Si   1.792784
     8  Si   2.093380
     9  Si   1.695728
    10  O   -0.859833
    11  O   -0.779956
    12  O   -0.806670
    13  O   -0.819300
    14  O   -0.905499
    15  O   -0.869877
    16  O   -0.734988
    17  O   -0.968728
    18  O   -1.093144
    19  O   -0.989517
    20  O   -0.806354
    21  O   -0.834545
    22  H    0.392268
    23  H    0.372384
    24  H    0.364372
    25  H    0.415400
    26  H    0.366830
    27  H    0.430916
    28  H    0.376486
    29  H    0.446869
    30  H    0.410750
    31  H    0.406388
    32  H    0.381571
    33  H    0.443052
 Sum of Mulliken charges =  -0.00000
 Mulliken charges with hydrogens summed into heavy atoms:
               1
     1  Zr   0.053097
     2  O   -0.667110
     3  O   -0.448321
     4  O   -0.662228
     5  O   -0.427087
     6  Si   2.230884
     7  Si   1.792784
     8  Si   2.093380
     9  Si   1.695728
    10  O   -0.487449
    11  O   -0.415584
    12  O   -0.414402
    13  O   -0.403900
    14  O   -0.474583
    15  O   -0.503047
    16  O   -0.353416
    17  O   -0.525675
    18  O   -0.686757
    19  O   -0.578767
    20  O   -0.429868
    21  O   -0.387677
 Electronic spatial extent (au):  <R**2>=           9693.5460
 Charge=             -0.0000 electrons
 Dipole moment (field-independent basis, Debye):
    X=              2.9097    Y=             -1.3803    Z=             -3.2024  Tot=              4.5417
 Quadrupole moment (field-independent basis, Debye-Ang):
   XX=           -166.1362   YY=           -151.5948   ZZ=           -159.4796
   XY=             -6.0984   XZ=             13.3432   YZ=              3.2713
 Traceless Quadrupole moment (field-independent basis, Debye-Ang):
   XX=             -7.0660   YY=              7.4754   ZZ=             -0.4094
   XY=             -6.0984   XZ=             13.3432   YZ=              3.2713
 Octapole moment (field-independent basis, Debye-Ang**2):
  XXX=             79.4485  YYY=             -8.9903  ZZZ=            -48.3670  XYY=             -6.9264
  XXY=             25.2850  XXZ=            -20.9887  XZZ=             64.8270  YZZ=            -22.1531
  YYZ=             -2.7641  XYZ=              8.8001
 Hexadecapole moment (field-independent basis, Debye-Ang**3):
 XXXX=          -6025.2702 YYYY=          -2758.0348 ZZZZ=          -2275.4495 XXXY=             20.3008
 XXXZ=             36.1608 YYYX=            -27.6514 YYYZ=            169.4048 ZZZX=             60.3685
 ZZZY=            -77.3728 XXYY=          -1460.6538 XXZZ=          -1438.8741 YYZZ=           -923.0057
 XXYZ=             29.8469 YYXZ=            192.9678 ZZXY=            -46.1586
 N-N= 2.844421815508D+03 E-N=-1.140143285758D+04  KE= 2.373153660075D+03
 1\1\GINC-GRA1321\FOpt\RB3LYP\Gen\H12O16Si4Zr1\SARASHS\02-Aug-2020\0\\#
 n B3LYP/Gen Pseudo=cards EmpiricalDispersion=GD3 Opt=modredundant\\Tit
 le\\0,1\Zr,0.6478398929,-0.1643551768,-0.183042743\O,-0.1619427428,-0.
 9088035337,1.4213408033\O,0.1552859736,1.7247937422,-0.2239795276\O,-0
 .3861207582,-1.0078933126,-1.6427017345\O,2.5736197038,-0.5378758069,-
 0.3300576231\Si,-1.9777042061,-1.3359790177,-1.8752564073\Si,-1.015217
 9264,2.8685024925,-0.1427515155\Si,-1.6356942936,-1.0369641357,2.17535
 25461\Si,4.1207577471,-0.1875746539,0.0748188119\O,4.9235288392,0.7329
 244325,-1.0342809439\O,5.0057311201,-1.5808940836,0.2172038469\O,3.992
 9145428,0.6883686199,1.4702493904\O,-2.2902116468,-2.5038155496,1.8416
 239244\O,-2.5985694634,0.2132760108,1.6444875092\O,-1.495480541,-0.800
 8589528,3.7920597771\O,-2.2763570913,-1.6045329483,-3.4748574835\O,-2.
 8942409374,-0.1470501873,-1.1885171186\O,-2.4502928454,-2.6896475204,-
 1.0319403991\O,-2.0443483098,2.4549004537,-1.4088336592\O,-0.487334891
 5,4.3963980456,-0.451493307\O,-1.7682930674,2.8782976309,1.3100022251\
 H,4.7711196153,1.1814570119,1.7528369412\H,5.443102969,0.2522698028,-1
 .6885134474\H,4.5769922806,-2.3346369446,0.6370887676\H,-2.3731874116,
 -2.7402810799,0.9004289075\H,-0.8419937923,-1.3299968353,4.2608926073\
 H,-3.018061714,0.0432681793,0.7800961411\H,-0.3288620567,4.952581001,0
 .3198078843\H,-2.092389682,2.0124406422,1.6340151303\H,-2.6541982233,3
 .1505223398,-1.6848280232\H,-2.5533343456,-3.4986439635,-1.5454980784\
 H,-1.5819572261,-1.3488496168,-4.0920353953\H,-2.6609995115,0.78313291
 42,-1.4074678067\\Version=ES64L-G16RevB.01\State=1-A\HF=-2416.9458287\
 RMSD=7.904e-09\RMSF=4.508e-05\Dipole=1.2052706,-0.5326337,-1.2068246\Q
 uadrupole=-5.584886,5.3529668,0.2319192,-4.7528877,9.7700128,2.4865024
 \PG=C01 [X(H12O16Si4Zr1)]\\@


 BOOKS ARE LIGHTHOUSES ERECTED IN THE GREAT SEA OF TIME.
     -- E.P.WHIPPLE
 Job cpu time:       0 days 23 hours 56 minutes 58.4 seconds.
 Elapsed time:       0 days  1 hours 49 minutes 10.8 seconds.
 File lengths (MBytes):  RWF=    167 Int=      0 D2E=      0 Chk=     21 Scr=      1
 Normal termination of Gaussian 16 at Sun Aug  2 08:43:40 2020.
