 Entering Gaussian System, Link 0=g16
 Initial command:
 /opt/software/gaussian/g16.b01/l1.exe "/localscratch/sarashs.36760150.0/Gau-32661.inp" -scrdir="/localscratch/sarashs.36760150.0/"
 Entering Link 1 = /opt/software/gaussian/g16.b01/l1.exe PID=     32665.
  
 Copyright (c) 1988-2017, Gaussian, Inc.  All Rights Reserved.
  
 This is part of the Gaussian(R) 16 program.  It is based on
 the Gaussian(R) 09 system (copyright 2009, Gaussian, Inc.),
 the Gaussian(R) 03 system (copyright 2003, Gaussian, Inc.),
 the Gaussian(R) 98 system (copyright 1998, Gaussian, Inc.),
 the Gaussian(R) 94 system (copyright 1995, Gaussian, Inc.),
 the Gaussian 92(TM) system (copyright 1992, Gaussian, Inc.),
 the Gaussian 90(TM) system (copyright 1990, Gaussian, Inc.),
 the Gaussian 88(TM) system (copyright 1988, Gaussian, Inc.),
 the Gaussian 86(TM) system (copyright 1986, Carnegie Mellon
 University), and the Gaussian 82(TM) system (copyright 1983,
 Carnegie Mellon University). Gaussian is a federally registered
 trademark of Gaussian, Inc.
  
 This software contains proprietary and confidential information,
 including trade secrets, belonging to Gaussian, Inc.
  
 This software is provided under written license and may be
 used, copied, transmitted, or stored only in accord with that
 written license.
  
 The following legend is applicable only to US Government
 contracts under FAR:
  
                    RESTRICTED RIGHTS LEGEND
  
 Use, reproduction and disclosure by the US Government is
 subject to restrictions as set forth in subparagraphs (a)
 and (c) of the Commercial Computer Software - Restricted
 Rights clause in FAR 52.227-19.
  
 Gaussian, Inc.
 340 Quinnipiac St., Bldg. 40, Wallingford CT 06492
  
  
 ---------------------------------------------------------------
 Warning -- This program may not be used in any manner that
 competes with the business of Gaussian, Inc. or will provide
 assistance to any competitor of Gaussian, Inc.  The licensee
 of this program is prohibited from giving any competitor of
 Gaussian, Inc. access to this program.  By using this program,
 the user acknowledges that Gaussian, Inc. is engaged in the
 business of creating and licensing software in the field of
 computational chemistry and represents and warrants to the
 licensee that it is not a competitor of Gaussian, Inc. and that
 it will not use this program in any manner prohibited above.
 ---------------------------------------------------------------
  

 Cite this work as:
 Gaussian 16, Revision B.01,
 M. J. Frisch, G. W. Trucks, H. B. Schlegel, G. E. Scuseria, 
 M. A. Robb, J. R. Cheeseman, G. Scalmani, V. Barone, 
 G. A. Petersson, H. Nakatsuji, X. Li, M. Caricato, A. V. Marenich, 
 J. Bloino, B. G. Janesko, R. Gomperts, B. Mennucci, H. P. Hratchian, 
 J. V. Ortiz, A. F. Izmaylov, J. L. Sonnenberg, D. Williams-Young, 
 F. Ding, F. Lipparini, F. Egidi, J. Goings, B. Peng, A. Petrone, 
 T. Henderson, D. Ranasinghe, V. G. Zakrzewski, J. Gao, N. Rega, 
 G. Zheng, W. Liang, M. Hada, M. Ehara, K. Toyota, R. Fukuda, 
 J. Hasegawa, M. Ishida, T. Nakajima, Y. Honda, O. Kitao, H. Nakai, 
 T. Vreven, K. Throssell, J. A. Montgomery, Jr., J. E. Peralta, 
 F. Ogliaro, M. J. Bearpark, J. J. Heyd, E. N. Brothers, K. N. Kudin, 
 V. N. Staroverov, T. A. Keith, R. Kobayashi, J. Normand, 
 K. Raghavachari, A. P. Rendell, J. C. Burant, S. S. Iyengar, 
 J. Tomasi, M. Cossi, J. M. Millam, M. Klene, C. Adamo, R. Cammi, 
 J. W. Ochterski, R. L. Martin, K. Morokuma, O. Farkas, 
 J. B. Foresman, and D. J. Fox, Gaussian, Inc., Wallingford CT, 2016.
 
 ******************************************
 Gaussian 16:  ES64L-G16RevB.01 20-Dec-2017
                 2-Aug-2020 
 ******************************************
 %NProcShared=16
 Will use up to   16 processors via shared memory.
 ------------------------------------------------------------------
 #n B3LYP/Gen Pseudo=cards EmpiricalDispersion=GD3 Opt=modredundant
 ------------------------------------------------------------------
 1/18=120,19=15,26=3,38=1/1,3;
 2/9=110,12=2,17=6,18=5,40=1/2;
 3/5=7,11=2,16=1,17=8,25=1,30=1,71=1,74=-5,124=31/1,2,3;
 4//1;
 5/5=2,38=5/2;
 6/7=2,8=2,9=2,10=2,28=1/1;
 7//1,2,3,16;
 1/18=20,19=15,26=3/3(2);
 2/9=110/2;
 99//99;
 2/9=110/2;
 3/5=7,6=1,11=2,16=1,17=8,25=1,30=1,71=1,74=-5,82=7,124=31/1,2,3;
 4/5=5,16=3,69=1/1;
 5/5=2,38=5/2;
 7//1,2,3,16;
 1/18=20,19=15,26=3/3(-5);
 2/9=110/2;
 6/7=2,8=2,9=2,10=2,19=2,28=1/1;
 99/9=1/99;
 -----
 Title
 -----
 Symbolic Z-matrix:
 Charge =  0 Multiplicity = 1
 Zr                    0.64646  -0.19013  -0.1519 
 O                    -0.19212  -0.93131   1.43939 
 O                     0.17263   1.70395  -0.1904 
 O                    -0.37772  -1.01692  -1.62844 
 O                     2.5678   -0.57883  -0.26812 
 Si                   -1.96924  -1.33216  -1.87829 
 Si                   -0.98958   2.85681  -0.11809 
 Si                   -1.67476  -1.05152   2.17706 
 Si                    4.03149   0.01231   0.1634 
 O                     4.74499   0.95347  -0.98923 
 O                     5.09452  -1.23      0.43421 
 O                     3.73187   0.95369   1.48659 
 O                    -2.33574  -2.51245   1.83004 
 O                    -2.6209    0.20928   1.64149 
 O                    -1.552    -0.82432   3.7965 
 O                    -2.25427  -1.59164  -3.48183 
 O                    -2.88371  -0.13912  -1.19557 
 O                    -2.46027  -2.68598  -1.04579 
 O                    -2.00825   2.45605  -1.3967 
 O                    -0.44623   4.38142  -0.41555 
 O                    -1.75835   2.86715   1.32642 
 H                     4.42984   1.56022   1.75786 
 H                     5.36083   0.50517  -1.57984 
 H                     4.76568  -1.99502   0.91881 
 H                    -2.40738  -2.74575   0.88712 
 H                    -0.93391  -1.38513   4.27638 
 H                    -3.02928   0.04705   0.77024 
 H                    -0.29029   4.93346   0.35924 
 H                    -2.09489   2.00321   1.64266 
 H                    -2.6086    3.15807  -1.6773 
 H                    -2.56602  -3.49143  -1.56436 
 H                    -1.55278  -1.33714  -4.09141 
 H                    -2.64046   0.78995  -1.40829 
 
 The following ModRedundant input section has been read:
 A       1       5       9 F                                                   
 

 GradGradGradGradGradGradGradGradGradGradGradGradGradGradGradGradGradGrad
 Berny optimization.
 Initialization pass.
                           ----------------------------
                           !    Initial Parameters    !
                           ! (Angstroms and Degrees)  !
 --------------------------                            --------------------------
 ! Name  Definition              Value          Derivative Info.                !
 --------------------------------------------------------------------------------
 ! R1    R(1,2)                  1.9454         estimate D2E/DX2                !
 ! R2    R(1,3)                  1.9528         estimate D2E/DX2                !
 ! R3    R(1,4)                  1.9781         estimate D2E/DX2                !
 ! R4    R(1,5)                  1.9637         estimate D2E/DX2                !
 ! R5    R(2,8)                  1.6604         estimate D2E/DX2                !
 ! R6    R(3,7)                  1.6386         estimate D2E/DX2                !
 ! R7    R(4,6)                  1.6416         estimate D2E/DX2                !
 ! R8    R(5,9)                  1.6365         estimate D2E/DX2                !
 ! R9    R(6,16)                 1.6492         estimate D2E/DX2                !
 ! R10   R(6,17)                 1.651          estimate D2E/DX2                !
 ! R11   R(6,18)                 1.6634         estimate D2E/DX2                !
 ! R12   R(7,19)                 1.6832         estimate D2E/DX2                !
 ! R13   R(7,20)                 1.6456         estimate D2E/DX2                !
 ! R14   R(7,21)                 1.6364         estimate D2E/DX2                !
 ! R15   R(8,13)                 1.6406         estimate D2E/DX2                !
 ! R16   R(8,14)                 1.6648         estimate D2E/DX2                !
 ! R17   R(8,15)                 1.6399         estimate D2E/DX2                !
 ! R18   R(9,10)                 1.6503         estimate D2E/DX2                !
 ! R19   R(9,11)                 1.6573         estimate D2E/DX2                !
 ! R20   R(9,12)                 1.6513         estimate D2E/DX2                !
 ! R21   R(10,23)                0.9639         estimate D2E/DX2                !
 ! R22   R(11,24)                0.9634         estimate D2E/DX2                !
 ! R23   R(12,22)                0.9637         estimate D2E/DX2                !
 ! R24   R(13,25)                0.974          estimate D2E/DX2                !
 ! R25   R(14,27)                0.9758         estimate D2E/DX2                !
 ! R26   R(15,26)                0.9627         estimate D2E/DX2                !
 ! R27   R(16,32)                0.9636         estimate D2E/DX2                !
 ! R28   R(17,33)                0.9837         estimate D2E/DX2                !
 ! R29   R(18,31)                0.9638         estimate D2E/DX2                !
 ! R30   R(19,30)                0.9654         estimate D2E/DX2                !
 ! R31   R(20,28)                0.964          estimate D2E/DX2                !
 ! R32   R(21,29)                0.9796         estimate D2E/DX2                !
 ! A1    A(2,1,3)              106.3234         estimate D2E/DX2                !
 ! A2    A(2,1,4)              103.1879         estimate D2E/DX2                !
 ! A3    A(2,1,5)              113.2501         estimate D2E/DX2                !
 ! A4    A(3,1,4)              105.3705         estimate D2E/DX2                !
 ! A5    A(3,1,5)              115.3549         estimate D2E/DX2                !
 ! A6    A(4,1,5)              112.3142         estimate D2E/DX2                !
 ! A7    A(1,2,8)              140.8859         estimate D2E/DX2                !
 ! A8    A(1,3,7)              148.6074         estimate D2E/DX2                !
 ! A9    A(1,4,6)              134.0964         estimate D2E/DX2                !
 ! A10   A(1,5,9)              142.0001         Frozen                          !
 ! A11   A(4,6,16)             110.2282         estimate D2E/DX2                !
 ! A12   A(4,6,17)             109.5909         estimate D2E/DX2                !
 ! A13   A(4,6,18)             111.4884         estimate D2E/DX2                !
 ! A14   A(16,6,17)            114.8371         estimate D2E/DX2                !
 ! A15   A(16,6,18)            107.9112         estimate D2E/DX2                !
 ! A16   A(17,6,18)            102.5719         estimate D2E/DX2                !
 ! A17   A(3,7,19)             103.1918         estimate D2E/DX2                !
 ! A18   A(3,7,20)             114.1832         estimate D2E/DX2                !
 ! A19   A(3,7,21)             112.1241         estimate D2E/DX2                !
 ! A20   A(19,7,20)            106.4451         estimate D2E/DX2                !
 ! A21   A(19,7,21)            112.8144         estimate D2E/DX2                !
 ! A22   A(20,7,21)            107.9884         estimate D2E/DX2                !
 ! A23   A(2,8,13)             109.2843         estimate D2E/DX2                !
 ! A24   A(2,8,14)             108.0427         estimate D2E/DX2                !
 ! A25   A(2,8,15)             111.2146         estimate D2E/DX2                !
 ! A26   A(13,8,14)            112.1704         estimate D2E/DX2                !
 ! A27   A(13,8,15)            111.2482         estimate D2E/DX2                !
 ! A28   A(14,8,15)            104.7916         estimate D2E/DX2                !
 ! A29   A(5,9,10)             114.1131         estimate D2E/DX2                !
 ! A30   A(5,9,11)             110.2433         estimate D2E/DX2                !
 ! A31   A(5,9,12)             104.7699         estimate D2E/DX2                !
 ! A32   A(10,9,11)            105.3257         estimate D2E/DX2                !
 ! A33   A(10,9,12)            108.2396         estimate D2E/DX2                !
 ! A34   A(11,9,12)            114.3793         estimate D2E/DX2                !
 ! A35   A(9,10,23)            116.0375         estimate D2E/DX2                !
 ! A36   A(9,11,24)            117.2886         estimate D2E/DX2                !
 ! A37   A(9,12,22)            116.9339         estimate D2E/DX2                !
 ! A38   A(8,13,25)            116.5961         estimate D2E/DX2                !
 ! A39   A(8,14,27)            113.5263         estimate D2E/DX2                !
 ! A40   A(8,15,26)            117.3612         estimate D2E/DX2                !
 ! A41   A(6,16,32)            116.5984         estimate D2E/DX2                !
 ! A42   A(6,17,33)            117.1373         estimate D2E/DX2                !
 ! A43   A(6,18,31)            116.3135         estimate D2E/DX2                !
 ! A44   A(7,19,30)            115.0881         estimate D2E/DX2                !
 ! A45   A(7,20,28)            116.018          estimate D2E/DX2                !
 ! A46   A(7,21,29)            116.1544         estimate D2E/DX2                !
 ! D1    D(3,1,2,8)             54.013          estimate D2E/DX2                !
 ! D2    D(4,1,2,8)            -56.615          estimate D2E/DX2                !
 ! D3    D(5,1,2,8)           -178.2908         estimate D2E/DX2                !
 ! D4    D(2,1,3,7)            -51.1331         estimate D2E/DX2                !
 ! D5    D(4,1,3,7)             57.9568         estimate D2E/DX2                !
 ! D6    D(5,1,3,7)           -177.5709         estimate D2E/DX2                !
 ! D7    D(2,1,4,6)             41.2968         estimate D2E/DX2                !
 ! D8    D(3,1,4,6)            -70.0365         estimate D2E/DX2                !
 ! D9    D(5,1,4,6)            163.602          estimate D2E/DX2                !
 ! D10   D(2,1,5,9)            -89.6361         estimate D2E/DX2                !
 ! D11   D(3,1,5,9)             33.1905         estimate D2E/DX2                !
 ! D12   D(4,1,5,9)            153.9571         estimate D2E/DX2                !
 ! D13   D(1,2,8,13)            98.0767         estimate D2E/DX2                !
 ! D14   D(1,2,8,14)           -24.2296         estimate D2E/DX2                !
 ! D15   D(1,2,8,15)          -138.7156         estimate D2E/DX2                !
 ! D16   D(1,3,7,19)           -58.6416         estimate D2E/DX2                !
 ! D17   D(1,3,7,20)          -173.7291         estimate D2E/DX2                !
 ! D18   D(1,3,7,21)            63.0404         estimate D2E/DX2                !
 ! D19   D(1,4,6,16)           161.8736         estimate D2E/DX2                !
 ! D20   D(1,4,6,17)            34.551          estimate D2E/DX2                !
 ! D21   D(1,4,6,18)           -78.3045         estimate D2E/DX2                !
 ! D22   D(1,5,9,10)           -93.0132         estimate D2E/DX2                !
 ! D23   D(1,5,9,11)           148.7117         estimate D2E/DX2                !
 ! D24   D(1,5,9,12)            25.1927         estimate D2E/DX2                !
 ! D25   D(4,6,16,32)          -13.7229         estimate D2E/DX2                !
 ! D26   D(17,6,16,32)         110.6319         estimate D2E/DX2                !
 ! D27   D(18,6,16,32)        -135.686          estimate D2E/DX2                !
 ! D28   D(4,6,17,33)           49.7998         estimate D2E/DX2                !
 ! D29   D(16,6,17,33)         -74.8906         estimate D2E/DX2                !
 ! D30   D(18,6,17,33)         168.3378         estimate D2E/DX2                !
 ! D31   D(4,6,18,31)         -102.9126         estimate D2E/DX2                !
 ! D32   D(16,6,18,31)          18.2691         estimate D2E/DX2                !
 ! D33   D(17,6,18,31)         139.8941         estimate D2E/DX2                !
 ! D34   D(3,7,19,30)         -162.9704         estimate D2E/DX2                !
 ! D35   D(20,7,19,30)         -42.4468         estimate D2E/DX2                !
 ! D36   D(21,7,19,30)          75.8144         estimate D2E/DX2                !
 ! D37   D(3,7,20,28)         -100.1112         estimate D2E/DX2                !
 ! D38   D(19,7,20,28)         146.7232         estimate D2E/DX2                !
 ! D39   D(21,7,20,28)          25.3303         estimate D2E/DX2                !
 ! D40   D(3,7,21,29)          -50.5298         estimate D2E/DX2                !
 ! D41   D(19,7,21,29)          65.4642         estimate D2E/DX2                !
 ! D42   D(20,7,21,29)        -177.1813         estimate D2E/DX2                !
 ! D43   D(2,8,13,25)          -54.0971         estimate D2E/DX2                !
 ! D44   D(14,8,13,25)          65.6987         estimate D2E/DX2                !
 ! D45   D(15,8,13,25)        -177.2849         estimate D2E/DX2                !
 ! D46   D(2,8,14,27)           81.1206         estimate D2E/DX2                !
 ! D47   D(13,8,14,27)         -39.3971         estimate D2E/DX2                !
 ! D48   D(15,8,14,27)        -160.2179         estimate D2E/DX2                !
 ! D49   D(2,8,15,26)          -54.9076         estimate D2E/DX2                !
 ! D50   D(13,8,15,26)          67.168          estimate D2E/DX2                !
 ! D51   D(14,8,15,26)        -171.403          estimate D2E/DX2                !
 ! D52   D(5,9,10,23)          -94.3741         estimate D2E/DX2                !
 ! D53   D(11,9,10,23)          26.672          estimate D2E/DX2                !
 ! D54   D(12,9,10,23)         149.4204         estimate D2E/DX2                !
 ! D55   D(5,9,11,24)          -42.157          estimate D2E/DX2                !
 ! D56   D(10,9,11,24)        -165.6997         estimate D2E/DX2                !
 ! D57   D(12,9,11,24)          75.5823         estimate D2E/DX2                !
 ! D58   D(5,9,12,22)         -165.321          estimate D2E/DX2                !
 ! D59   D(10,9,12,22)         -43.1981         estimate D2E/DX2                !
 ! D60   D(11,9,12,22)          73.859          estimate D2E/DX2                !
 --------------------------------------------------------------------------------
 Trust Radius=3.00D-01 FncErr=1.00D-07 GrdErr=1.00D-06 EigMax=2.50D+02 EigMin=1.00D-04
 Number of steps in this run=    148 maximum allowed number of steps=    198.
 GradGradGradGradGradGradGradGradGradGradGradGradGradGradGradGradGradGrad

                          Input orientation:                          
 ---------------------------------------------------------------------
 Center     Atomic      Atomic             Coordinates (Angstroms)
 Number     Number       Type             X           Y           Z
 ---------------------------------------------------------------------
      1         40           0        0.646460   -0.190130   -0.151900
      2          8           0       -0.192120   -0.931310    1.439390
      3          8           0        0.172630    1.703950   -0.190400
      4          8           0       -0.377720   -1.016920   -1.628440
      5          8           0        2.567800   -0.578830   -0.268120
      6         14           0       -1.969240   -1.332160   -1.878290
      7         14           0       -0.989580    2.856810   -0.118090
      8         14           0       -1.674760   -1.051520    2.177060
      9         14           0        4.031490    0.012310    0.163400
     10          8           0        4.744990    0.953470   -0.989230
     11          8           0        5.094520   -1.230000    0.434210
     12          8           0        3.731870    0.953690    1.486590
     13          8           0       -2.335740   -2.512450    1.830040
     14          8           0       -2.620900    0.209280    1.641490
     15          8           0       -1.552000   -0.824320    3.796500
     16          8           0       -2.254270   -1.591640   -3.481830
     17          8           0       -2.883710   -0.139120   -1.195570
     18          8           0       -2.460270   -2.685980   -1.045790
     19          8           0       -2.008250    2.456050   -1.396700
     20          8           0       -0.446230    4.381420   -0.415550
     21          8           0       -1.758350    2.867150    1.326420
     22          1           0        4.429840    1.560220    1.757860
     23          1           0        5.360830    0.505170   -1.579840
     24          1           0        4.765680   -1.995020    0.918810
     25          1           0       -2.407380   -2.745750    0.887120
     26          1           0       -0.933910   -1.385130    4.276380
     27          1           0       -3.029280    0.047050    0.770240
     28          1           0       -0.290290    4.933460    0.359240
     29          1           0       -2.094890    2.003210    1.642660
     30          1           0       -2.608600    3.158070   -1.677300
     31          1           0       -2.566020   -3.491430   -1.564360
     32          1           0       -1.552780   -1.337140   -4.091410
     33          1           0       -2.640460    0.789950   -1.408290
 ---------------------------------------------------------------------
                    Distance matrix (angstroms):
                    1          2          3          4          5
     1  Zr   0.000000
     2  O    1.945448   0.000000
     3  O    1.952828   3.119912   0.000000
     4  O    1.978054   3.074631   3.126336   0.000000
     5  O    1.963706   3.264505   3.309677   3.273909   0.000000
     6  Si   3.335647   3.784949   4.080998   1.641565   4.872872
     7  Si   3.458557   4.172714   1.638611   4.202537   4.947836
     8  Si   3.399134   1.660370   4.075577   4.020614   4.919518
     9  Si   3.405705   4.511923   4.228194   4.869408   1.636473
    10  O    4.336691   5.815982   4.701896   5.525684   2.758278
    11  O    4.605442   5.389635   5.763957   5.851952   2.702148
    12  O    3.675966   4.353522   4.005418   5.520457   2.604359
    13  O    4.267877   2.692159   5.305858   4.246356   5.673259
    14  O    3.748522   2.690866   3.659736   4.150646   5.584831
    15  O    4.563473   2.723360   5.026119   5.553918   5.792595
    16  O    4.633238   5.376514   5.252073   2.699407   5.882693
    17  O    3.681569   3.849056   3.707895   2.690334   5.547294
    18  O    4.084125   3.794666   5.189927   2.731713   5.506936
    19  O    3.949592   4.776604   2.603277   3.843677   5.605749
    20  O    4.707712   5.632981   2.757268   5.533342   5.806048
    21  O    4.161190   4.110248   2.717068   5.071818   5.756119
    22  H    4.585289   5.260386   4.684038   6.420382   3.485301
    23  H    4.974710   6.481858   5.503184   5.937177   3.270578
    24  H    4.622988   5.097280   6.000736   5.822347   2.871424
    25  H    4.115422   2.916260   5.255219   3.665572   5.548201
    26  H    4.851315   2.967274   5.542470   5.942375   5.793494
    27  H    3.797060   3.074805   3.731002   3.730478   5.726886
    28  H    5.233540   5.964217   3.308494   6.274196   6.240801
    29  H    3.942865   3.503321   2.931094   4.771787   5.662039
    30  H    4.912505   5.681211   3.472834   4.733894   6.537991
    31  H    4.818055   4.605663   6.031579   3.303931   6.043144
    32  H    4.655322   5.710153   5.238621   2.747640   5.672016
    33  H    3.652796   4.131148   3.198770   2.904004   5.504500
                    6          7          8          9         10
     6  Si   0.000000
     7  Si   4.648172   0.000000
     8  Si   4.075701   4.583910   0.000000
     9  Si   6.479572   5.777678   6.143928   0.000000
    10  O    7.148106   6.104661   7.433611   1.650279   0.000000
    11  O    7.433357   7.350056   6.992320   1.657319   2.629809
    12  O    7.003584   5.337504   5.807690   1.651303   2.675088
    13  O    3.908851   5.868246   1.640620   7.049377   8.372432
    14  O    3.897377   3.573058   1.664822   6.817466   7.856898
    15  O    5.712725   5.402874   1.639901   6.713771   8.106530
    16  O    1.649216   5.718645   5.714070   7.441178   7.853679
    17  O    1.650971   3.704631   3.697116   7.049094   7.709306
    18  O    1.663429   5.809137   3.698006   7.133432   8.072457
    19  O    3.818898   1.683194   5.018568   6.699570   6.930370
    20  O    6.091319   1.645645   6.143920   6.282856   6.247297
    21  O    5.286667   1.636375   4.010804   6.559343   7.163647
    22  H    7.907950   5.879664   6.653049   2.257656   2.830895
    23  H    7.562723   6.927816   8.126322   2.246985   0.963873
    24  H    7.322725   7.598581   6.629680   2.266948   3.512070
    25  H    3.136510   5.865943   2.251909   7.041996   8.268090
    26  H    6.241368   6.108070   2.251066   6.597321   8.089846
    27  H    3.168693   3.583889   2.240697   7.086885   8.022257
    28  H    6.861735   2.242616   6.406342   6.552393   6.558410
    29  H    4.851553   2.247350   3.129452   6.609419   7.403564
    30  H    4.539972   2.267845   5.783493   7.574614   7.707723
    31  H    2.262111   6.699031   4.554748   7.667365   8.575475
    32  H    2.251969   5.804626   6.276159   7.149021   7.384600
    33  H    2.274816   2.943116   4.144674   6.898540   7.399137
                   11         12         13         14         15
    11  O    0.000000
    12  O    2.780795   0.000000
    13  O    7.668232   6.996283   0.000000
    14  O    7.940829   6.398111   2.743115   0.000000
    15  O    7.459611   6.034591   2.707581   2.618195   0.000000
    16  O    8.334919   8.185217   5.391706   5.442990   7.352282
    17  O    8.215738   7.221781   3.884235   2.870429   5.211882
    18  O    7.834866   7.615953   2.883751   3.953455   5.266736
    19  O    8.209052   6.596925   5.933388   3.828043   6.159409
    20  O    7.931585   5.729222   7.492554   5.134915   6.787033
    21  O    8.033959   5.816313   5.433885   2.812034   4.446440
    22  H    3.158983   0.963654   7.897147   7.179938   6.754591
    23  H    2.671729   3.501096   8.942623   8.612348   8.857753
    24  H    0.963446   3.175851   7.178317   7.742272   7.040222
    25  H    7.666885   7.192747   0.973991   3.057265   3.589994
    26  H    7.150406   5.917982   3.036537   3.511513   0.962719
    27  H    8.230425   6.859177   2.855734   0.975792   3.478490
    28  H    8.184744   5.769511   7.860578   5.421604   6.823394
    29  H    7.975062   5.922582   4.525959   1.869458   3.595648
    30  H    9.113270   7.420987   6.673131   4.439581   6.851155
    31  H    8.233603   8.290404   3.540252   4.896503   6.072934
    32  H    8.042345   8.018074   6.087524   6.033112   7.904563
    33  H    8.203958   7.000981   4.635243   3.104629   5.557018
                   16         17         18         19         20
    16  O    0.000000
    17  O    2.780826   0.000000
    18  O    2.678490   2.586162   0.000000
    19  O    4.559834   2.746232   5.173774   0.000000
    20  O    6.953311   5.194711   7.375751   2.666385   0.000000
    21  O    6.576170   4.082221   6.079254   2.765291   2.655020
    22  H    9.059023   8.068365   8.565295   7.225148   6.038124
    23  H    8.124280   8.278600   8.463938   7.625143   7.078335
    24  H    8.295062   8.150346   7.520069   8.429694   8.342872
    25  H    4.521409   3.370313   1.934557   5.695073   7.505972
    26  H    7.872472   5.941086   5.687484   6.934891   7.450177
    27  H    4.622342   1.979964   3.330344   3.397265   5.183147
    28  H    7.822274   5.905449   8.046042   3.488878   0.964036
    29  H    6.261689   3.642439   5.417543   3.074131   3.551083
    30  H    5.093292   3.343533   5.879943   0.965396   2.786475
    31  H    2.717183   3.387464   0.963767   5.975930   8.233774
    32  H    0.963559   3.404778   3.452348   4.675169   6.887549
    33  H    3.181302   0.983662   3.499423   1.782053   4.324215
                   21         22         23         24         25
    21  O    0.000000
    22  H    6.339393   0.000000
    23  H    8.044130   3.622170   0.000000
    24  H    8.146767   3.668314   3.584467   0.000000
    25  H    5.667351   8.126939   8.774934   7.212308   0.000000
    26  H    5.240596   6.617238   8.802971   6.643084   3.938208
    27  H    3.142859   7.674865   8.725061   8.059375   2.863591
    28  H    2.712983   5.967790   7.436729   8.595335   7.983169
    29  H    0.979622   6.540765   8.259321   7.973533   4.818829
    30  H    3.135266   7.993315   8.399952   9.363446   6.439863
    31  H    7.031392   9.246533   8.877387   7.884111   2.567286
    32  H    6.860845   8.854400   7.582882   8.090615   5.244071
    33  H    3.545633   7.785047   8.008194   8.247567   4.221896
                   26         27         28         29         30
    26  H    0.000000
    27  H    4.328364   0.000000
    28  H    7.462092   5.616760   0.000000
    29  H    4.445807   2.336828   3.672889   0.000000
    30  H    7.674084   3.980687   3.560065   3.552426   0.000000
    31  H    6.419854   4.264482   8.936328   6.379499   6.650595
    32  H    8.390781   5.266087   7.792470   6.658181   5.210527
    33  H    6.321294   2.334325   5.080958   3.328354   2.383563
                   31         32         33
    31  H    0.000000
    32  H    3.471830   0.000000
    33  H    4.284870   3.592589   0.000000
 Stoichiometry    H12O16Si4Zr
 Framework group  C1[X(H12O16Si4Zr)]
 Deg. of freedom    93
 Full point group                 C1      NOp   1
 Largest Abelian subgroup         C1      NOp   1
 Largest concise Abelian subgroup C1      NOp   1
                         Standard orientation:                         
 ---------------------------------------------------------------------
 Center     Atomic      Atomic             Coordinates (Angstroms)
 Number     Number       Type             X           Y           Z
 ---------------------------------------------------------------------
      1         40           0        0.632477   -0.325135   -0.238554
      2          8           0       -0.202875   -1.040989    1.365974
      3          8           0        0.364680    1.608381   -0.180821
      4          8           0       -0.545585   -0.974537   -1.688775
      5          8           0        2.492660   -0.909863   -0.470841
      6         14           0       -2.172098   -1.108347   -1.865661
      7         14           0       -0.661319    2.873713   -0.003874
      8         14           0       -1.652193   -1.035021    2.176079
      9         14           0        4.030874   -0.496225   -0.095548
     10          8           0        4.784956    0.412699   -1.248215
     11          8           0        4.965414   -1.854656    0.071797
     12          8           0        3.899375    0.413865    1.276036
     13          8           0       -2.483181   -2.401426    1.809974
     14          8           0       -2.481543    0.340772    1.739037
     15          8           0       -1.427015   -0.891911    3.794131
     16          8           0       -2.561117   -1.267016   -3.460465
     17          8           0       -2.918080    0.144420   -1.091200
     18          8           0       -2.765410   -2.437039   -1.059711
     19          8           0       -1.778273    2.638458   -1.240890
     20          8           0        0.028407    4.343538   -0.272273
     21          8           0       -1.353323    2.903362    1.478683
     22          1           0        4.671130    0.930809    1.532536
     23          1           0        5.319324   -0.072531   -1.887006
     24          1           0        4.579827   -2.600643    0.544083
     25          1           0       -2.625362   -2.585085    0.864082
     26          1           0       -0.850512   -1.535154    4.219232
     27          1           0       -2.946933    0.260315    0.885159
     28          1           0        0.280546    4.842140    0.513339
     29          1           0       -1.765426    2.067155    1.779661
     30          1           0       -2.312220    3.411541   -1.462773
     31          1           0       -2.982623   -3.203718   -1.601809
     32          1           0       -1.866718   -1.062314   -4.096353
     33          1           0       -2.586542    1.050766   -1.281493
 ---------------------------------------------------------------------
 Rotational constants (GHZ):           0.2157100           0.1384890           0.1290918
 General basis read from cards:  (5D, 7F)
 ======================================================================================================
                                       Pseudopotential Parameters
 ======================================================================================================
  Center     Atomic      Valence      Angular      Power
  Number     Number     Electrons     Momentum     of R      Exponent        Coefficient   SO-Coeffient
 ======================================================================================================
    1         40           12
                                      G and up 
                                                     2        1.0000000        0.00000000    0.00000000
                                      S - G
                                                     2        8.6365280      150.24299400    0.00000000
                                                     2        3.7176390       18.78003600    0.00000000
                                      P - G
                                                     2        7.6267280       33.19279100    0.00000000
                                                     2        7.4532070       66.38903900    0.00000000
                                                     2        3.3583890        4.62072600    0.00000000
                                                     2        3.2297380        9.26027000    0.00000000
                                      D - G
                                                     2        5.9380860       13.99338300    0.00000000
                                                     2        5.8255440       20.99588200    0.00000000
                                                     2        2.2050190        2.28516600    0.00000000
                                                     2        2.2062920        3.44126000    0.00000000
                                      F - G
                                                     2        4.8002150       -5.23932000    0.00000000
                                                     2        4.7989920       -6.98742400    0.00000000
    2          8
                                   No pseudopotential on this center.
    3          8
                                   No pseudopotential on this center.
    4          8
                                   No pseudopotential on this center.
    5          8
                                   No pseudopotential on this center.
    6         14
                                   No pseudopotential on this center.
    7         14
                                   No pseudopotential on this center.
    8         14
                                   No pseudopotential on this center.
    9         14
                                   No pseudopotential on this center.
   10          8
                                   No pseudopotential on this center.
   11          8
                                   No pseudopotential on this center.
   12          8
                                   No pseudopotential on this center.
   13          8
                                   No pseudopotential on this center.
   14          8
                                   No pseudopotential on this center.
   15          8
                                   No pseudopotential on this center.
   16          8
                                   No pseudopotential on this center.
   17          8
                                   No pseudopotential on this center.
   18          8
                                   No pseudopotential on this center.
   19          8
                                   No pseudopotential on this center.
   20          8
                                   No pseudopotential on this center.
   21          8
                                   No pseudopotential on this center.
   22          1
                                   No pseudopotential on this center.
   23          1
                                   No pseudopotential on this center.
   24          1
                                   No pseudopotential on this center.
   25          1
                                   No pseudopotential on this center.
   26          1
                                   No pseudopotential on this center.
   27          1
                                   No pseudopotential on this center.
   28          1
                                   No pseudopotential on this center.
   29          1
                                   No pseudopotential on this center.
   30          1
                                   No pseudopotential on this center.
   31          1
                                   No pseudopotential on this center.
   32          1
                                   No pseudopotential on this center.
   33          1
                                   No pseudopotential on this center.
 ======================================================================================================
 There are   570 symmetry adapted cartesian basis functions of A   symmetry.
 There are   524 symmetry adapted basis functions of A   symmetry.
   524 basis functions,  1074 primitive gaussians,   570 cartesian basis functions
   104 alpha electrons      104 beta electrons
       nuclear repulsion energy      2854.7662743093 Hartrees.
 NAtoms=   33 NActive=   33 NUniq=   33 SFac= 1.00D+00 NAtFMM=   60 NAOKFM=F Big=F
 Integral buffers will be    131072 words long.
 Raffenetti 2 integral format.
 Two-electron integral symmetry is turned on.
 Nuclear repulsion after empirical dispersion term =     2854.7251069914 Hartrees.
 One-electron integrals computed using PRISM.
 PrsmSu:  requested number of processors reduced to:   4 ShMem   1 Linda.
   1 Symmetry operations used in ECPInt.
 ECPInt:  NShTT=   13203 NPrTT=   78401 LenC2=   11582 LenP2D=   44940.
 LDataN:  DoStor=T MaxTD1= 8 Len=  415
 Number of processors reduced to  13 by ecpmxn.
 NBasis=   524 RedAO= T EigKep=  2.94D-05  NBF=   524
 NBsUse=   524 1.00D-06 EigRej= -1.00D+00 NBFU=   524
 Defaulting to unpruned grid for atomic number  40.
 ExpMin= 1.01D-02 ExpMax= 1.61D+04 ExpMxC= 2.43D+03 IAcc=3 IRadAn=         5 AccDes= 0.00D+00
 Harris functional with IExCor=  402 and IRadAn=       5 diagonalized for initial guess.
 HarFok:  IExCor=  402 AccDes= 0.00D+00 IRadAn=         5 IDoV= 1 UseB2=F ITyADJ=14
 ICtDFT=  3500011 ScaDFX=  1.000000  1.000000  1.000000  1.000000
 Defaulting to unpruned grid for atomic number  40.
 FoFCou: FMM=F IPFlag=           0 FMFlag=      100000 FMFlg1=           0
         NFxFlg=           0 DoJE=T BraDBF=F KetDBF=T FulRan=T
         wScrn=  0.000000 ICntrl=       500 IOpCl=  0 I1Cent=   200000004 NGrid=           0
         NMat0=    1 NMatS0=      1 NMatT0=    0 NMatD0=    1 NMtDS0=    0 NMtDT0=    0
 Petite list used in FoFCou.
 Requested convergence on RMS density matrix=1.00D-08 within 128 cycles.
 Requested convergence on MAX density matrix=1.00D-06.
 Requested convergence on             energy=1.00D-06.
 No special actions if energy rises.
 Defaulting to unpruned grid for atomic number  40.
 Defaulting to unpruned grid for atomic number  40.
 Defaulting to unpruned grid for atomic number  40.
 Defaulting to unpruned grid for atomic number  40.
 Defaulting to unpruned grid for atomic number  40.
 Defaulting to unpruned grid for atomic number  40.
 Defaulting to unpruned grid for atomic number  40.
 Defaulting to unpruned grid for atomic number  40.
 Defaulting to unpruned grid for atomic number  40.
 Defaulting to unpruned grid for atomic number  40.
 Defaulting to unpruned grid for atomic number  40.
 Defaulting to unpruned grid for atomic number  40.
 Defaulting to unpruned grid for atomic number  40.
 Defaulting to unpruned grid for atomic number  40.
 Defaulting to unpruned grid for atomic number  40.
 Defaulting to unpruned grid for atomic number  40.
 SCF Done:  E(RB3LYP) =  -2416.94548316     A.U. after   14 cycles
            NFock= 14  Conv=0.36D-08     -V/T= 2.0184

 **********************************************************************

            Population analysis using the SCF Density.

 **********************************************************************

 Orbital symmetries:
       Occupied  (A) (A) (A) (A) (A) (A) (A) (A) (A) (A) (A) (A)
                 (A) (A) (A) (A) (A) (A) (A) (A) (A) (A) (A) (A)
                 (A) (A) (A) (A) (A) (A) (A) (A) (A) (A) (A) (A)
                 (A) (A) (A) (A) (A) (A) (A) (A) (A) (A) (A) (A)
                 (A) (A) (A) (A) (A) (A) (A) (A) (A) (A) (A) (A)
                 (A) (A) (A) (A) (A) (A) (A) (A) (A) (A) (A) (A)
                 (A) (A) (A) (A) (A) (A) (A) (A) (A) (A) (A) (A)
                 (A) (A) (A) (A) (A) (A) (A) (A) (A) (A) (A) (A)
                 (A) (A) (A) (A) (A) (A) (A) (A)
       Virtual   (A) (A) (A) (A) (A) (A) (A) (A) (A) (A) (A) (A)
                 (A) (A) (A) (A) (A) (A) (A) (A) (A) (A) (A) (A)
                 (A) (A) (A) (A) (A) (A) (A) (A) (A) (A) (A) (A)
                 (A) (A) (A) (A) (A) (A) (A) (A) (A) (A) (A) (A)
                 (A) (A) (A) (A) (A) (A) (A) (A) (A) (A) (A) (A)
                 (A) (A) (A) (A) (A) (A) (A) (A) (A) (A) (A) (A)
                 (A) (A) (A) (A) (A) (A) (A) (A) (A) (A) (A) (A)
                 (A) (A) (A) (A) (A) (A) (A) (A) (A) (A) (A) (A)
                 (A) (A) (A) (A) (A) (A) (A) (A) (A) (A) (A) (A)
                 (A) (A) (A) (A) (A) (A) (A) (A) (A) (A) (A) (A)
                 (A) (A) (A) (A) (A) (A) (A) (A) (A) (A) (A) (A)
                 (A) (A) (A) (A) (A) (A) (A) (A) (A) (A) (A) (A)
                 (A) (A) (A) (A) (A) (A) (A) (A) (A) (A) (A) (A)
                 (A) (A) (A) (A) (A) (A) (A) (A) (A) (A) (A) (A)
                 (A) (A) (A) (A) (A) (A) (A) (A) (A) (A) (A) (A)
                 (A) (A) (A) (A) (A) (A) (A) (A) (A) (A) (A) (A)
                 (A) (A) (A) (A) (A) (A) (A) (A) (A) (A) (A) (A)
                 (A) (A) (A) (A) (A) (A) (A) (A) (A) (A) (A) (A)
                 (A) (A) (A) (A) (A) (A) (A) (A) (A) (A) (A) (A)
                 (A) (A) (A) (A) (A) (A) (A) (A) (A) (A) (A) (A)
                 (A) (A) (A) (A) (A) (A) (A) (A) (A) (A) (A) (A)
                 (A) (A) (A) (A) (A) (A) (A) (A) (A) (A) (A) (A)
                 (A) (A) (A) (A) (A) (A) (A) (A) (A) (A) (A) (A)
                 (A) (A) (A) (A) (A) (A) (A) (A) (A) (A) (A) (A)
                 (A) (A) (A) (A) (A) (A) (A) (A) (A) (A) (A) (A)
                 (A) (A) (A) (A) (A) (A) (A) (A) (A) (A) (A) (A)
                 (A) (A) (A) (A) (A) (A) (A) (A) (A) (A) (A) (A)
                 (A) (A) (A) (A) (A) (A) (A) (A) (A) (A) (A) (A)
                 (A) (A) (A) (A) (A) (A) (A) (A) (A) (A) (A) (A)
                 (A) (A) (A) (A) (A) (A) (A) (A) (A) (A) (A) (A)
                 (A) (A) (A) (A) (A) (A) (A) (A) (A) (A) (A) (A)
                 (A) (A) (A) (A) (A) (A) (A) (A) (A) (A) (A) (A)
                 (A) (A) (A) (A) (A) (A) (A) (A) (A) (A) (A) (A)
                 (A) (A) (A) (A) (A) (A) (A) (A) (A) (A) (A) (A)
                 (A) (A) (A) (A) (A) (A) (A) (A) (A) (A) (A) (A)
 The electronic state is 1-A.
 Alpha  occ. eigenvalues --  -66.22684 -66.21717 -66.21638 -66.20899 -19.18426
 Alpha  occ. eigenvalues --  -19.18246 -19.17708 -19.16861 -19.16834 -19.16802
 Alpha  occ. eigenvalues --  -19.16678 -19.16623 -19.16065 -19.15893 -19.15879
 Alpha  occ. eigenvalues --  -19.15532 -19.15402 -19.15128 -19.14759 -19.14505
 Alpha  occ. eigenvalues --   -5.36743  -5.35822  -5.35718  -5.34956  -3.72729
 Alpha  occ. eigenvalues --   -3.72703  -3.72649  -3.71787  -3.71779  -3.71745
 Alpha  occ. eigenvalues --   -3.71709  -3.71662  -3.71628  -3.70937  -3.70919
 Alpha  occ. eigenvalues --   -3.70865  -2.13199  -1.29474  -1.29379  -1.29220
 Alpha  occ. eigenvalues --   -1.05545  -1.04663  -1.04502  -1.03400  -1.02441
 Alpha  occ. eigenvalues --   -1.02049  -1.01387  -1.01350  -1.01029  -1.00587
 Alpha  occ. eigenvalues --   -0.99703  -0.99227  -0.97375  -0.96186  -0.95731
 Alpha  occ. eigenvalues --   -0.95173  -0.60810  -0.59279  -0.59019  -0.58829
 Alpha  occ. eigenvalues --   -0.55466  -0.54421  -0.54245  -0.53377  -0.52990
 Alpha  occ. eigenvalues --   -0.52474  -0.51756  -0.50071  -0.48551  -0.47690
 Alpha  occ. eigenvalues --   -0.47363  -0.46881  -0.43299  -0.42747  -0.41738
 Alpha  occ. eigenvalues --   -0.41543  -0.41290  -0.40428  -0.39760  -0.39450
 Alpha  occ. eigenvalues --   -0.39038  -0.38799  -0.38589  -0.38116  -0.37956
 Alpha  occ. eigenvalues --   -0.37579  -0.37367  -0.36987  -0.36569  -0.36378
 Alpha  occ. eigenvalues --   -0.36159  -0.35892  -0.35369  -0.35315  -0.34876
 Alpha  occ. eigenvalues --   -0.34374  -0.33987  -0.33769  -0.33531  -0.33019
 Alpha  occ. eigenvalues --   -0.32757  -0.32242  -0.31897  -0.31187
 Alpha virt. eigenvalues --   -0.04335  -0.03028  -0.02960  -0.02908  -0.01999
 Alpha virt. eigenvalues --   -0.01263  -0.00423  -0.00173  -0.00026   0.00259
 Alpha virt. eigenvalues --    0.00729   0.00983   0.01161   0.01989   0.02230
 Alpha virt. eigenvalues --    0.02786   0.03319   0.03843   0.03910   0.04164
 Alpha virt. eigenvalues --    0.04485   0.04903   0.05844   0.06071   0.06155
 Alpha virt. eigenvalues --    0.06521   0.06816   0.07578   0.07750   0.08344
 Alpha virt. eigenvalues --    0.08665   0.08833   0.09210   0.09520   0.10009
 Alpha virt. eigenvalues --    0.10359   0.10754   0.10999   0.11115   0.11563
 Alpha virt. eigenvalues --    0.11937   0.12538   0.13053   0.13618   0.13633
 Alpha virt. eigenvalues --    0.14061   0.14198   0.14653   0.15002   0.15335
 Alpha virt. eigenvalues --    0.15603   0.15641   0.16311   0.16616   0.16899
 Alpha virt. eigenvalues --    0.17163   0.17418   0.17495   0.17767   0.18465
 Alpha virt. eigenvalues --    0.18652   0.18882   0.19194   0.19485   0.19746
 Alpha virt. eigenvalues --    0.20342   0.20481   0.21030   0.21311   0.21480
 Alpha virt. eigenvalues --    0.21757   0.21977   0.22406   0.22469   0.23254
 Alpha virt. eigenvalues --    0.23597   0.23960   0.24234   0.24567   0.24683
 Alpha virt. eigenvalues --    0.25019   0.25747   0.26014   0.26177   0.26235
 Alpha virt. eigenvalues --    0.26636   0.26946   0.27089   0.27329   0.27680
 Alpha virt. eigenvalues --    0.28007   0.28289   0.28663   0.28796   0.29083
 Alpha virt. eigenvalues --    0.29637   0.29969   0.30266   0.30603   0.30916
 Alpha virt. eigenvalues --    0.31047   0.31148   0.31867   0.32125   0.32496
 Alpha virt. eigenvalues --    0.32691   0.32973   0.33315   0.33771   0.34078
 Alpha virt. eigenvalues --    0.34553   0.35106   0.35329   0.36035   0.36641
 Alpha virt. eigenvalues --    0.37175   0.37687   0.38583   0.38820   0.39714
 Alpha virt. eigenvalues --    0.39963   0.40237   0.40397   0.41164   0.41205
 Alpha virt. eigenvalues --    0.41735   0.42712   0.43176   0.43890   0.44276
 Alpha virt. eigenvalues --    0.45110   0.46079   0.46159   0.46570   0.47064
 Alpha virt. eigenvalues --    0.47429   0.48542   0.48902   0.49692   0.50075
 Alpha virt. eigenvalues --    0.50230   0.51140   0.51524   0.52669   0.53595
 Alpha virt. eigenvalues --    0.53941   0.54717   0.55567   0.56124   0.57011
 Alpha virt. eigenvalues --    0.57404   0.58713   0.59226   0.60268   0.60540
 Alpha virt. eigenvalues --    0.61040   0.62038   0.62180   0.65424   0.66154
 Alpha virt. eigenvalues --    0.66410   0.67057   0.68180   0.68356   0.69305
 Alpha virt. eigenvalues --    0.70456   0.72110   0.72874   0.73149   0.74502
 Alpha virt. eigenvalues --    0.75858   0.77045   0.77974   0.78840   0.80013
 Alpha virt. eigenvalues --    0.80846   0.82248   0.83655   0.84010   0.85772
 Alpha virt. eigenvalues --    0.86587   0.87846   0.89707   0.91083   0.91217
 Alpha virt. eigenvalues --    0.92884   0.96051   0.96157   0.96905   0.97472
 Alpha virt. eigenvalues --    0.97776   0.98201   0.98871   0.99512   1.00137
 Alpha virt. eigenvalues --    1.01041   1.01254   1.01968   1.03462   1.03727
 Alpha virt. eigenvalues --    1.04506   1.04898   1.05517   1.07943   1.08052
 Alpha virt. eigenvalues --    1.09686   1.11878   1.15269   1.16334   1.16933
 Alpha virt. eigenvalues --    1.18874   1.19410   1.20255   1.20432   1.20854
 Alpha virt. eigenvalues --    1.21914   1.22282   1.22509   1.22823   1.23616
 Alpha virt. eigenvalues --    1.24254   1.24441   1.24472   1.25300   1.25623
 Alpha virt. eigenvalues --    1.26667   1.26699   1.28037   1.28107   1.28594
 Alpha virt. eigenvalues --    1.29633   1.30032   1.30467   1.31486   1.31857
 Alpha virt. eigenvalues --    1.31965   1.32658   1.33627   1.34472   1.35179
 Alpha virt. eigenvalues --    1.36358   1.36539   1.36886   1.37461   1.38143
 Alpha virt. eigenvalues --    1.39449   1.40191   1.40465   1.41225   1.41378
 Alpha virt. eigenvalues --    1.42140   1.42661   1.43760   1.44883   1.45816
 Alpha virt. eigenvalues --    1.47464   1.49203   1.50565   1.51644   1.53107
 Alpha virt. eigenvalues --    1.56481   1.56921   1.58277   1.59250   1.59354
 Alpha virt. eigenvalues --    1.60565   1.60958   1.61130   1.61894   1.63053
 Alpha virt. eigenvalues --    1.63767   1.64616   1.64885   1.65991   1.66464
 Alpha virt. eigenvalues --    1.67416   1.68150   1.68564   1.69840   1.70521
 Alpha virt. eigenvalues --    1.70992   1.71488   1.71858   1.72538   1.73178
 Alpha virt. eigenvalues --    1.74205   1.75104   1.75615   1.76624   1.76867
 Alpha virt. eigenvalues --    1.77047   1.77892   1.79084   1.79719   1.79831
 Alpha virt. eigenvalues --    1.80454   1.81082   1.82196   1.82447   1.83117
 Alpha virt. eigenvalues --    1.83834   1.84497   1.84975   1.86100   1.86594
 Alpha virt. eigenvalues --    1.87397   1.87933   1.89574   1.89885   1.90664
 Alpha virt. eigenvalues --    1.91160   1.92193   1.92947   1.93411   1.93803
 Alpha virt. eigenvalues --    1.94244   1.95409   1.96216   1.97577   1.97817
 Alpha virt. eigenvalues --    1.98675   2.00005   2.01527   2.04021   2.05494
 Alpha virt. eigenvalues --    2.06704   2.07673   2.08878   2.10586   2.10880
 Alpha virt. eigenvalues --    2.12369   2.13609   2.13893   2.15969   2.16085
 Alpha virt. eigenvalues --    2.16495   2.19889   2.20116   2.22268   2.28188
 Alpha virt. eigenvalues --    2.32085   2.34075   2.36756   2.39616   2.40181
 Alpha virt. eigenvalues --    2.40990   2.41518   2.42884   2.43244   2.43649
 Alpha virt. eigenvalues --    2.44335   2.45467   2.45935   2.48117   2.49264
 Alpha virt. eigenvalues --    2.49422   2.50452   2.50942   2.53047   2.53611
 Alpha virt. eigenvalues --    2.54711   2.57817   2.60117   2.60451   2.60906
 Alpha virt. eigenvalues --    2.61217   2.61524   2.61844   2.62283   2.62959
 Alpha virt. eigenvalues --    2.63422   2.63629   2.65080   2.65456   2.65735
 Alpha virt. eigenvalues --    2.66650   2.66789   2.67508   2.67945   2.68108
 Alpha virt. eigenvalues --    2.69592   2.71177   2.71343   2.72212   2.73453
 Alpha virt. eigenvalues --    2.74622   2.75725   2.76514   2.77967   2.78505
 Alpha virt. eigenvalues --    2.79733   2.80381   2.81907   2.83266   2.83582
 Alpha virt. eigenvalues --    2.84021   2.85499   2.87160   2.88016   2.88265
 Alpha virt. eigenvalues --    3.15580   3.25402   3.37246   3.39747   3.46325
 Alpha virt. eigenvalues --    3.47820   3.48842   3.49052   3.49228   3.52095
 Alpha virt. eigenvalues --    3.52822   3.54380   3.60069   3.61340   3.62217
 Alpha virt. eigenvalues --    3.65947   4.36737   5.05051   7.54247  31.18532
          Condensed to atoms (all electrons):
               1          2          3          4          5          6
     1  Zr  15.812973  -0.108363   0.005033  -0.192153  -0.049946  -0.818572
     2  O   -0.108363   8.842069   0.011905  -0.049553  -0.051527   0.078116
     3  O    0.005033   0.011905   8.852845   0.011953  -0.057149  -0.005811
     4  O   -0.192153  -0.049553   0.011953   8.883909  -0.067874  -0.799327
     5  O   -0.049946  -0.051527  -0.057149  -0.067874   9.195587  -0.002823
     6  Si  -0.818572   0.078116  -0.005811  -0.799327  -0.002823  14.317314
     7  Si  -0.650018  -0.012998  -0.923423  -0.015052  -0.031055   0.120302
     8  Si  -0.686201  -0.703285  -0.034144   0.081197  -0.010073   0.013338
     9  Si  -0.677734  -0.003442   0.034405   0.010592  -1.001185   0.074696
    10  O   -0.040070   0.000278  -0.002278  -0.000806   0.113003  -0.000990
    11  O   -0.148174   0.001111   0.002537   0.001727   0.318880   0.000201
    12  O    0.059199   0.001418   0.010456   0.001132   0.123798  -0.003585
    13  O    0.020925   0.267589   0.001118  -0.013824  -0.000487   0.015244
    14  O   -0.081773   0.242071  -0.019254  -0.003871  -0.000444   0.020395
    15  O   -0.067077   0.243155   0.000586   0.002502   0.000678  -0.000418
    16  O   -0.109173   0.005379  -0.000311   0.346531   0.002603  -0.455953
    17  O   -0.134382  -0.038148   0.008097   0.217434  -0.000661  -0.427174
    18  O   -0.064540  -0.021218   0.003262   0.235629  -0.001145  -0.493177
    19  O   -0.001383   0.007774   0.284922   0.015508   0.002161  -0.006677
    20  O   -0.134984  -0.000840   0.146184  -0.000420   0.000863   0.010682
    21  O    0.050088   0.011014   0.166399   0.004450   0.001069  -0.019935
    22  H   -0.017429   0.000030   0.000238   0.000002   0.003969   0.000203
    23  H   -0.005515  -0.000009   0.000006  -0.000027  -0.023832   0.000112
    24  H   -0.008149  -0.000022   0.000019   0.000012  -0.001668   0.000103
    25  H    0.018576  -0.021506  -0.000113  -0.001545  -0.000015   0.002114
    26  H   -0.008030  -0.012188   0.000011  -0.000013  -0.000020   0.000036
    27  H    0.015524  -0.021131   0.000779  -0.001489   0.000041   0.008011
    28  H    0.004073  -0.000012  -0.017226  -0.000014  -0.000006  -0.000328
    29  H   -0.000405  -0.004923  -0.019513  -0.000198  -0.000046   0.000670
    30  H    0.000091  -0.000009  -0.000215  -0.000540  -0.000007  -0.001085
    31  H    0.004488   0.000291  -0.000022  -0.018852  -0.000016   0.062530
    32  H    0.003214  -0.000031   0.000036   0.011693   0.000015   0.017860
    33  H   -0.019508   0.000961  -0.010781  -0.009529  -0.000054   0.055816
               7          8          9         10         11         12
     1  Zr  -0.650018  -0.686201  -0.677734  -0.040070  -0.148174   0.059199
     2  O   -0.012998  -0.703285  -0.003442   0.000278   0.001111   0.001418
     3  O   -0.923423  -0.034144   0.034405  -0.002278   0.002537   0.010456
     4  O   -0.015052   0.081197   0.010592  -0.000806   0.001727   0.001132
     5  O   -0.031055  -0.010073  -1.001185   0.113003   0.318880   0.123798
     6  Si   0.120302   0.013338   0.074696  -0.000990   0.000201  -0.003585
     7  Si  13.845814   0.181786   0.041758   0.001970  -0.000533   0.001565
     8  Si   0.181786  13.673746   0.052890  -0.001628   0.002859  -0.005159
     9  Si   0.041758   0.052890  13.927464  -0.002452  -0.165950  -0.237526
    10  O    0.001970  -0.001628  -0.002452   8.544687  -0.031662   0.058707
    11  O   -0.000533   0.002859  -0.165950  -0.031662   8.615908  -0.055303
    12  O    0.001565  -0.005159  -0.237526   0.058707  -0.055303   8.649137
    13  O    0.001142  -0.157567  -0.002510  -0.000002   0.000022  -0.000075
    14  O    0.028689  -0.465130   0.000786   0.000000   0.000011   0.000112
    15  O   -0.001486  -0.372948  -0.000000   0.000004  -0.000030   0.000232
    16  O    0.003831  -0.011454  -0.002020   0.000007  -0.000006   0.000000
    17  O    0.005626   0.109022   0.004751   0.000011   0.000007  -0.000017
    18  O   -0.002746   0.087384   0.004090   0.000008   0.000004   0.000003
    19  O   -0.451701  -0.018714   0.001204  -0.000005   0.000003  -0.000156
    20  O   -0.090038   0.009179   0.004503   0.000096   0.000000  -0.000125
    21  O   -0.001127  -0.050337  -0.004013  -0.000011   0.000007  -0.000159
    22  H    0.000225   0.000322   0.055425  -0.003881  -0.004503   0.224029
    23  H   -0.000046   0.000053   0.072596   0.233044  -0.004925   0.005203
    24  H    0.000054   0.000187   0.041761   0.007884   0.233594  -0.006659
    25  H   -0.000223   0.054916  -0.000189   0.000000   0.000000   0.000000
    26  H    0.000545   0.064714  -0.000544   0.000000   0.000000  -0.000010
    27  H   -0.000960   0.073301  -0.000083  -0.000000  -0.000000   0.000001
    28  H    0.055640   0.000088  -0.000170  -0.000000  -0.000000  -0.000010
    29  H    0.048382   0.022717  -0.000033   0.000000  -0.000000   0.000002
    30  H    0.044311   0.000216  -0.000017   0.000000  -0.000000   0.000000
    31  H    0.000096  -0.003284  -0.000063  -0.000000  -0.000000   0.000000
    32  H   -0.000650   0.000192  -0.000056  -0.000000   0.000000  -0.000000
    33  H    0.022071   0.000359   0.000161  -0.000000  -0.000000   0.000001
              13         14         15         16         17         18
     1  Zr   0.020925  -0.081773  -0.067077  -0.109173  -0.134382  -0.064540
     2  O    0.267589   0.242071   0.243155   0.005379  -0.038148  -0.021218
     3  O    0.001118  -0.019254   0.000586  -0.000311   0.008097   0.003262
     4  O   -0.013824  -0.003871   0.002502   0.346531   0.217434   0.235629
     5  O   -0.000487  -0.000444   0.000678   0.002603  -0.000661  -0.001145
     6  Si   0.015244   0.020395  -0.000418  -0.455953  -0.427174  -0.493177
     7  Si   0.001142   0.028689  -0.001486   0.003831   0.005626  -0.002746
     8  Si  -0.157567  -0.465130  -0.372948  -0.011454   0.109022   0.087384
     9  Si  -0.002510   0.000786  -0.000000  -0.002020   0.004751   0.004090
    10  O   -0.000002   0.000000   0.000004   0.000007   0.000011   0.000008
    11  O    0.000022   0.000011  -0.000030  -0.000006   0.000007   0.000004
    12  O   -0.000075   0.000112   0.000232   0.000000  -0.000017   0.000003
    13  O    8.644747   0.023187  -0.120568   0.004041  -0.028806  -0.042919
    14  O    0.023187   8.813605   0.155927   0.002298  -0.027138  -0.023033
    15  O   -0.120568   0.155927   8.789923  -0.000168   0.003936   0.001296
    16  O    0.004041   0.002298  -0.000168   8.904429  -0.097773  -0.099816
    17  O   -0.028806  -0.027138   0.003936  -0.097773   8.941350   0.228013
    18  O   -0.042919  -0.023033   0.001296  -0.099816   0.228013   9.044986
    19  O    0.000233   0.000930   0.000339  -0.000840  -0.030135   0.000130
    20  O    0.000007  -0.001279   0.000001   0.000030  -0.000952   0.000023
    21  O   -0.000362   0.025167   0.000749  -0.000145  -0.006172   0.000398
    22  H   -0.000000  -0.000000   0.000002  -0.000000   0.000000  -0.000000
    23  H    0.000000  -0.000000   0.000000  -0.000000   0.000000  -0.000000
    24  H   -0.000000   0.000000   0.000001   0.000000  -0.000000  -0.000000
    25  H    0.217679  -0.009124   0.007416  -0.000280   0.000562   0.015054
    26  H   -0.006653   0.001034   0.225170   0.000000  -0.000023   0.000006
    27  H   -0.004581   0.206010   0.000096   0.000334   0.017320  -0.000901
    28  H    0.000000  -0.000004  -0.000001   0.000000   0.000002   0.000000
    29  H    0.000774   0.014717  -0.001336  -0.000004  -0.000643  -0.000002
    30  H    0.000001   0.000013   0.000001   0.000110  -0.000467  -0.000011
    31  H    0.002263   0.000083  -0.000019   0.005053  -0.001313   0.214872
    32  H   -0.000007  -0.000007   0.000000   0.236623  -0.003445   0.003929
    33  H    0.000253   0.002170  -0.000057   0.000292   0.230503   0.002181
              19         20         21         22         23         24
     1  Zr  -0.001383  -0.134984   0.050088  -0.017429  -0.005515  -0.008149
     2  O    0.007774  -0.000840   0.011014   0.000030  -0.000009  -0.000022
     3  O    0.284922   0.146184   0.166399   0.000238   0.000006   0.000019
     4  O    0.015508  -0.000420   0.004450   0.000002  -0.000027   0.000012
     5  O    0.002161   0.000863   0.001069   0.003969  -0.023832  -0.001668
     6  Si  -0.006677   0.010682  -0.019935   0.000203   0.000112   0.000103
     7  Si  -0.451701  -0.090038  -0.001127   0.000225  -0.000046   0.000054
     8  Si  -0.018714   0.009179  -0.050337   0.000322   0.000053   0.000187
     9  Si   0.001204   0.004503  -0.004013   0.055425   0.072596   0.041761
    10  O   -0.000005   0.000096  -0.000011  -0.003881   0.233044   0.007884
    11  O    0.000003   0.000000   0.000007  -0.004503  -0.004925   0.233594
    12  O   -0.000156  -0.000125  -0.000159   0.224029   0.005203  -0.006659
    13  O    0.000233   0.000007  -0.000362  -0.000000   0.000000  -0.000000
    14  O    0.000930  -0.001279   0.025167  -0.000000  -0.000000   0.000000
    15  O    0.000339   0.000001   0.000749   0.000002   0.000000   0.000001
    16  O   -0.000840   0.000030  -0.000145  -0.000000  -0.000000   0.000000
    17  O   -0.030135  -0.000952  -0.006172   0.000000   0.000000  -0.000000
    18  O    0.000130   0.000023   0.000398  -0.000000  -0.000000  -0.000000
    19  O    8.893838   0.034004   0.027231  -0.000000   0.000000  -0.000000
    20  O    0.034004   8.650665  -0.056166   0.000000   0.000000  -0.000000
    21  O    0.027231  -0.056166   8.491049  -0.000004   0.000000   0.000000
    22  H   -0.000000   0.000000  -0.000004   0.347180   0.000045   0.000106
    23  H    0.000000   0.000000   0.000000   0.000045   0.350569   0.000032
    24  H   -0.000000  -0.000000   0.000000   0.000106   0.000032   0.368745
    25  H   -0.000033   0.000000  -0.000010   0.000000   0.000000   0.000000
    26  H    0.000000  -0.000000   0.000049  -0.000000  -0.000000  -0.000000
    27  H   -0.000222   0.000227  -0.004739  -0.000000  -0.000000   0.000000
    28  H    0.004313   0.228774  -0.001357  -0.000000   0.000000  -0.000000
    29  H   -0.008450   0.008150   0.208646   0.000000  -0.000000  -0.000000
    30  H    0.222057  -0.001721  -0.007470   0.000000  -0.000000  -0.000000
    31  H    0.000002  -0.000000  -0.000000  -0.000000   0.000000   0.000000
    32  H    0.000084   0.000000   0.000001   0.000000  -0.000000  -0.000000
    33  H    0.013110  -0.000006   0.001307  -0.000000  -0.000000   0.000000
              25         26         27         28         29         30
     1  Zr   0.018576  -0.008030   0.015524   0.004073  -0.000405   0.000091
     2  O   -0.021506  -0.012188  -0.021131  -0.000012  -0.004923  -0.000009
     3  O   -0.000113   0.000011   0.000779  -0.017226  -0.019513  -0.000215
     4  O   -0.001545  -0.000013  -0.001489  -0.000014  -0.000198  -0.000540
     5  O   -0.000015  -0.000020   0.000041  -0.000006  -0.000046  -0.000007
     6  Si   0.002114   0.000036   0.008011  -0.000328   0.000670  -0.001085
     7  Si  -0.000223   0.000545  -0.000960   0.055640   0.048382   0.044311
     8  Si   0.054916   0.064714   0.073301   0.000088   0.022717   0.000216
     9  Si  -0.000189  -0.000544  -0.000083  -0.000170  -0.000033  -0.000017
    10  O    0.000000   0.000000  -0.000000  -0.000000   0.000000   0.000000
    11  O    0.000000   0.000000  -0.000000  -0.000000  -0.000000  -0.000000
    12  O    0.000000  -0.000010   0.000001  -0.000010   0.000002   0.000000
    13  O    0.217679  -0.006653  -0.004581   0.000000   0.000774   0.000001
    14  O   -0.009124   0.001034   0.206010  -0.000004   0.014717   0.000013
    15  O    0.007416   0.225170   0.000096  -0.000001  -0.001336   0.000001
    16  O   -0.000280   0.000000   0.000334   0.000000  -0.000004   0.000110
    17  O    0.000562  -0.000023   0.017320   0.000002  -0.000643  -0.000467
    18  O    0.015054   0.000006  -0.000901   0.000000  -0.000002  -0.000011
    19  O   -0.000033   0.000000  -0.000222   0.004313  -0.008450   0.222057
    20  O    0.000000  -0.000000   0.000227   0.228774   0.008150  -0.001721
    21  O   -0.000010   0.000049  -0.004739  -0.001357   0.208646  -0.007470
    22  H    0.000000  -0.000000  -0.000000  -0.000000   0.000000   0.000000
    23  H    0.000000  -0.000000  -0.000000   0.000000  -0.000000  -0.000000
    24  H    0.000000  -0.000000   0.000000  -0.000000  -0.000000  -0.000000
    25  H    0.301487  -0.000029   0.000017   0.000000   0.000001   0.000000
    26  H   -0.000029   0.369499  -0.000036   0.000000   0.000017  -0.000000
    27  H    0.000017  -0.000036   0.284991  -0.000000  -0.001026   0.000005
    28  H    0.000000   0.000000  -0.000000   0.349918  -0.000020  -0.000009
    29  H    0.000001   0.000017  -0.001026  -0.000020   0.285855   0.000167
    30  H    0.000000  -0.000000   0.000005  -0.000009   0.000167   0.335121
    31  H   -0.000151   0.000000   0.000014   0.000000   0.000000  -0.000000
    32  H   -0.000001  -0.000000  -0.000000   0.000000  -0.000000  -0.000000
    33  H    0.000004   0.000000  -0.002440  -0.000002   0.000130  -0.001024
              31         32         33
     1  Zr   0.004488   0.003214  -0.019508
     2  O    0.000291  -0.000031   0.000961
     3  O   -0.000022   0.000036  -0.010781
     4  O   -0.018852   0.011693  -0.009529
     5  O   -0.000016   0.000015  -0.000054
     6  Si   0.062530   0.017860   0.055816
     7  Si   0.000096  -0.000650   0.022071
     8  Si  -0.003284   0.000192   0.000359
     9  Si  -0.000063  -0.000056   0.000161
    10  O   -0.000000  -0.000000  -0.000000
    11  O   -0.000000   0.000000  -0.000000
    12  O    0.000000  -0.000000   0.000001
    13  O    0.002263  -0.000007   0.000253
    14  O    0.000083  -0.000007   0.002170
    15  O   -0.000019   0.000000  -0.000057
    16  O    0.005053   0.236623   0.000292
    17  O   -0.001313  -0.003445   0.230503
    18  O    0.214872   0.003929   0.002181
    19  O    0.000002   0.000084   0.013110
    20  O   -0.000000   0.000000  -0.000006
    21  O   -0.000000   0.000001   0.001307
    22  H   -0.000000   0.000000  -0.000000
    23  H    0.000000  -0.000000  -0.000000
    24  H    0.000000  -0.000000   0.000000
    25  H   -0.000151  -0.000001   0.000004
    26  H    0.000000  -0.000000   0.000000
    27  H    0.000014  -0.000000  -0.002440
    28  H    0.000000   0.000000  -0.000002
    29  H    0.000000  -0.000000   0.000130
    30  H   -0.000000  -0.000000  -0.001024
    31  H    0.327716  -0.000012  -0.000037
    32  H   -0.000012   0.348966   0.000148
    33  H   -0.000037   0.000148   0.270710
 Mulliken charges:
               1
     1  Zr   0.029396
     2  O   -0.663957
     3  O   -0.450551
     4  O   -0.649185
     5  O   -0.462634
     6  Si   2.238114
     7  Si   1.778249
     8  Si   2.091461
     9  Si   1.770904
    10  O   -0.875913
    11  O   -0.765785
    12  O   -0.826212
    13  O   -0.820865
    14  O   -0.906149
    15  O   -0.867907
    16  O   -0.733619
    17  O   -0.969384
    18  O   -1.091761
    19  O   -0.989527
    20  O   -0.806856
    21  O   -0.835618
    22  H    0.394040
    23  H    0.372695
    24  H    0.364000
    25  H    0.415392
    26  H    0.366464
    27  H    0.430937
    28  H    0.376351
    29  H    0.446371
    30  H    0.410482
    31  H    0.406361
    32  H    0.381445
    33  H    0.443261
 Sum of Mulliken charges =  -0.00000
 Mulliken charges with hydrogens summed into heavy atoms:
               1
     1  Zr   0.029396
     2  O   -0.663957
     3  O   -0.450551
     4  O   -0.649185
     5  O   -0.462634
     6  Si   2.238114
     7  Si   1.778249
     8  Si   2.091461
     9  Si   1.770904
    10  O   -0.503218
    11  O   -0.401785
    12  O   -0.432171
    13  O   -0.405473
    14  O   -0.475212
    15  O   -0.501443
    16  O   -0.352174
    17  O   -0.526124
    18  O   -0.685400
    19  O   -0.579045
    20  O   -0.430505
    21  O   -0.389247
 Electronic spatial extent (au):  <R**2>=           9553.9006
 Charge=             -0.0000 electrons
 Dipole moment (field-independent basis, Debye):
    X=              3.0245    Y=             -1.4179    Z=             -3.0600  Tot=              4.5301
 Quadrupole moment (field-independent basis, Debye-Ang):
   XX=           -165.6387   YY=           -150.6640   ZZ=           -159.5230
   XY=             -4.6443   XZ=             13.8589   YZ=              2.2475
 Traceless Quadrupole moment (field-independent basis, Debye-Ang):
   XX=             -7.0301   YY=              7.9446   ZZ=             -0.9144
   XY=             -4.6443   XZ=             13.8589   YZ=              2.2475
 Octapole moment (field-independent basis, Debye-Ang**2):
  XXX=             84.8041  YYY=             -7.1921  ZZZ=            -49.2560  XYY=             -6.0017
  XXY=             18.8980  XXZ=            -19.5067  XZZ=             61.5829  YZZ=            -28.0336
  YYZ=             -0.6780  XYZ=              7.5228
 Hexadecapole moment (field-independent basis, Debye-Ang**3):
 XXXX=          -5953.2780 YYYY=          -2728.0815 ZZZZ=          -2279.7942 XXXY=             37.8063
 XXXZ=             18.1990 YYYX=            -24.6895 YYYZ=            131.3664 ZZZX=             53.4157
 ZZZY=            -87.9447 XXYY=          -1401.3404 XXZZ=          -1429.8259 YYZZ=           -893.4864
 XXYZ=             52.2932 YYXZ=            210.8728 ZZXY=            -37.4813
 N-N= 2.854725106991D+03 E-N=-1.142212023269D+04  KE= 2.373169541413D+03
 PrsmSu:  requested number of processors reduced to:   2 ShMem   1 Linda.
 PrsmSu:  requested number of processors reduced to:  10 ShMem   1 Linda.
   1 Symmetry operations used in ECPInt.
 ECPInt:  NShTT=   13203 NPrTT=   78401 LenC2=   11582 LenP2D=   44940.
 LDataN:  DoStor=T MaxTD1= 9 Len=  602
 Number of processors reduced to  14 by ecpmxn.
 Calling FoFJK, ICntrl=      2127 FMM=F ISym2X=0 I1Cent= 0 IOpClX= 0 NMat=1 NMatS=1 NMatT=0.
 CoulSu:  requested number of processors reduced to:  10 ShMem   1 Linda.
 Defaulting to unpruned grid for atomic number  40.
 Defaulting to unpruned grid for atomic number  40.
 Defaulting to unpruned grid for atomic number  40.
 Defaulting to unpruned grid for atomic number  40.
 Defaulting to unpruned grid for atomic number  40.
 Defaulting to unpruned grid for atomic number  40.
 Defaulting to unpruned grid for atomic number  40.
 Defaulting to unpruned grid for atomic number  40.
 Defaulting to unpruned grid for atomic number  40.
 Defaulting to unpruned grid for atomic number  40.
 Defaulting to unpruned grid for atomic number  40.
 Defaulting to unpruned grid for atomic number  40.
 Defaulting to unpruned grid for atomic number  40.
 Defaulting to unpruned grid for atomic number  40.
 Defaulting to unpruned grid for atomic number  40.
 Defaulting to unpruned grid for atomic number  40.
 ***** Axes restored to original set *****
 -------------------------------------------------------------------
 Center     Atomic                   Forces (Hartrees/Bohr)
 Number     Number              X              Y              Z
 -------------------------------------------------------------------
      1       40          -0.004475914    0.000639039    0.000323459
      2        8          -0.000102903   -0.000216649    0.000154463
      3        8          -0.000160591   -0.000113654   -0.000222474
      4        8           0.000017476   -0.000096786   -0.000094264
      5        8           0.001948827    0.001174423    0.000614877
      6       14           0.000185999   -0.000005671    0.000159229
      7       14           0.000255445   -0.000365954    0.000078408
      8       14           0.000398527    0.000055323   -0.000239329
      9       14           0.003676103   -0.002664227   -0.001998694
     10        8          -0.000150399    0.000279629    0.000466444
     11        8          -0.000190578    0.000536688    0.000319688
     12        8          -0.000699577    0.000358759    0.000393756
     13        8          -0.000116939   -0.000038287    0.000044204
     14        8          -0.000089990    0.000033533    0.000015454
     15        8          -0.000068561   -0.000018621    0.000120775
     16        8          -0.000053565   -0.000005500   -0.000058726
     17        8          -0.000009217    0.000014087   -0.000036078
     18        8          -0.000060275   -0.000002219   -0.000032738
     19        8          -0.000027650    0.000084611   -0.000022777
     20        8           0.000011754    0.000150814   -0.000015483
     21        8          -0.000058723    0.000086163   -0.000015792
     22        1          -0.000244876    0.000345624    0.000216714
     23        1          -0.000038370   -0.000014591   -0.000031836
     24        1          -0.000077359   -0.000131690   -0.000131074
     25        1           0.000025554   -0.000001916    0.000003925
     26        1           0.000002874    0.000024268   -0.000053195
     27        1           0.000022256    0.000013124    0.000017047
     28        1          -0.000020328   -0.000060562   -0.000015004
     29        1           0.000015376   -0.000027564    0.000012960
     30        1          -0.000006321   -0.000008895   -0.000003141
     31        1           0.000029262    0.000010070    0.000007234
     32        1           0.000022123   -0.000005657    0.000013796
     33        1           0.000040562   -0.000027710    0.000008173
 -------------------------------------------------------------------
 Cartesian Forces:  Max     0.004475914 RMS     0.000733646

 GradGradGradGradGradGradGradGradGradGradGradGradGradGradGradGradGradGrad
 Berny optimization.
 FormGI is forming the generalized inverse of G from B-inverse, IUseBI=4.
 Internal  Forces:  Max     0.004164664 RMS     0.000534462
 Search for a local minimum.
 Step number   1 out of a maximum of  148
 All quantities printed in internal units (Hartrees-Bohrs-Radians)
 Mixed Optimization -- En-DIIS/RFO-DIIS
 Second derivative matrix not updated -- first step.
 ITU=  0
     Eigenvalues ---    0.00230   0.00230   0.00230   0.00230   0.03239
     Eigenvalues ---    0.03482   0.03500   0.03541   0.03581   0.03661
     Eigenvalues ---    0.03665   0.03674   0.03688   0.03735   0.03789
     Eigenvalues ---    0.03802   0.03811   0.03828   0.03857   0.03858
     Eigenvalues ---    0.08414   0.09469   0.11097   0.11247   0.11629
     Eigenvalues ---    0.11809   0.11979   0.12095   0.12205   0.12217
     Eigenvalues ---    0.12601   0.12707   0.12970   0.13105   0.13263
     Eigenvalues ---    0.16000   0.16000   0.16000   0.16000   0.16000
     Eigenvalues ---    0.16000   0.16000   0.16000   0.16000   0.16000
     Eigenvalues ---    0.16000   0.16000   0.19184   0.19894   0.19953
     Eigenvalues ---    0.20035   0.20159   0.20200   0.20253   0.20422
     Eigenvalues ---    0.20563   0.20992   0.21009   0.21136   0.21189
     Eigenvalues ---    0.21280   0.25000   0.25000   0.25000   0.37992
     Eigenvalues ---    0.40480   0.40678   0.41116   0.41559   0.42453
     Eigenvalues ---    0.42502   0.42607   0.42768   0.43316   0.43953
     Eigenvalues ---    0.44102   0.44216   0.44422   0.44766   0.44782
     Eigenvalues ---    0.50680   0.51458   0.52211   0.52570   0.54329
     Eigenvalues ---    0.54614   0.54649   0.54671   0.54695   0.54715
     Eigenvalues ---    0.54739   0.548931000.000001000.000001000.00000
     Eigenvalues --- 1000.000001000.000001000.000001000.000001000.00000
     Eigenvalues --- 1000.000001000.000001000.000001000.000001000.00000
     Eigenvalues --- 1000.000001000.000001000.000001000.000001000.00000
     Eigenvalues --- 1000.000001000.000001000.000001000.000001000.00000
     Eigenvalues --- 1000.000001000.000001000.000001000.000001000.00000
     Eigenvalues --- 1000.000001000.000001000.000001000.000001000.00000
     Eigenvalues --- 1000.000001000.000001000.000001000.000001000.00000
     Eigenvalues --- 1000.000001000.000001000.000001000.000001000.00000
     Eigenvalues --- 1000.000001000.000001000.00000
 RFO step:  Lambda=-2.10213309D-04 EMin= 2.30000000D-03
 Linear search not attempted -- first point.
 Iteration  1 RMS(Cart)=  0.06540080 RMS(Int)=  0.00148200
 Iteration  2 RMS(Cart)=  0.00258632 RMS(Int)=  0.00000404
 Iteration  3 RMS(Cart)=  0.00000359 RMS(Int)=  0.00000385
 Iteration  4 RMS(Cart)=  0.00000000 RMS(Int)=  0.00000385
 Iteration  1 RMS(Cart)=  0.00000000 RMS(Int)=  0.00000000
 Variable       Old X    -DE/DX   Delta X   Delta X   Delta X     New X
                                 (Linear)    (Quad)   (Total)
    R1        3.67636   0.00008   0.00000   0.00037   0.00037   3.67674
    R2        3.69031  -0.00025   0.00000  -0.00119  -0.00119   3.68912
    R3        3.73798  -0.00001   0.00000  -0.00008  -0.00008   3.73790
    R4        3.71087   0.00416   0.00000   0.02085   0.02085   3.73172
    R5        3.13764  -0.00020   0.00000  -0.00048  -0.00048   3.13716
    R6        3.09653  -0.00022   0.00000  -0.00049  -0.00049   3.09603
    R7        3.10211  -0.00015   0.00000  -0.00035  -0.00035   3.10176
    R8        3.09249   0.00137   0.00000   0.00305   0.00305   3.09554
    R9        3.11657   0.00005   0.00000   0.00012   0.00012   3.11668
   R10        3.11988  -0.00004   0.00000  -0.00009  -0.00009   3.11979
   R11        3.14342  -0.00001   0.00000  -0.00002  -0.00002   3.14340
   R12        3.18077   0.00002   0.00000   0.00006   0.00006   3.18083
   R13        3.10982   0.00009   0.00000   0.00020   0.00020   3.11002
   R14        3.09230   0.00002   0.00000   0.00004   0.00004   3.09234
   R15        3.10032   0.00006   0.00000   0.00014   0.00014   3.10046
   R16        3.14606   0.00006   0.00000   0.00016   0.00016   3.14622
   R17        3.09896   0.00006   0.00000   0.00014   0.00014   3.09911
   R18        3.11858  -0.00023   0.00000  -0.00055  -0.00055   3.11802
   R19        3.13188  -0.00044   0.00000  -0.00107  -0.00107   3.13081
   R20        3.12051   0.00106   0.00000   0.00250   0.00250   3.12301
   R21        1.82146   0.00000   0.00000   0.00000   0.00000   1.82146
   R22        1.82065   0.00007   0.00000   0.00012   0.00012   1.82077
   R23        1.82104   0.00010   0.00000   0.00018   0.00018   1.82123
   R24        1.84058  -0.00001   0.00000  -0.00001  -0.00001   1.84057
   R25        1.84398  -0.00003   0.00000  -0.00005  -0.00005   1.84393
   R26        1.81928  -0.00004   0.00000  -0.00007  -0.00007   1.81920
   R27        1.82086   0.00001   0.00000   0.00001   0.00001   1.82087
   R28        1.85885  -0.00002   0.00000  -0.00004  -0.00004   1.85882
   R29        1.82126  -0.00002   0.00000  -0.00003  -0.00003   1.82123
   R30        1.82433  -0.00000   0.00000  -0.00000  -0.00000   1.82433
   R31        1.82176  -0.00005   0.00000  -0.00009  -0.00009   1.82167
   R32        1.85122   0.00002   0.00000   0.00004   0.00004   1.85126
    A1        1.85569   0.00016   0.00000   0.00202   0.00201   1.85771
    A2        1.80097   0.00008   0.00000   0.00004   0.00004   1.80101
    A3        1.97659  -0.00007   0.00000  -0.00021  -0.00021   1.97637
    A4        1.83906   0.00003   0.00000   0.00001   0.00001   1.83907
    A5        2.01332   0.00013   0.00000   0.00097   0.00097   2.01429
    A6        1.96025  -0.00032   0.00000  -0.00274  -0.00274   1.95752
    A7        2.45892  -0.00010   0.00000  -0.00041  -0.00041   2.45851
    A8        2.59369   0.00013   0.00000   0.00051   0.00051   2.59419
    A9        2.34042  -0.00004   0.00000  -0.00014  -0.00014   2.34028
   A10        2.47837   0.00327   0.00000   0.00000   0.00000   2.47837
   A11        1.92384  -0.00000   0.00000  -0.00008  -0.00008   1.92376
   A12        1.91272  -0.00005   0.00000  -0.00032  -0.00032   1.91240
   A13        1.94584   0.00007   0.00000   0.00048   0.00048   1.94632
   A14        2.00429   0.00000   0.00000  -0.00010  -0.00010   2.00418
   A15        1.88341  -0.00003   0.00000  -0.00010  -0.00010   1.88330
   A16        1.79022   0.00002   0.00000   0.00018   0.00018   1.79039
   A17        1.80104   0.00005   0.00000   0.00040   0.00040   1.80144
[...]
    18  O   -0.045843  -0.021795   0.003238   0.227556  -0.000784  -0.493901
    19  O    0.009588   0.007549   0.286636   0.016145   0.002520  -0.009553
    20  O   -0.138620  -0.000814   0.146054  -0.000384   0.001036   0.012002
    21  O    0.057078   0.010347   0.157964   0.004628   0.000899  -0.020121
    22  H   -0.010537  -0.000034   0.000188  -0.000000   0.002557   0.000174
    23  H   -0.002703  -0.000011   0.000002  -0.000016  -0.023250   0.000082
    24  H   -0.004006  -0.000094   0.000007   0.000006   0.000185   0.000097
    25  H    0.017530  -0.022525  -0.000106  -0.001182  -0.000025   0.001261
    26  H   -0.008516  -0.009296   0.000016  -0.000014  -0.000013   0.000008
    27  H    0.009236  -0.020878   0.000792  -0.001413   0.000034   0.010850
    28  H    0.004212  -0.000012  -0.017413  -0.000014  -0.000008  -0.000314
    29  H   -0.000521  -0.004577  -0.019240  -0.000191  -0.000040   0.000720
    30  H   -0.000872  -0.000005  -0.000173  -0.000569  -0.000007  -0.000622
    31  H    0.002492   0.000218  -0.000022  -0.018700  -0.000020   0.064130
    32  H    0.003869  -0.000030   0.000037   0.012258   0.000018   0.016005
    33  H   -0.019633   0.000880  -0.010762  -0.009275  -0.000061   0.055997
               7          8          9         10         11         12
     1  Zr  -0.613086  -0.587303  -0.616804  -0.063520  -0.128239   0.021435
     2  O   -0.013206  -0.740553   0.000936   0.000408  -0.000214   0.004708
     3  O   -0.898511  -0.031662   0.018069  -0.003137   0.002989   0.007426
     4  O   -0.027895   0.069902   0.009396  -0.000694   0.001832   0.001466
     5  O   -0.031775  -0.010783  -0.926400   0.112481   0.297872   0.122691
     6  Si   0.123263   0.024322   0.069144   0.000145  -0.000450  -0.002539
     7  Si  13.811933   0.161429   0.040985   0.002018  -0.001234   0.001432
     8  Si   0.161429  13.680225   0.046916  -0.001527   0.003003  -0.004566
     9  Si   0.040985   0.046916  13.755759   0.024229  -0.130418  -0.244652
    10  O    0.002018  -0.001527   0.024229   8.551427  -0.048838   0.058769
    11  O   -0.001234   0.003003  -0.130418  -0.048838   8.595389  -0.038349
    12  O    0.001432  -0.004566  -0.244652   0.058769  -0.038349   8.677565
    13  O   -0.000258  -0.177820  -0.003468  -0.000003   0.000031  -0.000155
    14  O    0.032298  -0.452146   0.001790  -0.000001   0.000009   0.000168
    15  O   -0.000591  -0.389708   0.000659   0.000004  -0.000039   0.000524
    16  O    0.004395  -0.011963  -0.001995   0.000005  -0.000007  -0.000002
    17  O    0.001168   0.101444   0.004108   0.000008   0.000007  -0.000026
    18  O   -0.003744   0.083342   0.003968   0.000006   0.000002   0.000013
    19  O   -0.462663  -0.017492   0.000435  -0.000002   0.000002  -0.000195
    20  O   -0.087232   0.008473   0.004750   0.000092  -0.000003  -0.000024
    21  O    0.001546  -0.046616  -0.003521  -0.000003   0.000006  -0.000160
    22  H    0.000270   0.000331   0.047576  -0.002894  -0.003664   0.225165
    23  H   -0.000056   0.000047   0.067798   0.232538  -0.004187   0.005724
    24  H    0.000047   0.000189   0.034302   0.008187   0.233195  -0.006180
    25  H   -0.000210   0.057675  -0.000207  -0.000000   0.000000  -0.000000
    26  H    0.000538   0.060434  -0.000707   0.000000   0.000001  -0.000023
    27  H   -0.000371   0.073260  -0.000012   0.000000  -0.000000   0.000002
    28  H    0.055930   0.000105  -0.000188  -0.000000  -0.000000  -0.000007
    29  H    0.047609   0.021879  -0.000038   0.000000  -0.000000   0.000003
    30  H    0.044876   0.000121  -0.000011  -0.000000   0.000000   0.000000
    31  H    0.000110  -0.002811  -0.000070   0.000000  -0.000000   0.000000
    32  H   -0.000655   0.000221  -0.000032  -0.000000   0.000000  -0.000000
    33  H    0.022140   0.000290   0.000204  -0.000000  -0.000000   0.000001
              13         14         15         16         17         18
     1  Zr   0.032645  -0.092704  -0.079442  -0.113479  -0.104373  -0.045843
     2  O    0.275873   0.245448   0.258998   0.005638  -0.037747  -0.021795
     3  O    0.000911  -0.019900   0.000694  -0.000582   0.009697   0.003238
     4  O   -0.015372  -0.004216   0.002601   0.344280   0.212822   0.227556
     5  O    0.000012  -0.000402   0.000520   0.002508  -0.000489  -0.000784
     6  Si   0.012840   0.022426   0.002324  -0.441007  -0.441732  -0.493901
     7  Si  -0.000258   0.032298  -0.000591   0.004395   0.001168  -0.003744
     8  Si  -0.177820  -0.452146  -0.389708  -0.011963   0.101444   0.083342
     9  Si  -0.003468   0.001790   0.000659  -0.001995   0.004108   0.003968
    10  O   -0.000003  -0.000001   0.000004   0.000005   0.000008   0.000006
    11  O    0.000031   0.000009  -0.000039  -0.000007   0.000007   0.000002
    12  O   -0.000155   0.000168   0.000524  -0.000002  -0.000026   0.000013
    13  O    8.645626   0.026305  -0.118113   0.004073  -0.029008  -0.044032
    14  O    0.026305   8.803453   0.152822   0.002361  -0.027640  -0.022434
    15  O   -0.118113   0.152822   8.802315  -0.000172   0.003931   0.001391
    16  O    0.004073   0.002361  -0.000172   8.896740  -0.100042  -0.099530
    17  O   -0.029008  -0.027640   0.003931  -0.100042   8.939031   0.229834
    18  O   -0.044032  -0.022434   0.001391  -0.099530   0.229834   9.039291
    19  O    0.000230  -0.000396   0.000319  -0.000602  -0.030050   0.000044
    20  O    0.000003  -0.001124   0.000016   0.000033  -0.000918   0.000021
    21  O   -0.000337   0.024008   0.000387  -0.000145  -0.006144   0.000380
    22  H   -0.000000   0.000000   0.000004  -0.000000   0.000000  -0.000000
    23  H    0.000000  -0.000000   0.000000  -0.000000   0.000000   0.000000
    24  H   -0.000000   0.000000   0.000001   0.000000  -0.000000  -0.000000
    25  H    0.217419  -0.009454   0.007220  -0.000270   0.000611   0.015390
    26  H   -0.006310   0.000520   0.226486   0.000000  -0.000023   0.000006
    27  H   -0.004544   0.208161   0.000321   0.000310   0.017653  -0.000832
    28  H    0.000000  -0.000003  -0.000001   0.000000   0.000003   0.000000
    29  H    0.000786   0.015030  -0.001219  -0.000004  -0.000641  -0.000002
    30  H    0.000001   0.000030   0.000001   0.000100  -0.000454  -0.000011
    31  H    0.002277   0.000077  -0.000020   0.004764  -0.001290   0.215028
    32  H   -0.000007  -0.000006   0.000000   0.237080  -0.003244   0.003943
    33  H    0.000242   0.002170  -0.000054   0.000518   0.230454   0.002121
              19         20         21         22         23         24
     1  Zr   0.009588  -0.138620   0.057078  -0.010537  -0.002703  -0.004006
     2  O    0.007549  -0.000814   0.010347  -0.000034  -0.000011  -0.000094
     3  O    0.286636   0.146054   0.157964   0.000188   0.000002   0.000007
     4  O    0.016145  -0.000384   0.004628  -0.000000  -0.000016   0.000006
     5  O    0.002520   0.001036   0.000899   0.002557  -0.023250   0.000185
     6  Si  -0.009553   0.012002  -0.020121   0.000174   0.000082   0.000097
     7  Si  -0.462663  -0.087232   0.001546   0.000270  -0.000056   0.000047
     8  Si  -0.017492   0.008473  -0.046616   0.000331   0.000047   0.000189
     9  Si   0.000435   0.004750  -0.003521   0.047576   0.067798   0.034302
    10  O   -0.000002   0.000092  -0.000003  -0.002894   0.232538   0.008187
    11  O    0.000002  -0.000003   0.000006  -0.003664  -0.004187   0.233195
    12  O   -0.000195  -0.000024  -0.000160   0.225165   0.005724  -0.006180
    13  O    0.000230   0.000003  -0.000337  -0.000000   0.000000  -0.000000
    14  O   -0.000396  -0.001124   0.024008   0.000000  -0.000000   0.000000
    15  O    0.000319   0.000016   0.000387   0.000004   0.000000   0.000001
    16  O   -0.000602   0.000033  -0.000145  -0.000000  -0.000000   0.000000
    17  O   -0.030050  -0.000918  -0.006144   0.000000   0.000000  -0.000000
    18  O    0.000044   0.000021   0.000380  -0.000000   0.000000  -0.000000
    19  O    8.897857   0.031631   0.026619  -0.000000   0.000000  -0.000000
    20  O    0.031631   8.651543  -0.057098   0.000001   0.000000  -0.000000
    21  O    0.026619  -0.057098   8.490161  -0.000005   0.000000   0.000000
    22  H   -0.000000   0.000001  -0.000005   0.343162   0.000007   0.000072
    23  H    0.000000   0.000000   0.000000   0.000007   0.351006   0.000026
    24  H   -0.000000  -0.000000   0.000000   0.000072   0.000026   0.368580
    25  H   -0.000032   0.000000  -0.000009   0.000000   0.000000   0.000000
    26  H    0.000000  -0.000000   0.000054  -0.000000  -0.000000  -0.000000
    27  H   -0.000192   0.000226  -0.004666  -0.000000   0.000000   0.000000
    28  H    0.004303   0.228679  -0.001427   0.000000   0.000000  -0.000000
    29  H   -0.008445   0.008173   0.208817   0.000000   0.000000  -0.000000
    30  H    0.222031  -0.001559  -0.007560   0.000000  -0.000000  -0.000000
    31  H    0.000002  -0.000000  -0.000000  -0.000000   0.000000   0.000000
    32  H    0.000093   0.000000   0.000001   0.000000  -0.000000  -0.000000
    33  H    0.012873  -0.000004   0.001336  -0.000000  -0.000000   0.000000
              25         26         27         28         29         30
     1  Zr   0.017530  -0.008516   0.009236   0.004212  -0.000521  -0.000872
     2  O   -0.022525  -0.009296  -0.020878  -0.000012  -0.004577  -0.000005
     3  O   -0.000106   0.000016   0.000792  -0.017413  -0.019240  -0.000173
     4  O   -0.001182  -0.000014  -0.001413  -0.000014  -0.000191  -0.000569
     5  O   -0.000025  -0.000013   0.000034  -0.000008  -0.000040  -0.000007
     6  Si   0.001261   0.000008   0.010850  -0.000314   0.000720  -0.000622
     7  Si  -0.000210   0.000538  -0.000371   0.055930   0.047609   0.044876
     8  Si   0.057675   0.060434   0.073260   0.000105   0.021879   0.000121
     9  Si  -0.000207  -0.000707  -0.000012  -0.000188  -0.000038  -0.000011
    10  O   -0.000000   0.000000   0.000000  -0.000000   0.000000  -0.000000
    11  O    0.000000   0.000001  -0.000000  -0.000000  -0.000000   0.000000
    12  O   -0.000000  -0.000023   0.000002  -0.000007   0.000003   0.000000
    13  O    0.217419  -0.006310  -0.004544   0.000000   0.000786   0.000001
    14  O   -0.009454   0.000520   0.208161  -0.000003   0.015030   0.000030
    15  O    0.007220   0.226486   0.000321  -0.000001  -0.001219   0.000001
    16  O   -0.000270   0.000000   0.000310   0.000000  -0.000004   0.000100
    17  O    0.000611  -0.000023   0.017653   0.000003  -0.000641  -0.000454
    18  O    0.015390   0.000006  -0.000832   0.000000  -0.000002  -0.000011
    19  O   -0.000032   0.000000  -0.000192   0.004303  -0.008445   0.222031
    20  O    0.000000  -0.000000   0.000226   0.228679   0.008173  -0.001559
    21  O   -0.000009   0.000054  -0.004666  -0.001427   0.208817  -0.007560
    22  H    0.000000  -0.000000  -0.000000   0.000000   0.000000   0.000000
    23  H    0.000000  -0.000000   0.000000   0.000000   0.000000  -0.000000
    24  H    0.000000  -0.000000   0.000000  -0.000000  -0.000000  -0.000000
    25  H    0.301829  -0.000026   0.000014   0.000000   0.000001   0.000000
    26  H   -0.000026   0.369931  -0.000033   0.000000   0.000020  -0.000000
    27  H    0.000014  -0.000033   0.284899  -0.000000  -0.001031   0.000003
    28  H    0.000000   0.000000  -0.000000   0.349773  -0.000019  -0.000010
    29  H    0.000001   0.000020  -0.001031  -0.000019   0.285775   0.000170
    30  H    0.000000  -0.000000   0.000003  -0.000010   0.000170   0.335157
    31  H   -0.000183   0.000000   0.000014   0.000000   0.000000  -0.000000
    32  H   -0.000001  -0.000000  -0.000000   0.000000  -0.000000  -0.000000
    33  H    0.000005   0.000000  -0.002409  -0.000002   0.000127  -0.001052
              31         32         33
     1  Zr   0.002492   0.003869  -0.019633
     2  O    0.000218  -0.000030   0.000880
     3  O   -0.000022   0.000037  -0.010762
     4  O   -0.018700   0.012258  -0.009275
     5  O   -0.000020   0.000018  -0.000061
     6  Si   0.064130   0.016005   0.055997
     7  Si   0.000110  -0.000655   0.022140
     8  Si  -0.002811   0.000221   0.000290
     9  Si  -0.000070  -0.000032   0.000204
    10  O    0.000000  -0.000000  -0.000000
    11  O   -0.000000   0.000000  -0.000000
    12  O    0.000000  -0.000000   0.000001
    13  O    0.002277  -0.000007   0.000242
    14  O    0.000077  -0.000006   0.002170
    15  O   -0.000020   0.000000  -0.000054
    16  O    0.004764   0.237080   0.000518
    17  O   -0.001290  -0.003244   0.230454
    18  O    0.215028   0.003943   0.002121
    19  O    0.000002   0.000093   0.012873
    20  O   -0.000000   0.000000  -0.000004
    21  O   -0.000000   0.000001   0.001336
    22  H   -0.000000   0.000000  -0.000000
    23  H    0.000000  -0.000000  -0.000000
    24  H    0.000000  -0.000000   0.000000
    25  H   -0.000183  -0.000001   0.000005
    26  H    0.000000  -0.000000   0.000000
    27  H    0.000014  -0.000000  -0.002409
    28  H    0.000000   0.000000  -0.000002
    29  H    0.000000  -0.000000   0.000127
    30  H   -0.000000  -0.000000  -0.001052
    31  H    0.328263  -0.000011  -0.000036
    32  H   -0.000011   0.348734   0.000144
    33  H   -0.000036   0.000144   0.270837
 Mulliken charges:
               1
     1  Zr   0.074713
     2  O   -0.676915
     3  O   -0.459119
     4  O   -0.651203
     5  O   -0.499424
     6  Si   2.231297
     7  Si   1.789500
     8  Si   2.081341
     9  Si   1.797501
    10  O   -0.869697
    11  O   -0.778695
    12  O   -0.830213
    13  O   -0.819845
    14  O   -0.906651
    15  O   -0.872180
    16  O   -0.733005
    17  O   -0.966947
    18  O   -1.092667
    19  O   -0.989254
    20  O   -0.804954
    21  O   -0.836421
    22  H    0.397627
    23  H    0.372993
    24  H    0.365385
    25  H    0.415275
    26  H    0.366947
    27  H    0.430606
    28  H    0.376413
    29  H    0.446858
    30  H    0.410414
    31  H    0.405788
    32  H    0.381583
    33  H    0.442950
 Sum of Mulliken charges =  -0.00000
 Mulliken charges with hydrogens summed into heavy atoms:
               1
     1  Zr   0.074713
     2  O   -0.676915
     3  O   -0.459119
     4  O   -0.651203
     5  O   -0.499424
     6  Si   2.231297
     7  Si   1.789500
     8  Si   2.081341
     9  Si   1.797501
    10  O   -0.496704
    11  O   -0.413310
    12  O   -0.432586
    13  O   -0.404570
    14  O   -0.476045
    15  O   -0.505233
    16  O   -0.351422
    17  O   -0.523997
    18  O   -0.686879
    19  O   -0.578840
    20  O   -0.428541
    21  O   -0.389562
 Electronic spatial extent (au):  <R**2>=           9555.0015
 Charge=             -0.0000 electrons
 Dipole moment (field-independent basis, Debye):
    X=              2.8542    Y=             -1.2078    Z=             -3.3175  Tot=              4.5399
 Quadrupole moment (field-independent basis, Debye-Ang):
   XX=           -164.7869   YY=           -151.5370   ZZ=           -160.6113
   XY=             -5.9162   XZ=             13.5297   YZ=              4.1426
 Traceless Quadrupole moment (field-independent basis, Debye-Ang):
   XX=             -5.8085   YY=              7.4414   ZZ=             -1.6329
   XY=             -5.9162   XZ=             13.5297   YZ=              4.1426
 Octapole moment (field-independent basis, Debye-Ang**2):
  XXX=             74.7683  YYY=            -10.2194  ZZZ=            -57.1152  XYY=             -7.4539
  XXY=             24.6466  XXZ=            -21.6595  XZZ=             65.1503  YZZ=            -18.8995
  YYZ=             -3.4030  XYZ=              4.9622
 Hexadecapole moment (field-independent basis, Debye-Ang**3):
 XXXX=          -5918.2514 YYYY=          -2765.1693 ZZZZ=          -2293.6534 XXXY=             18.3190
 XXXZ=            -29.2565 YYYX=            -41.9232 YYYZ=            173.9711 ZZZX=             96.5444
 ZZZY=            -66.9574 XXYY=          -1419.4986 XXZZ=          -1400.9441 YYZZ=           -920.9897
 XXYZ=             37.6342 YYXZ=            190.3276 ZZXY=            -31.9933
 N-N= 2.854498832229D+03 E-N=-1.142160352465D+04  KE= 2.373153302052D+03
 1\1\GINC-GRA381\FOpt\RB3LYP\Gen\H12O16Si4Zr1\SARASHS\02-Aug-2020\0\\#n
  B3LYP/Gen Pseudo=cards EmpiricalDispersion=GD3 Opt=modredundant\\Titl
 e\\0,1\Zr,0.6506852998,-0.123385288,-0.2243323194\O,-0.1276726934,-0.8
 776439492,1.3905869768\O,0.1305894722,1.7584861643,-0.2655965551\O,-0.
 3922961441,-0.9836884555,-1.6667131948\O,2.5825977028,-0.4763092348,-0
 .4077368268\Si,-1.9826247399,-1.3343960785,-1.8748898369\Si,-1.0533382
 232,2.8866515848,-0.1687693095\Si,-1.5873281849,-1.02017191,2.16861238
 32\Si,4.0391127759,-0.0285222195,0.1927417361\O,4.8987192328,0.9977536
 471,-0.7702267272\O,5.0064534423,-1.3546976455,0.4101367106\O,3.657110
 5604,0.7818635035,1.5839241706\O,-2.2315234511,-2.4946725841,1.8488544
 45\O,-2.5744265722,0.2166347316,1.6506364306\O,-1.4217605773,-0.777744
 7521,3.7820292739\O,-2.2998971986,-1.6101381206,-3.4697114793\O,-2.905
 3468642,-0.157082121,-1.1768826892\O,-2.4246760062,-2.6925825817,-1.02
 25331387\O,-2.0965922706,2.4559772695,-1.4174657167\O,-0.5504011,4.420
 6942051,-0.4891652158\O,-1.784135768,2.8910527507,1.2954066503\H,4.335
 9163554,1.3428197021,1.9750736833\H,5.5320914,0.588535457,-1.370543811
 6\H,4.5832942037,-2.1615151626,0.723675818\H,-2.3245646895,-2.73460926
 4,0.9094977123\H,-0.7264963566,-1.2681952971,4.2324660002\H,-3.0059810
 346,0.0383654843,0.7939629198\H,-0.3910387818,4.9814929008,0.278588553
 3\H,-2.0913193923,2.0218971568,1.6270581793\H,-2.7227923618,3.14108816
 02,-1.6829273642\H,-2.5178307245,-3.5053304018,-1.5320285354\H,-1.6174
 976796,-1.3459290823,-4.0966310944\H,-2.6876696309,0.7757114304,-1.400
 7978283\\Version=ES64L-G16RevB.01\State=1-A\HF=-2416.9457157\RMSD=2.67
 2e-09\RMSF=6.340e-05\Dipole=1.2508023,-0.4608529,-1.1888843\Quadrupole
 =-5.1485742,5.2225907,-0.0740165,-4.7936007,9.790291,3.1079843\PG=C01 
 [X(H12O16Si4Zr1)]\\@


 "THE ACADEMIC HIERARCHY"


 THE PRESIDENT:
   LEAPS TALL BUILDINGS IN A SINGLE BOUND,
     IS MORE POWERFUL THAN A LOCOMOTIVE,
       IS FASTER THAN A SPEEDING BULLET,
         WALKS ON WATER,
           GIVES POLICY TO GOD.

 THE VICE PRESIDENT FOR ACADEMIC AFFAIRS:
   LEAPS SHORT BUILDINGS IN A SINGLE BOUND,
     IS MORE POWERFUL THAN A SWITCH ENGINE,
       IS JUST AS FAST AS A SPEEDING BULLET,
         WALKS ON WATER IF SEA IS CALM,
           TALKS WITH GOD.

 PROFESSOR:
   LEAPS SHORT BUILDINGS WITH A RUNNING START AND FAVORABLE WINDS,
     IS ALMOST AS POWERFUL AS A SWITCH ENGINE,
       CAN FIRE A SPEEDING BULLET,
         WALKS ON WATER IN AN INDOOR SWIMMING POOL,
          TALKS WITH GOD IF SPECIAL REQUEST IS APPROVED.

 ASSOCIATE PROFESSOR:
   BARELY CLEARS A QUONSET HUT,
     LOSES TUG OF WAR WITH LOCOMOTIVE,
       MISFIRES FREQUENTLY,
         SWIMS WELL,
           IS OCCASIONALLY ADDRESSED BY GOD.

 ASSISTANT PROFESSOR:
   MAKES HIGH MARKS ON WALLS WHEN TRYING TO LEAP TALL BUILDINGS,
     IS RUN OVER BY LOCOMOTIVES,
       CAN SOMETIMES HANDLE A GUN WITHOUT INFLICTING SELF INJURY,
         DOG PADDLES,
           TALKS TO ANIMALS.

 GRADUATE STUDENT:
   RUNS INTO BUILDINGS,
     RECOGNIZES LOCOMOTIVES TWO OUT OF THREE TIMES,
       IS NOT ISSUED AMMUNITION,
         CAN STAY AFLOAT WITH A LIFE JACKET,
           TALKS TO WALLS.

 UNDERGRADUATE AND WORK STUDY STUDENT:
   FALLS OVER DOORSTEP WHEN TRYING TO ENTER BUILDINGS,
     SAYS, "LOOK AT THE CHOO-CHOO,"
       WETS HIMSELF WITH A WATER PISTOL,
        PLAYS IN MUD PUDDLES,
          MUMBLES TO HIMSELF.

 DEPARTMENT SECRETARY:
   LIFTS TALL BUILDINGS AND WALKS UNDER THEM,
     KICKS LOCOMOTIVES OFF THE TRACKS,
       CATCHES SPEEDING BULLETS IN HER TEETH AND EATS THEM,
         FREEZES WATER WITH A SINGLE GLANCE,
           IS GOD.
 Job cpu time:       1 days 11 hours 52 minutes  6.5 seconds.
 Elapsed time:       0 days  2 hours 42 minutes 15.5 seconds.
 File lengths (MBytes):  RWF=    167 Int=      0 D2E=      0 Chk=     21 Scr=      1
 Normal termination of Gaussian 16 at Sun Aug  2 09:53:48 2020.
