 Entering Gaussian System, Link 0=g16
 Initial command:
 /opt/software/gaussian/g16.b01/l1.exe "/localscratch/sarashs.36760145.0/Gau-27314.inp" -scrdir="/localscratch/sarashs.36760145.0/"
 Entering Link 1 = /opt/software/gaussian/g16.b01/l1.exe PID=     27315.
  
 Copyright (c) 1988-2017, Gaussian, Inc.  All Rights Reserved.
  
 This is part of the Gaussian(R) 16 program.  It is based on
 the Gaussian(R) 09 system (copyright 2009, Gaussian, Inc.),
 the Gaussian(R) 03 system (copyright 2003, Gaussian, Inc.),
 the Gaussian(R) 98 system (copyright 1998, Gaussian, Inc.),
 the Gaussian(R) 94 system (copyright 1995, Gaussian, Inc.),
 the Gaussian 92(TM) system (copyright 1992, Gaussian, Inc.),
 the Gaussian 90(TM) system (copyright 1990, Gaussian, Inc.),
 the Gaussian 88(TM) system (copyright 1988, Gaussian, Inc.),
 the Gaussian 86(TM) system (copyright 1986, Carnegie Mellon
 University), and the Gaussian 82(TM) system (copyright 1983,
 Carnegie Mellon University). Gaussian is a federally registered
 trademark of Gaussian, Inc.
  
 This software contains proprietary and confidential information,
 including trade secrets, belonging to Gaussian, Inc.
  
 This software is provided under written license and may be
 used, copied, transmitted, or stored only in accord with that
 written license.
  
 The following legend is applicable only to US Government
 contracts under FAR:
  
                    RESTRICTED RIGHTS LEGEND
  
 Use, reproduction and disclosure by the US Government is
 subject to restrictions as set forth in subparagraphs (a)
 and (c) of the Commercial Computer Software - Restricted
 Rights clause in FAR 52.227-19.
  
 Gaussian, Inc.
 340 Quinnipiac St., Bldg. 40, Wallingford CT 06492
  
  
 ---------------------------------------------------------------
 Warning -- This program may not be used in any manner that
 competes with the business of Gaussian, Inc. or will provide
 assistance to any competitor of Gaussian, Inc.  The licensee
 of this program is prohibited from giving any competitor of
 Gaussian, Inc. access to this program.  By using this program,
 the user acknowledges that Gaussian, Inc. is engaged in the
 business of creating and licensing software in the field of
 computational chemistry and represents and warrants to the
 licensee that it is not a competitor of Gaussian, Inc. and that
 it will not use this program in any manner prohibited above.
 ---------------------------------------------------------------
  

 Cite this work as:
 Gaussian 16, Revision B.01,
 M. J. Frisch, G. W. Trucks, H. B. Schlegel, G. E. Scuseria, 
 M. A. Robb, J. R. Cheeseman, G. Scalmani, V. Barone, 
 G. A. Petersson, H. Nakatsuji, X. Li, M. Caricato, A. V. Marenich, 
 J. Bloino, B. G. Janesko, R. Gomperts, B. Mennucci, H. P. Hratchian, 
 J. V. Ortiz, A. F. Izmaylov, J. L. Sonnenberg, D. Williams-Young, 
 F. Ding, F. Lipparini, F. Egidi, J. Goings, B. Peng, A. Petrone, 
 T. Henderson, D. Ranasinghe, V. G. Zakrzewski, J. Gao, N. Rega, 
 G. Zheng, W. Liang, M. Hada, M. Ehara, K. Toyota, R. Fukuda, 
 J. Hasegawa, M. Ishida, T. Nakajima, Y. Honda, O. Kitao, H. Nakai, 
 T. Vreven, K. Throssell, J. A. Montgomery, Jr., J. E. Peralta, 
 F. Ogliaro, M. J. Bearpark, J. J. Heyd, E. N. Brothers, K. N. Kudin, 
 V. N. Staroverov, T. A. Keith, R. Kobayashi, J. Normand, 
 K. Raghavachari, A. P. Rendell, J. C. Burant, S. S. Iyengar, 
 J. Tomasi, M. Cossi, J. M. Millam, M. Klene, C. Adamo, R. Cammi, 
 J. W. Ochterski, R. L. Martin, K. Morokuma, O. Farkas, 
 J. B. Foresman, and D. J. Fox, Gaussian, Inc., Wallingford CT, 2016.
 
 ******************************************
 Gaussian 16:  ES64L-G16RevB.01 20-Dec-2017
                 2-Aug-2020 
 ******************************************
 %NProcShared=16
 Will use up to   16 processors via shared memory.
 ------------------------------------------------------------------
 #n B3LYP/Gen Pseudo=cards EmpiricalDispersion=GD3 Opt=modredundant
 ------------------------------------------------------------------
 1/18=120,19=15,26=3,38=1/1,3;
 2/9=110,12=2,17=6,18=5,40=1/2;
 3/5=7,11=2,16=1,17=8,25=1,30=1,71=1,74=-5,124=31/1,2,3;
 4//1;
 5/5=2,38=5/2;
 6/7=2,8=2,9=2,10=2,28=1/1;
 7//1,2,3,16;
 1/18=20,19=15,26=3/3(2);
 2/9=110/2;
 99//99;
 2/9=110/2;
 3/5=7,6=1,11=2,16=1,17=8,25=1,30=1,71=1,74=-5,82=7,124=31/1,2,3;
 4/5=5,16=3,69=1/1;
 5/5=2,38=5/2;
 7//1,2,3,16;
 1/18=20,19=15,26=3/3(-5);
 2/9=110/2;
 6/7=2,8=2,9=2,10=2,19=2,28=1/1;
 99/9=1/99;
 -----
 Title
 -----
 Symbolic Z-matrix:
 Charge =  0 Multiplicity = 1
 Zr                    0.64646  -0.19013  -0.1519 
 O                    -0.19212  -0.93131   1.43939 
 O                     0.17263   1.70395  -0.1904 
 O                    -0.37772  -1.01692  -1.62844 
 O                     2.5678   -0.57883  -0.26812 
 Si                   -1.96924  -1.33216  -1.87829 
 Si                   -0.98958   2.85681  -0.11809 
 Si                   -1.67476  -1.05152   2.17706 
 Si                    3.65246   0.4498    0.39782 
 O                     4.23379   1.58643  -0.64791 
 O                     4.98489  -0.38355   0.92399 
 O                     2.81799   1.22574   1.59296 
 O                    -2.33574  -2.51245   1.83004 
 O                    -2.6209    0.20928   1.64149 
 O                    -1.552    -0.82432   3.7965 
 O                    -2.25427  -1.59164  -3.48183 
 O                    -2.88371  -0.13912  -1.19557 
 O                    -2.46027  -2.68598  -1.04579 
 O                    -2.00825   2.45605  -1.3967 
 O                    -0.44623   4.38142  -0.41555 
 O                    -1.75835   2.86715   1.32642 
 H                     3.21843   2.02243   1.95841 
 H                     5.06236   1.37     -1.09025 
 H                     4.83225  -1.22009   1.3769 
 H                    -2.40738  -2.74575   0.88712 
 H                    -0.93391  -1.38513   4.27638 
 H                    -3.02928   0.04705   0.77024 
 H                    -0.29029   4.93346   0.35924 
 H                    -2.09489   2.00321   1.64266 
 H                    -2.6086    3.15807  -1.6773 
 H                    -2.56602  -3.49143  -1.56436 
 H                    -1.55278  -1.33714  -4.09141 
 H                    -2.64046   0.78995  -1.40829 
 
 The following ModRedundant input section has been read:
 A       1       5       9 F                                                   
 

 GradGradGradGradGradGradGradGradGradGradGradGradGradGradGradGradGradGrad
 Berny optimization.
 Initialization pass.
                           ----------------------------
                           !    Initial Parameters    !
                           ! (Angstroms and Degrees)  !
 --------------------------                            --------------------------
 ! Name  Definition              Value          Derivative Info.                !
 --------------------------------------------------------------------------------
 ! R1    R(1,2)                  1.9454         estimate D2E/DX2                !
 ! R2    R(1,3)                  1.9528         estimate D2E/DX2                !
 ! R3    R(1,4)                  1.9781         estimate D2E/DX2                !
 ! R4    R(1,5)                  1.9637         estimate D2E/DX2                !
 ! R5    R(1,9)                  3.1221         estimate D2E/DX2                !
 ! R6    R(2,8)                  1.6604         estimate D2E/DX2                !
 ! R7    R(3,7)                  1.6386         estimate D2E/DX2                !
 ! R8    R(4,6)                  1.6416         estimate D2E/DX2                !
 ! R9    R(5,9)                  1.6365         estimate D2E/DX2                !
 ! R10   R(6,16)                 1.6492         estimate D2E/DX2                !
 ! R11   R(6,17)                 1.651          estimate D2E/DX2                !
 ! R12   R(6,18)                 1.6634         estimate D2E/DX2                !
 ! R13   R(7,19)                 1.6832         estimate D2E/DX2                !
 ! R14   R(7,20)                 1.6456         estimate D2E/DX2                !
 ! R15   R(7,21)                 1.6364         estimate D2E/DX2                !
 ! R16   R(8,13)                 1.6406         estimate D2E/DX2                !
 ! R17   R(8,14)                 1.6648         estimate D2E/DX2                !
 ! R18   R(8,15)                 1.6399         estimate D2E/DX2                !
 ! R19   R(9,10)                 1.6503         estimate D2E/DX2                !
 ! R20   R(9,11)                 1.6573         estimate D2E/DX2                !
 ! R21   R(9,12)                 1.6513         estimate D2E/DX2                !
 ! R22   R(10,23)                0.9639         estimate D2E/DX2                !
 ! R23   R(11,24)                0.9634         estimate D2E/DX2                !
 ! R24   R(12,22)                0.9636         estimate D2E/DX2                !
 ! R25   R(13,25)                0.974          estimate D2E/DX2                !
 ! R26   R(14,27)                0.9758         estimate D2E/DX2                !
 ! R27   R(15,26)                0.9627         estimate D2E/DX2                !
 ! R28   R(16,32)                0.9636         estimate D2E/DX2                !
 ! R29   R(17,33)                0.9837         estimate D2E/DX2                !
 ! R30   R(18,31)                0.9638         estimate D2E/DX2                !
 ! R31   R(19,30)                0.9654         estimate D2E/DX2                !
 ! R32   R(20,28)                0.964          estimate D2E/DX2                !
 ! R33   R(21,29)                0.9796         estimate D2E/DX2                !
 ! A1    A(2,1,3)              106.3234         estimate D2E/DX2                !
 ! A2    A(2,1,4)              103.1879         estimate D2E/DX2                !
 ! A3    A(2,1,5)              113.2501         estimate D2E/DX2                !
 ! A4    A(2,1,9)              110.4312         estimate D2E/DX2                !
 ! A5    A(3,1,4)              105.3705         estimate D2E/DX2                !
 ! A6    A(3,1,5)              115.3549         estimate D2E/DX2                !
 ! A7    A(3,1,9)               92.1941         estimate D2E/DX2                !
 ! A8    A(4,1,5)              112.3142         estimate D2E/DX2                !
 ! A9    A(4,1,9)              135.6935         estimate D2E/DX2                !
 ! A10   A(1,2,8)              140.8859         estimate D2E/DX2                !
 ! A11   A(1,3,7)              148.6074         estimate D2E/DX2                !
 ! A12   A(1,4,6)              134.0964         estimate D2E/DX2                !
 ! A13   A(1,5,9)              120.0            Frozen                          !
 ! A14   A(4,6,16)             110.2282         estimate D2E/DX2                !
 ! A15   A(4,6,17)             109.5909         estimate D2E/DX2                !
 ! A16   A(4,6,18)             111.4884         estimate D2E/DX2                !
 ! A17   A(16,6,17)            114.8371         estimate D2E/DX2                !
 ! A18   A(16,6,18)            107.9112         estimate D2E/DX2                !
 ! A19   A(17,6,18)            102.5719         estimate D2E/DX2                !
 ! A20   A(3,7,19)             103.1918         estimate D2E/DX2                !
 ! A21   A(3,7,20)             114.1832         estimate D2E/DX2                !
 ! A22   A(3,7,21)             112.1241         estimate D2E/DX2                !
 ! A23   A(19,7,20)            106.4451         estimate D2E/DX2                !
 ! A24   A(19,7,21)            112.8144         estimate D2E/DX2                !
 ! A25   A(20,7,21)            107.9884         estimate D2E/DX2                !
 ! A26   A(2,8,13)             109.2843         estimate D2E/DX2                !
 ! A27   A(2,8,14)             108.0427         estimate D2E/DX2                !
 ! A28   A(2,8,15)             111.2146         estimate D2E/DX2                !
 ! A29   A(13,8,14)            112.1704         estimate D2E/DX2                !
 ! A30   A(13,8,15)            111.2482         estimate D2E/DX2                !
 ! A31   A(14,8,15)            104.7916         estimate D2E/DX2                !
 ! A32   A(1,9,10)             111.639          estimate D2E/DX2                !
 ! A33   A(1,9,11)             136.6271         estimate D2E/DX2                !
 ! A34   A(1,9,12)              74.7638         estimate D2E/DX2                !
 ! A35   A(5,9,10)             114.1133         estimate D2E/DX2                !
 ! A36   A(5,9,11)             110.2432         estimate D2E/DX2                !
 ! A37   A(5,9,12)             104.7701         estimate D2E/DX2                !
 ! A38   A(10,9,11)            105.3252         estimate D2E/DX2                !
 ! A39   A(10,9,12)            108.2397         estimate D2E/DX2                !
 ! A40   A(11,9,12)            114.3794         estimate D2E/DX2                !
 ! A41   A(9,10,23)            116.0379         estimate D2E/DX2                !
 ! A42   A(9,11,24)            117.2885         estimate D2E/DX2                !
 ! A43   A(9,12,22)            116.9341         estimate D2E/DX2                !
 ! A44   A(8,13,25)            116.5961         estimate D2E/DX2                !
 ! A45   A(8,14,27)            113.5263         estimate D2E/DX2                !
 ! A46   A(8,15,26)            117.3612         estimate D2E/DX2                !
 ! A47   A(6,16,32)            116.5984         estimate D2E/DX2                !
 ! A48   A(6,17,33)            117.1373         estimate D2E/DX2                !
 ! A49   A(6,18,31)            116.3135         estimate D2E/DX2                !
 ! A50   A(7,19,30)            115.0881         estimate D2E/DX2                !
 ! A51   A(7,20,28)            116.018          estimate D2E/DX2                !
 ! A52   A(7,21,29)            116.1544         estimate D2E/DX2                !
 ! D1    D(3,1,2,8)             54.013          estimate D2E/DX2                !
 ! D2    D(4,1,2,8)            -56.615          estimate D2E/DX2                !
 ! D3    D(5,1,2,8)           -178.2908         estimate D2E/DX2                !
 ! D4    D(9,1,2,8)            152.7366         estimate D2E/DX2                !
 ! D5    D(2,1,3,7)            -51.1331         estimate D2E/DX2                !
 ! D6    D(4,1,3,7)             57.9568         estimate D2E/DX2                !
 ! D7    D(5,1,3,7)           -177.5709         estimate D2E/DX2                !
 ! D8    D(9,1,3,7)           -163.1717         estimate D2E/DX2                !
 ! D9    D(2,1,4,6)             41.2968         estimate D2E/DX2                !
 ! D10   D(3,1,4,6)            -70.0365         estimate D2E/DX2                !
 ! D11   D(5,1,4,6)            163.602          estimate D2E/DX2                !
 ! D12   D(9,1,4,6)           -179.8203         estimate D2E/DX2                !
 ! D13   D(2,1,9,10)          -157.3427         estimate D2E/DX2                !
 ! D14   D(2,1,9,11)            56.1511         estimate D2E/DX2                !
 ! D15   D(2,1,9,12)           -53.4009         estimate D2E/DX2                !
 ! D16   D(3,1,9,10)           -49.017          estimate D2E/DX2                !
 ! D17   D(3,1,9,11)           164.4768         estimate D2E/DX2                !
 ! D18   D(3,1,9,12)            54.9248         estimate D2E/DX2                !
 ! D19   D(4,1,9,10)            65.7545         estimate D2E/DX2                !
 ! D20   D(4,1,9,11)           -80.7516         estimate D2E/DX2                !
 ! D21   D(4,1,9,12)           169.6964         estimate D2E/DX2                !
 ! D22   D(1,2,8,13)            98.0767         estimate D2E/DX2                !
 ! D23   D(1,2,8,14)           -24.2296         estimate D2E/DX2                !
 ! D24   D(1,2,8,15)          -138.7156         estimate D2E/DX2                !
 ! D25   D(1,3,7,19)           -58.6416         estimate D2E/DX2                !
 ! D26   D(1,3,7,20)          -173.7291         estimate D2E/DX2                !
 ! D27   D(1,3,7,21)            63.0404         estimate D2E/DX2                !
 ! D28   D(1,4,6,16)           161.8736         estimate D2E/DX2                !
 ! D29   D(1,4,6,17)            34.551          estimate D2E/DX2                !
 ! D30   D(1,4,6,18)           -78.3045         estimate D2E/DX2                !
 ! D31   D(4,6,16,32)          -13.7229         estimate D2E/DX2                !
 ! D32   D(17,6,16,32)         110.6319         estimate D2E/DX2                !
 ! D33   D(18,6,16,32)        -135.686          estimate D2E/DX2                !
 ! D34   D(4,6,17,33)           49.7998         estimate D2E/DX2                !
 ! D35   D(16,6,17,33)         -74.8906         estimate D2E/DX2                !
 ! D36   D(18,6,17,33)         168.3378         estimate D2E/DX2                !
 ! D37   D(4,6,18,31)         -102.9126         estimate D2E/DX2                !
 ! D38   D(16,6,18,31)          18.2691         estimate D2E/DX2                !
 ! D39   D(17,6,18,31)         139.8941         estimate D2E/DX2                !
 ! D40   D(3,7,19,30)         -162.9704         estimate D2E/DX2                !
 ! D41   D(20,7,19,30)         -42.4468         estimate D2E/DX2                !
 ! D42   D(21,7,19,30)          75.8144         estimate D2E/DX2                !
 ! D43   D(3,7,20,28)         -100.1112         estimate D2E/DX2                !
 ! D44   D(19,7,20,28)         146.7232         estimate D2E/DX2                !
 ! D45   D(21,7,20,28)          25.3303         estimate D2E/DX2                !
 ! D46   D(3,7,21,29)          -50.5298         estimate D2E/DX2                !
 ! D47   D(19,7,21,29)          65.4642         estimate D2E/DX2                !
 ! D48   D(20,7,21,29)        -177.1813         estimate D2E/DX2                !
 ! D49   D(2,8,13,25)          -54.0971         estimate D2E/DX2                !
 ! D50   D(14,8,13,25)          65.6987         estimate D2E/DX2                !
 ! D51   D(15,8,13,25)        -177.2849         estimate D2E/DX2                !
 ! D52   D(2,8,14,27)           81.1206         estimate D2E/DX2                !
 ! D53   D(13,8,14,27)         -39.3971         estimate D2E/DX2                !
 ! D54   D(15,8,14,27)        -160.2179         estimate D2E/DX2                !
 ! D55   D(2,8,15,26)          -54.9076         estimate D2E/DX2                !
 ! D56   D(13,8,15,26)          67.168          estimate D2E/DX2                !
 ! D57   D(14,8,15,26)        -171.403          estimate D2E/DX2                !
 ! D58   D(1,9,10,23)         -130.1895         estimate D2E/DX2                !
 ! D59   D(5,9,10,23)          -94.3735         estimate D2E/DX2                !
 ! D60   D(11,9,10,23)          26.6723         estimate D2E/DX2                !
 ! D61   D(12,9,10,23)         149.4206         estimate D2E/DX2                !
 ! D62   D(1,9,11,24)          -17.8312         estimate D2E/DX2                !
 ! D63   D(5,9,11,24)          -42.1569         estimate D2E/DX2                !
 ! D64   D(10,9,11,24)        -165.6994         estimate D2E/DX2                !
 ! D65   D(12,9,11,24)          75.5828         estimate D2E/DX2                !
 ! D66   D(1,9,12,22)         -151.4166         estimate D2E/DX2                !
 ! D67   D(5,9,12,22)         -165.3209         estimate D2E/DX2                !
 ! D68   D(10,9,12,22)         -43.1977         estimate D2E/DX2                !
 ! D69   D(11,9,12,22)          73.8589         estimate D2E/DX2                !
 --------------------------------------------------------------------------------
 Trust Radius=3.00D-01 FncErr=1.00D-07 GrdErr=1.00D-06 EigMax=2.50D+02 EigMin=1.00D-04
 Number of steps in this run=    164 maximum allowed number of steps=    198.
 GradGradGradGradGradGradGradGradGradGradGradGradGradGradGradGradGradGrad

                          Input orientation:                          
 ---------------------------------------------------------------------
 Center     Atomic      Atomic             Coordinates (Angstroms)
 Number     Number       Type             X           Y           Z
 ---------------------------------------------------------------------
      1         40           0        0.646460   -0.190130   -0.151900
      2          8           0       -0.192120   -0.931310    1.439390
      3          8           0        0.172630    1.703950   -0.190400
      4          8           0       -0.377720   -1.016920   -1.628440
      5          8           0        2.567800   -0.578830   -0.268120
      6         14           0       -1.969240   -1.332160   -1.878290
      7         14           0       -0.989580    2.856810   -0.118090
      8         14           0       -1.674760   -1.051520    2.177060
      9         14           0        3.652460    0.449800    0.397820
     10          8           0        4.233790    1.586430   -0.647910
     11          8           0        4.984890   -0.383550    0.923990
     12          8           0        2.817990    1.225740    1.592960
     13          8           0       -2.335740   -2.512450    1.830040
     14          8           0       -2.620900    0.209280    1.641490
     15          8           0       -1.552000   -0.824320    3.796500
     16          8           0       -2.254270   -1.591640   -3.481830
     17          8           0       -2.883710   -0.139120   -1.195570
     18          8           0       -2.460270   -2.685980   -1.045790
     19          8           0       -2.008250    2.456050   -1.396700
     20          8           0       -0.446230    4.381420   -0.415550
     21          8           0       -1.758350    2.867150    1.326420
     22          1           0        3.218430    2.022430    1.958410
     23          1           0        5.062360    1.370000   -1.090250
     24          1           0        4.832250   -1.220090    1.376900
     25          1           0       -2.407380   -2.745750    0.887120
     26          1           0       -0.933910   -1.385130    4.276380
     27          1           0       -3.029280    0.047050    0.770240
     28          1           0       -0.290290    4.933460    0.359240
     29          1           0       -2.094890    2.003210    1.642660
     30          1           0       -2.608600    3.158070   -1.677300
     31          1           0       -2.566020   -3.491430   -1.564360
     32          1           0       -1.552780   -1.337140   -4.091410
     33          1           0       -2.640460    0.789950   -1.408290
 ---------------------------------------------------------------------
                    Distance matrix (angstroms):
                    1          2          3          4          5
     1  Zr   0.000000
     2  O    1.945448   0.000000
     3  O    1.952828   3.119912   0.000000
     4  O    1.978054   3.074631   3.126336   0.000000
     5  O    1.963706   3.264505   3.309677   3.273909   0.000000
     6  Si   3.335647   3.784949   4.080998   1.641565   4.872872
     7  Si   3.458557   4.172714   1.638611   4.202537   4.947836
     8  Si   3.399134   1.660370   4.075577   4.020614   4.919518
     9  Si   3.122137   4.215819   3.745412   4.743348   1.636473
    10  O    4.033749   5.503137   4.088538   5.385619   2.758281
    11  O    4.474028   5.231358   5.362590   5.972742   2.702144
    12  O    3.124863   3.706374   3.225986   5.061571   2.604359
    13  O    4.267877   2.692159   5.305858   4.246356   5.673259
    14  O    3.748522   2.690866   3.659736   4.150646   5.584831
    15  O    4.563473   2.723360   5.026119   5.553918   5.792595
    16  O    4.633238   5.376514   5.252073   2.699407   5.882693
    17  O    3.681569   3.849056   3.707895   2.690334   5.547294
    18  O    4.084125   3.794666   5.189927   2.731713   5.506936
    19  O    3.949592   4.776604   2.603277   3.843677   5.605749
    20  O    4.707712   5.632981   2.757268   5.533342   5.806048
    21  O    4.161190   4.110248   2.717068   5.071818   5.756119
    22  H    3.995480   4.541565   3.741084   5.919074   3.485299
    23  H    4.776471   6.269343   4.983042   5.965024   3.270576
    24  H    4.573717   5.033050   5.720009   6.018067   2.871418
    25  H    4.115422   2.916260   5.255219   3.665572   5.548201
    26  H    4.851315   2.967274   5.542470   5.942375   5.793494
    27  H    3.797060   3.074805   3.731002   3.730478   5.726886
    28  H    5.233540   5.964217   3.308494   6.274196   6.240801
    29  H    3.942865   3.503321   2.931094   4.771787   5.662039
    30  H    4.912505   5.681211   3.472834   4.733894   6.537991
    31  H    4.818055   4.605663   6.031579   3.303931   6.043144
    32  H    4.655322   5.710153   5.238621   2.747640   5.672016
    33  H    3.652796   4.131148   3.198770   2.904004   5.504500
                    6          7          8          9         10
     6  Si   0.000000
     7  Si   4.648172   0.000000
     8  Si   4.075701   4.583910   0.000000
     9  Si   6.321358   5.254369   5.813685   0.000000
    10  O    6.964882   5.401682   7.060467   1.650280   0.000000
    11  O    7.557285   6.876057   6.809354   1.657316   2.629799
    12  O    6.442825   4.481704   5.070689   1.651297   2.675086
    13  O    3.908851   5.868246   1.640620   6.832622   8.130177
    14  O    3.897377   3.573058   1.664822   6.399970   7.356947
    15  O    5.712725   5.402874   1.639901   6.345141   7.683740
    16  O    1.649216   5.718645   5.714070   7.355856   7.760551
    17  O    1.650971   3.704631   3.697116   6.753313   7.344131
    18  O    1.663429   5.809137   3.698006   7.020156   7.951241
    19  O    3.818898   1.683194   5.018568   6.268092   6.346652
    20  O    6.091319   1.645645   6.143920   5.737462   5.456056
    21  O    5.286667   1.636375   4.010804   5.998562   6.437699
    22  H    7.272239   4.766067   5.782758   2.257651   2.830893
    23  H    7.574039   6.307272   7.869426   2.246984   0.963865
    24  H    7.541160   7.262907   6.558190   2.266944   3.512060
    25  H    3.136510   5.865943   2.251909   6.868232   8.076462
    26  H    6.241368   6.108070   2.251066   6.280524   7.732006
    27  H    3.168693   3.583889   2.240697   6.704219   7.558639
    28  H    6.861735   2.242616   6.406342   5.970760   5.717015
    29  H    4.851553   2.247350   3.129452   6.082330   6.743338
    30  H    4.539972   2.267845   5.783493   7.130338   7.095632
    31  H    2.262111   6.699031   4.554748   7.619248   8.535922
    32  H    2.251969   5.804626   6.276159   7.102173   7.340936
    33  H    2.274816   2.943116   4.144674   6.555805   6.961887
                   11         12         13         14         15
    11  O    0.000000
    12  O    2.780790   0.000000
    13  O    7.677549   6.371123   0.000000
    14  O    7.662525   5.533269   2.743115   0.000000
    15  O    7.153777   5.306142   2.707581   2.618195   0.000000
    16  O    8.560150   7.708369   5.391706   5.442990   7.352282
    17  O    8.152739   6.492159   3.884235   2.870429   5.211882
    18  O    8.038136   7.079872   2.883751   3.953455   5.266736
    19  O    7.896388   5.808986   5.933388   3.828043   6.159409
    20  O    7.348222   4.964631   7.492554   5.134915   6.787033
    21  O    7.496685   4.869102   5.433885   2.812034   4.446440
    22  H    3.158979   0.963650   7.171501   6.122559   5.851458
    23  H    2.671723   3.501089   8.850616   8.236635   8.511470
    24  H    0.963445   3.175848   7.297644   7.593586   6.838841
    25  H    7.760606   6.601169   0.973991   3.057265   3.589994
    26  H    6.875600   5.300390   3.036537   3.511513   0.962719
    27  H    8.027202   6.021357   2.855734   0.975792   3.478490
    28  H    7.511129   4.993061   7.860578   5.421604   6.823394
    29  H    7.505757   4.974266   4.525959   1.869458   3.595648
    30  H    8.773305   6.623925   6.673131   4.439581   6.851155
    31  H    8.536220   7.823549   3.540252   4.896503   6.072934
    32  H    8.294860   7.614726   6.087524   6.033112   7.904563
    33  H    8.059938   6.244365   4.635243   3.104629   5.557018
                   16         17         18         19         20
    16  O    0.000000
    17  O    2.780826   0.000000
    18  O    2.678490   2.586162   0.000000
    19  O    4.559834   2.746232   5.173774   0.000000
    20  O    6.953311   5.194711   7.375751   2.666385   0.000000
    21  O    6.576170   4.082221   6.079254   2.765291   2.655020
    22  H    8.521042   7.201111   7.965047   6.225992   4.962888
    23  H    8.247669   8.088792   8.546515   7.160094   6.314146
    24  H    8.600237   8.205007   7.822986   8.246169   7.902667
    25  H    4.521409   3.370313   1.934557   5.695073   7.505972
    26  H    7.872472   5.941086   5.687484   6.934891   7.450177
    27  H    4.622342   1.979964   3.330344   3.397265   5.183147
    28  H    7.822274   5.905449   8.046042   3.488878   0.964036
    29  H    6.261689   3.642439   5.417543   3.074131   3.551083
    30  H    5.093292   3.343533   5.879943   0.965396   2.786475
    31  H    2.717183   3.387464   0.963767   5.975930   8.233774
    32  H    0.963559   3.404778   3.452348   4.675169   6.887549
    33  H    3.181302   0.983662   3.499423   1.782053   4.324215
                   21         22         23         24         25
    21  O    0.000000
    22  H    5.087367   0.000000
    23  H    7.389441   3.622164   0.000000
    24  H    7.755262   3.668311   3.584459   0.000000
    25  H    5.667351   7.452043   8.754793   7.414834   0.000000
    26  H    5.240596   5.850331   8.505687   6.456224   3.938208
    27  H    3.142859   6.659411   8.407512   7.986071   2.863591
    28  H    2.712983   4.831413   6.591671   8.071073   7.983169
    29  H    0.979622   5.322728   7.687391   7.644970   4.818829
    30  H    3.135266   6.961490   7.898446   9.157656   6.439863
    31  H    7.031392   8.733408   9.058171   8.279154   2.567286
    32  H    6.860845   8.405443   7.752138   8.407421   5.244071
    33  H    3.545633   6.868789   7.731173   8.224290   4.221896
                   26         27         28         29         30
    26  H    0.000000
    27  H    4.328364   0.000000
    28  H    7.462092   5.616760   0.000000
    29  H    4.445807   2.336828   3.672889   0.000000
    30  H    7.674084   3.980687   3.560065   3.552426   0.000000
    31  H    6.419854   4.264482   8.936328   6.379499   6.650595
    32  H    8.390781   5.266087   7.792470   6.658181   5.210527
    33  H    6.321294   2.334325   5.080958   3.328354   2.383563
                   31         32         33
    31  H    0.000000
    32  H    3.471830   0.000000
    33  H    4.284870   3.592589   0.000000
 Stoichiometry    H12O16Si4Zr
 Framework group  C1[X(H12O16Si4Zr)]
 Deg. of freedom    93
 Full point group                 C1      NOp   1
 Largest Abelian subgroup         C1      NOp   1
 Largest concise Abelian subgroup C1      NOp   1
                         Standard orientation:                         
 ---------------------------------------------------------------------
 Center     Atomic      Atomic             Coordinates (Angstroms)
 Number     Number       Type             X           Y           Z
 ---------------------------------------------------------------------
      1         40           0        0.597667   -0.489906   -0.401823
      2          8           0       -0.222886   -1.251591    1.189182
      3          8           0        0.653066    1.441636   -0.119669
      4          8           0       -0.773681   -0.776676   -1.798198
      5          8           0        2.315739   -1.322131   -0.862012
      6         14           0       -2.408828   -0.637532   -1.839090
      7         14           0       -0.137533    2.820045    0.280317
      8         14           0       -1.588433   -1.117881    2.124186
      9         14           0        3.707001   -0.723194   -0.242570
     10          8           0        4.450980    0.389329   -1.208081
     11          8           0        4.815118   -1.938968   -0.040915
     12          8           0        3.255827    0.026989    1.157591
     13          8           0       -2.655324   -2.288199    1.695547
     14          8           0       -2.212671    0.410489    1.909606
     15          8           0       -1.224720   -1.201182    3.721074
     16          8           0       -2.934573   -0.547056   -3.399641
     17          8           0       -2.882060    0.615704   -0.874126
     18          8           0       -3.149625   -1.944351   -1.124640
     19          8           0       -1.365697    2.905330   -0.867499
     20          8           0        0.760585    4.187703    0.104127
     21          8           0       -0.704682    2.782095    1.814796
     22          1           0        3.895974    0.625892    1.557776
     23          1           0        5.133906    0.049105   -1.797058
     24          1           0        4.494470   -2.773970    0.317112
     25          1           0       -2.894596   -2.336002    0.752613
     26          1           0       -0.730931   -1.970551    4.022855
     27          1           0       -2.746403    0.502823    1.097958
     28          1           0        1.147525    4.546380    0.910969
     29          1           0       -1.224134    1.989705    2.063690
     30          1           0       -1.781555    3.771808   -0.958416
     31          1           0       -3.527937   -2.599894   -1.721291
     32          1           0       -2.264733   -0.378499   -4.071466
     33          1           0       -2.422334    1.476346   -0.998779
 ---------------------------------------------------------------------
 Rotational constants (GHZ):           0.2217891           0.1469554           0.1380928
 General basis read from cards:  (5D, 7F)
 ======================================================================================================
                                       Pseudopotential Parameters
 ======================================================================================================
  Center     Atomic      Valence      Angular      Power
  Number     Number     Electrons     Momentum     of R      Exponent        Coefficient   SO-Coeffient
 ======================================================================================================
    1         40           12
                                      G and up 
                                                     2        1.0000000        0.00000000    0.00000000
                                      S - G
                                                     2        8.6365280      150.24299400    0.00000000
                                                     2        3.7176390       18.78003600    0.00000000
                                      P - G
                                                     2        7.6267280       33.19279100    0.00000000
                                                     2        7.4532070       66.38903900    0.00000000
                                                     2        3.3583890        4.62072600    0.00000000
                                                     2        3.2297380        9.26027000    0.00000000
                                      D - G
                                                     2        5.9380860       13.99338300    0.00000000
                                                     2        5.8255440       20.99588200    0.00000000
                                                     2        2.2050190        2.28516600    0.00000000
                                                     2        2.2062920        3.44126000    0.00000000
                                      F - G
                                                     2        4.8002150       -5.23932000    0.00000000
                                                     2        4.7989920       -6.98742400    0.00000000
    2          8
                                   No pseudopotential on this center.
    3          8
                                   No pseudopotential on this center.
    4          8
                                   No pseudopotential on this center.
    5          8
                                   No pseudopotential on this center.
    6         14
                                   No pseudopotential on this center.
    7         14
                                   No pseudopotential on this center.
    8         14
                                   No pseudopotential on this center.
    9         14
                                   No pseudopotential on this center.
   10          8
                                   No pseudopotential on this center.
   11          8
                                   No pseudopotential on this center.
   12          8
                                   No pseudopotential on this center.
   13          8
                                   No pseudopotential on this center.
   14          8
                                   No pseudopotential on this center.
   15          8
                                   No pseudopotential on this center.
   16          8
                                   No pseudopotential on this center.
   17          8
                                   No pseudopotential on this center.
   18          8
                                   No pseudopotential on this center.
   19          8
                                   No pseudopotential on this center.
   20          8
                                   No pseudopotential on this center.
   21          8
                                   No pseudopotential on this center.
   22          1
                                   No pseudopotential on this center.
   23          1
                                   No pseudopotential on this center.
   24          1
                                   No pseudopotential on this center.
   25          1
                                   No pseudopotential on this center.
   26          1
                                   No pseudopotential on this center.
   27          1
                                   No pseudopotential on this center.
   28          1
                                   No pseudopotential on this center.
   29          1
                                   No pseudopotential on this center.
   30          1
                                   No pseudopotential on this center.
   31          1
                                   No pseudopotential on this center.
   32          1
                                   No pseudopotential on this center.
   33          1
                                   No pseudopotential on this center.
 ======================================================================================================
 There are   570 symmetry adapted cartesian basis functions of A   symmetry.
 There are   524 symmetry adapted basis functions of A   symmetry.
   524 basis functions,  1074 primitive gaussians,   570 cartesian basis functions
   104 alpha electrons      104 beta electrons
       nuclear repulsion energy      2898.0760095893 Hartrees.
 NAtoms=   33 NActive=   33 NUniq=   33 SFac= 1.00D+00 NAtFMM=   60 NAOKFM=F Big=F
 Integral buffers will be    131072 words long.
 Raffenetti 2 integral format.
 Two-electron integral symmetry is turned on.
 Nuclear repulsion after empirical dispersion term =     2898.0338848936 Hartrees.
 One-electron integrals computed using PRISM.
 PrsmSu:  requested number of processors reduced to:   4 ShMem   1 Linda.
   1 Symmetry operations used in ECPInt.
 ECPInt:  NShTT=   13203 NPrTT=   78401 LenC2=   11681 LenP2D=   45449.
 LDataN:  DoStor=T MaxTD1= 8 Len=  415
 Number of processors reduced to  13 by ecpmxn.
 NBasis=   524 RedAO= T EigKep=  2.23D-05  NBF=   524
 NBsUse=   524 1.00D-06 EigRej= -1.00D+00 NBFU=   524
 Defaulting to unpruned grid for atomic number  40.
 ExpMin= 1.01D-02 ExpMax= 1.61D+04 ExpMxC= 2.43D+03 IAcc=3 IRadAn=         5 AccDes= 0.00D+00
 Harris functional with IExCor=  402 and IRadAn=       5 diagonalized for initial guess.
 HarFok:  IExCor=  402 AccDes= 0.00D+00 IRadAn=         5 IDoV= 1 UseB2=F ITyADJ=14
 ICtDFT=  3500011 ScaDFX=  1.000000  1.000000  1.000000  1.000000
 Defaulting to unpruned grid for atomic number  40.
 FoFCou: FMM=F IPFlag=           0 FMFlag=      100000 FMFlg1=           0
         NFxFlg=           0 DoJE=T BraDBF=F KetDBF=T FulRan=T
         wScrn=  0.000000 ICntrl=       500 IOpCl=  0 I1Cent=   200000004 NGrid=           0
         NMat0=    1 NMatS0=      1 NMatT0=    0 NMatD0=    1 NMtDS0=    0 NMtDT0=    0
 Petite list used in FoFCou.
 Requested convergence on RMS density matrix=1.00D-08 within 128 cycles.
 Requested convergence on MAX density matrix=1.00D-06.
 Requested convergence on             energy=1.00D-06.
 No special actions if energy rises.
 Defaulting to unpruned grid for atomic number  40.
 Defaulting to unpruned grid for atomic number  40.
 Defaulting to unpruned grid for atomic number  40.
 Defaulting to unpruned grid for atomic number  40.
 Defaulting to unpruned grid for atomic number  40.
 Defaulting to unpruned grid for atomic number  40.
 Defaulting to unpruned grid for atomic number  40.
 Defaulting to unpruned grid for atomic number  40.
 Defaulting to unpruned grid for atomic number  40.
 Defaulting to unpruned grid for atomic number  40.
 Defaulting to unpruned grid for atomic number  40.
 Defaulting to unpruned grid for atomic number  40.
 Defaulting to unpruned grid for atomic number  40.
 Defaulting to unpruned grid for atomic number  40.
 Defaulting to unpruned grid for atomic number  40.
 Defaulting to unpruned grid for atomic number  40.
 SCF Done:  E(RB3LYP) =  -2416.94207942     A.U. after   14 cycles
            NFock= 14  Conv=0.33D-08     -V/T= 2.0184

 **********************************************************************

            Population analysis using the SCF Density.

 **********************************************************************

 Orbital symmetries:
       Occupied  (A) (A) (A) (A) (A) (A) (A) (A) (A) (A) (A) (A)
                 (A) (A) (A) (A) (A) (A) (A) (A) (A) (A) (A) (A)
                 (A) (A) (A) (A) (A) (A) (A) (A) (A) (A) (A) (A)
                 (A) (A) (A) (A) (A) (A) (A) (A) (A) (A) (A) (A)
                 (A) (A) (A) (A) (A) (A) (A) (A) (A) (A) (A) (A)
                 (A) (A) (A) (A) (A) (A) (A) (A) (A) (A) (A) (A)
                 (A) (A) (A) (A) (A) (A) (A) (A) (A) (A) (A) (A)
                 (A) (A) (A) (A) (A) (A) (A) (A) (A) (A) (A) (A)
                 (A) (A) (A) (A) (A) (A) (A) (A)
       Virtual   (A) (A) (A) (A) (A) (A) (A) (A) (A) (A) (A) (A)
                 (A) (A) (A) (A) (A) (A) (A) (A) (A) (A) (A) (A)
                 (A) (A) (A) (A) (A) (A) (A) (A) (A) (A) (A) (A)
                 (A) (A) (A) (A) (A) (A) (A) (A) (A) (A) (A) (A)
                 (A) (A) (A) (A) (A) (A) (A) (A) (A) (A) (A) (A)
                 (A) (A) (A) (A) (A) (A) (A) (A) (A) (A) (A) (A)
                 (A) (A) (A) (A) (A) (A) (A) (A) (A) (A) (A) (A)
                 (A) (A) (A) (A) (A) (A) (A) (A) (A) (A) (A) (A)
                 (A) (A) (A) (A) (A) (A) (A) (A) (A) (A) (A) (A)
                 (A) (A) (A) (A) (A) (A) (A) (A) (A) (A) (A) (A)
                 (A) (A) (A) (A) (A) (A) (A) (A) (A) (A) (A) (A)
                 (A) (A) (A) (A) (A) (A) (A) (A) (A) (A) (A) (A)
                 (A) (A) (A) (A) (A) (A) (A) (A) (A) (A) (A) (A)
                 (A) (A) (A) (A) (A) (A) (A) (A) (A) (A) (A) (A)
                 (A) (A) (A) (A) (A) (A) (A) (A) (A) (A) (A) (A)
                 (A) (A) (A) (A) (A) (A) (A) (A) (A) (A) (A) (A)
                 (A) (A) (A) (A) (A) (A) (A) (A) (A) (A) (A) (A)
                 (A) (A) (A) (A) (A) (A) (A) (A) (A) (A) (A) (A)
                 (A) (A) (A) (A) (A) (A) (A) (A) (A) (A) (A) (A)
                 (A) (A) (A) (A) (A) (A) (A) (A) (A) (A) (A) (A)
                 (A) (A) (A) (A) (A) (A) (A) (A) (A) (A) (A) (A)
                 (A) (A) (A) (A) (A) (A) (A) (A) (A) (A) (A) (A)
                 (A) (A) (A) (A) (A) (A) (A) (A) (A) (A) (A) (A)
                 (A) (A) (A) (A) (A) (A) (A) (A) (A) (A) (A) (A)
                 (A) (A) (A) (A) (A) (A) (A) (A) (A) (A) (A) (A)
                 (A) (A) (A) (A) (A) (A) (A) (A) (A) (A) (A) (A)
                 (A) (A) (A) (A) (A) (A) (A) (A) (A) (A) (A) (A)
                 (A) (A) (A) (A) (A) (A) (A) (A) (A) (A) (A) (A)
                 (A) (A) (A) (A) (A) (A) (A) (A) (A) (A) (A) (A)
                 (A) (A) (A) (A) (A) (A) (A) (A) (A) (A) (A) (A)
                 (A) (A) (A) (A) (A) (A) (A) (A) (A) (A) (A) (A)
                 (A) (A) (A) (A) (A) (A) (A) (A) (A) (A) (A) (A)
                 (A) (A) (A) (A) (A) (A) (A) (A) (A) (A) (A) (A)
                 (A) (A) (A) (A) (A) (A) (A) (A) (A) (A) (A) (A)
                 (A) (A) (A) (A) (A) (A) (A) (A) (A) (A) (A) (A)
 The electronic state is 1-A.
 Alpha  occ. eigenvalues --  -66.22509 -66.22023 -66.21439 -66.20690 -19.18266
 Alpha  occ. eigenvalues --  -19.18076 -19.17950 -19.17557 -19.17004 -19.16936
 Alpha  occ. eigenvalues --  -19.16692 -19.16539 -19.15881 -19.15816 -19.15726
 Alpha  occ. eigenvalues --  -19.15690 -19.14984 -19.14800 -19.14611 -19.14324
 Alpha  occ. eigenvalues --   -5.36566  -5.36182  -5.35517  -5.34746  -3.72553
 Alpha  occ. eigenvalues --   -3.72525  -3.72472  -3.72155  -3.72127  -3.72099
 Alpha  occ. eigenvalues --   -3.71510  -3.71460  -3.71428  -3.70726  -3.70710
 Alpha  occ. eigenvalues --   -3.70656  -2.12903  -1.29322  -1.29087  -1.28934
 Alpha  occ. eigenvalues --   -1.05390  -1.05081  -1.04505  -1.03221  -1.02286
 Alpha  occ. eigenvalues --   -1.02129  -1.01915  -1.01264  -1.01198  -1.00429
 Alpha  occ. eigenvalues --   -0.99547  -0.99055  -0.97462  -0.96045  -0.95540
 Alpha  occ. eigenvalues --   -0.94888  -0.60647  -0.59774  -0.58862  -0.58654
 Alpha  occ. eigenvalues --   -0.55314  -0.55009  -0.54264  -0.53801  -0.52847
 Alpha  occ. eigenvalues --   -0.52309  -0.51597  -0.49901  -0.48359  -0.47382
 Alpha  occ. eigenvalues --   -0.47055  -0.46418  -0.43135  -0.42594  -0.42263
 Alpha  occ. eigenvalues --   -0.41547  -0.41279  -0.40252  -0.39996  -0.39634
 Alpha  occ. eigenvalues --   -0.39138  -0.38743  -0.38443  -0.38024  -0.37869
 Alpha  occ. eigenvalues --   -0.37609  -0.37360  -0.36882  -0.36761  -0.36467
 Alpha  occ. eigenvalues --   -0.36153  -0.35851  -0.35308  -0.35221  -0.34761
 Alpha  occ. eigenvalues --   -0.34200  -0.33998  -0.33759  -0.33377  -0.33067
 Alpha  occ. eigenvalues --   -0.32868  -0.32114  -0.31704  -0.30974
 Alpha virt. eigenvalues --   -0.04282  -0.02943  -0.02877  -0.02680  -0.01934
 Alpha virt. eigenvalues --   -0.01157  -0.00348  -0.00206   0.00075   0.00383
 Alpha virt. eigenvalues --    0.00802   0.01214   0.01867   0.02106   0.02362
 Alpha virt. eigenvalues --    0.02774   0.03333   0.03780   0.03982   0.04201
 Alpha virt. eigenvalues --    0.04475   0.05305   0.05795   0.06087   0.06296
 Alpha virt. eigenvalues --    0.06649   0.06965   0.07655   0.07973   0.08404
 Alpha virt. eigenvalues --    0.08677   0.08934   0.09268   0.09509   0.10143
 Alpha virt. eigenvalues --    0.10342   0.10935   0.11077   0.11153   0.11538
 Alpha virt. eigenvalues --    0.12066   0.12238   0.13127   0.13469   0.13758
 Alpha virt. eigenvalues --    0.14001   0.14312   0.14667   0.15221   0.15523
 Alpha virt. eigenvalues --    0.15647   0.15885   0.16468   0.16745   0.16828
 Alpha virt. eigenvalues --    0.17201   0.17381   0.17588   0.18057   0.18404
 Alpha virt. eigenvalues --    0.18569   0.19027   0.19336   0.19448   0.20204
 Alpha virt. eigenvalues --    0.20358   0.20776   0.21447   0.21662   0.21854
 Alpha virt. eigenvalues --    0.22138   0.22537   0.22597   0.22945   0.23564
 Alpha virt. eigenvalues --    0.23775   0.24068   0.24316   0.24503   0.24949
 Alpha virt. eigenvalues --    0.25505   0.25782   0.26143   0.26205   0.26676
 Alpha virt. eigenvalues --    0.26919   0.27204   0.27688   0.28132   0.28222
 Alpha virt. eigenvalues --    0.28320   0.28746   0.28950   0.29173   0.29855
 Alpha virt. eigenvalues --    0.29861   0.30319   0.30546   0.30774   0.31235
 Alpha virt. eigenvalues --    0.31656   0.31910   0.32162   0.32476   0.32629
 Alpha virt. eigenvalues --    0.32934   0.33153   0.33724   0.34108   0.34393
 Alpha virt. eigenvalues --    0.35131   0.35383   0.35946   0.36040   0.36479
 Alpha virt. eigenvalues --    0.37385   0.37709   0.38097   0.38686   0.39695
 Alpha virt. eigenvalues --    0.40035   0.40617   0.40779   0.41522   0.42039
 Alpha virt. eigenvalues --    0.42996   0.43492   0.43983   0.44747   0.45361
 Alpha virt. eigenvalues --    0.45769   0.46289   0.46633   0.46866   0.47511
 Alpha virt. eigenvalues --    0.47758   0.48743   0.49838   0.50229   0.50314
 Alpha virt. eigenvalues --    0.50917   0.51053   0.51958   0.52867   0.53380
 Alpha virt. eigenvalues --    0.53911   0.55467   0.55645   0.56311   0.57037
 Alpha virt. eigenvalues --    0.58102   0.58546   0.59950   0.60572   0.60763
 Alpha virt. eigenvalues --    0.61838   0.62416   0.63539   0.63674   0.65800
 Alpha virt. eigenvalues --    0.66350   0.67384   0.68819   0.69042   0.69365
 Alpha virt. eigenvalues --    0.70529   0.71509   0.72144   0.74204   0.74488
 Alpha virt. eigenvalues --    0.76894   0.77532   0.79308   0.79489   0.79946
 Alpha virt. eigenvalues --    0.82368   0.83039   0.84286   0.85246   0.86246
 Alpha virt. eigenvalues --    0.86930   0.88726   0.90477   0.91676   0.92689
 Alpha virt. eigenvalues --    0.93858   0.95863   0.96599   0.97013   0.97921
 Alpha virt. eigenvalues --    0.98427   0.98659   0.99086   1.00030   1.00566
 Alpha virt. eigenvalues --    1.01470   1.01805   1.02843   1.03978   1.04349
 Alpha virt. eigenvalues --    1.04662   1.05186   1.05457   1.08071   1.09453
 Alpha virt. eigenvalues --    1.10527   1.12703   1.15478   1.16577   1.17364
 Alpha virt. eigenvalues --    1.19201   1.19312   1.20349   1.20894   1.21659
 Alpha virt. eigenvalues --    1.21993   1.22572   1.22757   1.23299   1.23989
 Alpha virt. eigenvalues --    1.24436   1.25069   1.25516   1.26200   1.26438
 Alpha virt. eigenvalues --    1.27071   1.27888   1.28296   1.28748   1.29075
 Alpha virt. eigenvalues --    1.30093   1.30617   1.31435   1.31659   1.32737
 Alpha virt. eigenvalues --    1.33085   1.33823   1.34317   1.35001   1.36205
 Alpha virt. eigenvalues --    1.36755   1.36887   1.37186   1.38057   1.38768
 Alpha virt. eigenvalues --    1.40251   1.40587   1.40732   1.41348   1.41511
 Alpha virt. eigenvalues --    1.42831   1.43296   1.44166   1.46002   1.46954
 Alpha virt. eigenvalues --    1.48301   1.49211   1.51419   1.52396   1.53604
 Alpha virt. eigenvalues --    1.55604   1.57335   1.58410   1.58797   1.59946
 Alpha virt. eigenvalues --    1.60526   1.61291   1.61638   1.62326   1.62612
 Alpha virt. eigenvalues --    1.63867   1.65473   1.65813   1.65906   1.67520
 Alpha virt. eigenvalues --    1.67970   1.68599   1.70046   1.70843   1.71278
 Alpha virt. eigenvalues --    1.71509   1.72393   1.72522   1.73550   1.74118
 Alpha virt. eigenvalues --    1.74840   1.75594   1.76230   1.76843   1.77631
 Alpha virt. eigenvalues --    1.78788   1.79182   1.79371   1.79760   1.80365
 Alpha virt. eigenvalues --    1.81524   1.81815   1.82304   1.83491   1.83681
 Alpha virt. eigenvalues --    1.85308   1.85370   1.86227   1.86922   1.87370
 Alpha virt. eigenvalues --    1.87932   1.89294   1.89631   1.89797   1.91260
 Alpha virt. eigenvalues --    1.91880   1.92700   1.93476   1.94961   1.95444
 Alpha virt. eigenvalues --    1.95833   1.96872   1.97101   1.98842   1.99168
 Alpha virt. eigenvalues --    2.00151   2.00631   2.03986   2.05680   2.06457
 Alpha virt. eigenvalues --    2.07187   2.08237   2.10880   2.11226   2.11872
 Alpha virt. eigenvalues --    2.13526   2.14251   2.15851   2.16556   2.17528
 Alpha virt. eigenvalues --    2.19491   2.20231   2.22448   2.25347   2.31964
 Alpha virt. eigenvalues --    2.33694   2.35082   2.39655   2.40664   2.40764
 Alpha virt. eigenvalues --    2.41691   2.41882   2.43419   2.44030   2.44501
 Alpha virt. eigenvalues --    2.45910   2.46035   2.48078   2.49543   2.50264
 Alpha virt. eigenvalues --    2.50682   2.51126   2.53107   2.53497   2.54772
 Alpha virt. eigenvalues --    2.55025   2.58222   2.59596   2.60302   2.61132
 Alpha virt. eigenvalues --    2.61325   2.61895   2.62230   2.62909   2.63191
 Alpha virt. eigenvalues --    2.63664   2.63878   2.65624   2.65819   2.66140
 Alpha virt. eigenvalues --    2.66884   2.67443   2.68094   2.68403   2.68859
 Alpha virt. eigenvalues --    2.69935   2.71515   2.72068   2.72995   2.73601
 Alpha virt. eigenvalues --    2.75170   2.76128   2.76711   2.78164   2.79085
 Alpha virt. eigenvalues --    2.80522   2.80583   2.82400   2.83480   2.84046
 Alpha virt. eigenvalues --    2.85608   2.86171   2.87888   2.88478   2.89583
 Alpha virt. eigenvalues --    3.15330   3.31395   3.36484   3.40082   3.46080
 Alpha virt. eigenvalues --    3.48117   3.48951   3.49255   3.49539   3.52735
 Alpha virt. eigenvalues --    3.54032   3.55319   3.60219   3.61666   3.62378
 Alpha virt. eigenvalues --    3.66115   4.34079   5.99216   7.67232  31.18233
          Condensed to atoms (all electrons):
               1          2          3          4          5          6
     1  Zr  16.873366  -0.197909   0.019493  -0.296327   0.138493  -0.940054
     2  O   -0.197909   8.849201   0.010894  -0.061735  -0.057588   0.111151
     3  O    0.019493   0.010894   8.882797   0.002751  -0.029667  -0.005691
     4  O   -0.296327  -0.061735   0.002751   9.013662  -0.072600  -0.859404
     5  O    0.138493  -0.057588  -0.029667  -0.072600   8.981405  -0.004410
     6  Si  -0.940054   0.111151  -0.005691  -0.859404  -0.004410  14.438851
     7  Si  -0.648541  -0.009557  -0.928436  -0.017683  -0.018181   0.092577
     8  Si  -0.620430  -0.643275  -0.039512   0.098651  -0.007374  -0.050712
     9  Si  -1.598135   0.041283   0.012604   0.059145  -0.670163   0.132808
    10  O   -0.031433   0.000489   0.009137  -0.000354   0.085766   0.000995
    11  O   -0.221621  -0.001187  -0.004213   0.001198   0.265493   0.000757
    12  O   -0.051801   0.005228   0.004936   0.000555   0.082685  -0.002645
    13  O    0.036922   0.272451   0.000856  -0.014037   0.000119   0.009323
    14  O   -0.099451   0.236089  -0.020552  -0.003064  -0.001314   0.022925
    15  O   -0.068549   0.225751   0.000958   0.002409   0.000142   0.005060
    16  O   -0.086640   0.005432  -0.000480   0.332786   0.001735  -0.446929
    17  O   -0.108515  -0.040381   0.005899   0.216529  -0.001538  -0.437918
    18  O   -0.111649  -0.026373   0.002945   0.264389  -0.000724  -0.503391
    19  O   -0.021547   0.008009   0.279945   0.015890   0.001017   0.016096
    20  O   -0.128285  -0.000930   0.142438  -0.000486   0.000579   0.011441
    21  O    0.050617   0.012058   0.158220   0.004131   0.001496  -0.019816
    22  H   -0.008737   0.000006   0.000004   0.000007   0.001645   0.000281
    23  H    0.000233  -0.000014  -0.000045  -0.000029  -0.020533   0.000040
    24  H   -0.006879   0.000029   0.000063   0.000009  -0.001891   0.000042
    25  H    0.016179  -0.020811  -0.000099  -0.002021  -0.000026   0.002495
    26  H   -0.007687  -0.011849   0.000014  -0.000015  -0.000017  -0.000276
    27  H    0.018611  -0.021412   0.000743  -0.001273   0.000033   0.005935
    28  H    0.003695  -0.000014  -0.017088  -0.000013  -0.000001  -0.000333
    29  H    0.004227  -0.004510  -0.017782  -0.000127   0.000004   0.001098
    30  H    0.003906  -0.000017   0.000561  -0.000631  -0.000005  -0.004497
    31  H    0.007180   0.000328  -0.000021  -0.019845  -0.000005   0.063023
    32  H    0.002640  -0.000027   0.000038   0.011901   0.000016   0.018339
    33  H   -0.033150   0.001074  -0.010963  -0.007866  -0.000033   0.061921
               7          8          9         10         11         12
     1  Zr  -0.648541  -0.620430  -1.598135  -0.031433  -0.221621  -0.051801
     2  O   -0.009557  -0.643275   0.041283   0.000489  -0.001187   0.005228
     3  O   -0.928436  -0.039512   0.012604   0.009137  -0.004213   0.004936
     4  O   -0.017683   0.098651   0.059145  -0.000354   0.001198   0.000555
     5  O   -0.018181  -0.007374  -0.670163   0.085766   0.265493   0.082685
     6  Si   0.092577  -0.050712   0.132808   0.000995   0.000757  -0.002645
     7  Si  13.898632   0.190894   0.033407   0.002252  -0.000025  -0.013796
     8  Si   0.190894  13.599353   0.054694  -0.000638   0.003469  -0.021097
     9  Si   0.033407   0.054694  13.991278  -0.041908  -0.031316  -0.163912
    10  O    0.002252  -0.000638  -0.041908   8.682372  -0.120722   0.093736
    11  O   -0.000025   0.003469  -0.031316  -0.120722   8.699154  -0.086275
    12  O   -0.013796  -0.021097  -0.163912   0.093736  -0.086275   8.823318
    13  O    0.000319  -0.152299  -0.007553  -0.000006   0.000031  -0.000398
    14  O    0.035429  -0.454705   0.004950   0.000023   0.000018   0.000801
    15  O   -0.002353  -0.377641   0.002212   0.000025  -0.000074   0.002289
    16  O    0.004386  -0.011759  -0.002828   0.000005  -0.000005   0.000012
    17  O   -0.001416   0.105509   0.006957   0.000014   0.000015   0.000029
    18  O   -0.001586   0.096638   0.005926   0.000014   0.000004  -0.000015
    19  O   -0.469862  -0.017950   0.005806  -0.000207   0.000021  -0.000051
    20  O   -0.097322   0.009034   0.007736   0.000126   0.000014  -0.000090
    21  O    0.020913  -0.047557  -0.010410  -0.000037   0.000016  -0.002436
    22  H    0.001027   0.000815   0.042776  -0.001432  -0.001564   0.240503
    23  H   -0.000035   0.000037   0.061155   0.230312  -0.004047   0.004917
    24  H    0.000038   0.000295   0.046570   0.009149   0.225090  -0.006505
    25  H   -0.000168   0.055216  -0.000252   0.000000   0.000000  -0.000001
    26  H    0.000568   0.066669  -0.001222  -0.000000   0.000001  -0.000033
    27  H   -0.001130   0.074316  -0.000402  -0.000000  -0.000000   0.000007
    28  H    0.056217   0.000039  -0.000221   0.000007  -0.000000   0.000042
    29  H    0.041830   0.019128   0.000319  -0.000001  -0.000000   0.000097
    30  H    0.046172   0.000134  -0.000242   0.000000  -0.000000  -0.000002
    31  H    0.000051  -0.003948  -0.000100  -0.000000  -0.000000   0.000000
    32  H   -0.000601   0.000267  -0.000098  -0.000000   0.000000  -0.000000
    33  H    0.023622   0.001529   0.000686  -0.000000  -0.000000   0.000004
              13         14         15         16         17         18
     1  Zr   0.036922  -0.099451  -0.068549  -0.086640  -0.108515  -0.111649
     2  O    0.272451   0.236089   0.225751   0.005432  -0.040381  -0.026373
     3  O    0.000856  -0.020552   0.000958  -0.000480   0.005899   0.002945
     4  O   -0.014037  -0.003064   0.002409   0.332786   0.216529   0.264389
     5  O    0.000119  -0.001314   0.000142   0.001735  -0.001538  -0.000724
     6  Si   0.009323   0.022925   0.005060  -0.446929  -0.437918  -0.503391
     7  Si   0.000319   0.035429  -0.002353   0.004386  -0.001416  -0.001586
     8  Si  -0.152299  -0.454705  -0.377641  -0.011759   0.105509   0.096638
     9  Si  -0.007553   0.004950   0.002212  -0.002828   0.006957   0.005926
    10  O   -0.000006   0.000023   0.000025   0.000005   0.000014   0.000014
    11  O    0.000031   0.000018  -0.000074  -0.000005   0.000015   0.000004
    12  O   -0.000398   0.000801   0.002289   0.000012   0.000029  -0.000015
    13  O    8.648682   0.023567  -0.129570   0.004233  -0.029869  -0.044436
    14  O    0.023567   8.818686   0.157135   0.002240  -0.027066  -0.023190
    15  O   -0.129570   0.157135   8.812686  -0.000177   0.003909   0.001615
    16  O    0.004233   0.002240  -0.000177   8.894754  -0.102428  -0.102712
    17  O   -0.029869  -0.027066   0.003909  -0.102428   8.920865   0.236525
    18  O   -0.044436  -0.023190   0.001615  -0.102712   0.236525   9.067907
    19  O    0.000224   0.000282   0.000337  -0.000945  -0.028749  -0.000237
    20  O    0.000001  -0.001500   0.000006   0.000016  -0.000865   0.000017
    21  O   -0.000320   0.024760   0.001133  -0.000146  -0.006285   0.000371
    22  H   -0.000000  -0.000004  -0.000000  -0.000000   0.000000   0.000000
    23  H    0.000000  -0.000000   0.000000   0.000000   0.000000  -0.000000
    24  H   -0.000000   0.000000   0.000000   0.000000  -0.000000  -0.000000
    25  H    0.219630  -0.008950   0.007111  -0.000305   0.000610   0.014836
    26  H   -0.006481   0.000971   0.223649   0.000000  -0.000025   0.000002
    27  H   -0.004638   0.205864   0.000307   0.000337   0.016661  -0.000825
    28  H    0.000000  -0.000005  -0.000001   0.000000   0.000004   0.000000
    29  H    0.000752   0.014909  -0.001168  -0.000002  -0.000425  -0.000003
    30  H    0.000001  -0.000001   0.000001   0.000140  -0.000963  -0.000009
    31  H    0.002203   0.000074  -0.000016   0.005211  -0.001596   0.213461
    32  H   -0.000007  -0.000006   0.000000   0.236164  -0.003437   0.004058
    33  H    0.000227   0.002527  -0.000052   0.000517   0.234482   0.002299
              19         20         21         22         23         24
     1  Zr  -0.021547  -0.128285   0.050617  -0.008737   0.000233  -0.006879
     2  O    0.008009  -0.000930   0.012058   0.000006  -0.000014   0.000029
     3  O    0.279945   0.142438   0.158220   0.000004  -0.000045   0.000063
     4  O    0.015890  -0.000486   0.004131   0.000007  -0.000029   0.000009
     5  O    0.001017   0.000579   0.001496   0.001645  -0.020533  -0.001891
     6  Si   0.016096   0.011441  -0.019816   0.000281   0.000040   0.000042
     7  Si  -0.469862  -0.097322   0.020913   0.001027  -0.000035   0.000038
     8  Si  -0.017950   0.009034  -0.047557   0.000815   0.000037   0.000295
     9  Si   0.005806   0.007736  -0.010410   0.042776   0.061155   0.046570
    10  O   -0.000207   0.000126  -0.000037  -0.001432   0.230312   0.009149
    11  O    0.000021   0.000014   0.000016  -0.001564  -0.004047   0.225090
    12  O   -0.000051  -0.000090  -0.002436   0.240503   0.004917  -0.006505
    13  O    0.000224   0.000001  -0.000320  -0.000000   0.000000  -0.000000
    14  O    0.000282  -0.001500   0.024760  -0.000004  -0.000000   0.000000
    15  O    0.000337   0.000006   0.001133  -0.000000   0.000000   0.000000
    16  O   -0.000945   0.000016  -0.000146  -0.000000   0.000000   0.000000
    17  O   -0.028749  -0.000865  -0.006285   0.000000   0.000000  -0.000000
    18  O   -0.000237   0.000017   0.000371   0.000000  -0.000000  -0.000000
    19  O    8.912022   0.039196   0.019463   0.000004   0.000000  -0.000000
    20  O    0.039196   8.648119  -0.057197  -0.000008  -0.000003   0.000000
    21  O    0.019463  -0.057197   8.489315  -0.000008   0.000000   0.000000
    22  H    0.000004  -0.000008  -0.000008   0.320847   0.000021   0.000085
    23  H    0.000000  -0.000003   0.000000   0.000021   0.353104   0.000041
    24  H   -0.000000   0.000000   0.000000   0.000085   0.000041   0.368743
    25  H   -0.000029   0.000000  -0.000006  -0.000000   0.000000   0.000000
    26  H    0.000000  -0.000000   0.000056   0.000000  -0.000000  -0.000000
    27  H   -0.000428   0.000225  -0.004840   0.000000   0.000000  -0.000000
    28  H    0.004164   0.228557  -0.001274  -0.000002   0.000000  -0.000000
    29  H   -0.007432   0.008204   0.211057  -0.000000   0.000000  -0.000000
    30  H    0.220107  -0.002287  -0.007121   0.000000  -0.000000  -0.000000
    31  H    0.000002  -0.000000  -0.000000  -0.000000   0.000000   0.000000
    32  H    0.000082   0.000000   0.000001  -0.000000  -0.000000  -0.000000
    33  H    0.013100   0.000012   0.001119  -0.000000  -0.000000   0.000000
              25         26         27         28         29         30
     1  Zr   0.016179  -0.007687   0.018611   0.003695   0.004227   0.003906
     2  O   -0.020811  -0.011849  -0.021412  -0.000014  -0.004510  -0.000017
     3  O   -0.000099   0.000014   0.000743  -0.017088  -0.017782   0.000561
     4  O   -0.002021  -0.000015  -0.001273  -0.000013  -0.000127  -0.000631
     5  O   -0.000026  -0.000017   0.000033  -0.000001   0.000004  -0.000005
     6  Si   0.002495  -0.000276   0.005935  -0.000333   0.001098  -0.004497
     7  Si  -0.000168   0.000568  -0.001130   0.056217   0.041830   0.046172
     8  Si   0.055216   0.066669   0.074316   0.000039   0.019128   0.000134
     9  Si  -0.000252  -0.001222  -0.000402  -0.000221   0.000319  -0.000242
    10  O    0.000000  -0.000000  -0.000000   0.000007  -0.000001   0.000000
    11  O    0.000000   0.000001  -0.000000  -0.000000  -0.000000  -0.000000
    12  O   -0.000001  -0.000033   0.000007   0.000042   0.000097  -0.000002
    13  O    0.219630  -0.006481  -0.004638   0.000000   0.000752   0.000001
    14  O   -0.008950   0.000971   0.205864  -0.000005   0.014909  -0.000001
    15  O    0.007111   0.223649   0.000307  -0.000001  -0.001168   0.000001
    16  O   -0.000305   0.000000   0.000337   0.000000  -0.000002   0.000140
    17  O    0.000610  -0.000025   0.016661   0.000004  -0.000425  -0.000963
    18  O    0.014836   0.000002  -0.000825   0.000000  -0.000003  -0.000009
    19  O   -0.000029   0.000000  -0.000428   0.004164  -0.007432   0.220107
    20  O    0.000000  -0.000000   0.000225   0.228557   0.008204  -0.002287
    21  O   -0.000006   0.000056  -0.004840  -0.001274   0.211057  -0.007121
    22  H   -0.000000   0.000000   0.000000  -0.000002  -0.000000   0.000000
    23  H    0.000000  -0.000000   0.000000   0.000000   0.000000  -0.000000
    24  H    0.000000  -0.000000  -0.000000  -0.000000  -0.000000  -0.000000
    25  H    0.301336  -0.000027   0.000008  -0.000000   0.000001   0.000000
    26  H   -0.000027   0.370014  -0.000035   0.000000   0.000017  -0.000000
    27  H    0.000008  -0.000035   0.284704  -0.000000  -0.000995   0.000007
    28  H   -0.000000   0.000000  -0.000000   0.351448  -0.000028   0.000004
    29  H    0.000001   0.000017  -0.000995  -0.000028   0.284037   0.000160
    30  H    0.000000  -0.000000   0.000007   0.000004   0.000160   0.336093
    31  H   -0.000134   0.000000   0.000015   0.000000   0.000000  -0.000000
    32  H   -0.000001  -0.000000  -0.000000  -0.000000  -0.000000  -0.000000
    33  H    0.000004   0.000000  -0.002416  -0.000002   0.000105  -0.000886
              31         32         33
     1  Zr   0.007180   0.002640  -0.033150
     2  O    0.000328  -0.000027   0.001074
     3  O   -0.000021   0.000038  -0.010963
     4  O   -0.019845   0.011901  -0.007866
     5  O   -0.000005   0.000016  -0.000033
     6  Si   0.063023   0.018339   0.061921
     7  Si   0.000051  -0.000601   0.023622
     8  Si  -0.003948   0.000267   0.001529
     9  Si  -0.000100  -0.000098   0.000686
    10  O   -0.000000  -0.000000  -0.000000
    11  O   -0.000000   0.000000  -0.000000
    12  O    0.000000  -0.000000   0.000004
    13  O    0.002203  -0.000007   0.000227
    14  O    0.000074  -0.000006   0.002527
    15  O   -0.000016   0.000000  -0.000052
    16  O    0.005211   0.236164   0.000517
    17  O   -0.001596  -0.003437   0.234482
    18  O    0.213461   0.004058   0.002299
    19  O    0.000002   0.000082   0.013100
    20  O   -0.000000   0.000000   0.000012
    21  O   -0.000000   0.000001   0.001119
    22  H   -0.000000  -0.000000  -0.000000
    23  H    0.000000  -0.000000  -0.000000
    24  H    0.000000  -0.000000   0.000000
    25  H   -0.000134  -0.000001   0.000004
    26  H    0.000000  -0.000000   0.000000
    27  H    0.000015  -0.000000  -0.002416
    28  H    0.000000  -0.000000  -0.000002
    29  H    0.000000  -0.000000   0.000105
    30  H   -0.000000  -0.000000  -0.000886
    31  H    0.328516  -0.000018  -0.000037
    32  H   -0.000018   0.349205   0.000150
    33  H   -0.000037   0.000150   0.269302
 Mulliken charges:
               1
     1  Zr   0.111777
     2  O   -0.681884
     3  O   -0.460748
     4  O   -0.666505
     5  O   -0.674558
     6  Si   2.280916
     7  Si   1.762360
     8  Si   2.072208
     9  Si   2.018452
    10  O   -0.917684
    11  O   -0.724232
    12  O   -0.910101
    13  O   -0.829926
    14  O   -0.911442
    15  O   -0.867135
    16  O   -0.732612
    17  O   -0.956532
    18  O   -1.095857
    19  O   -0.988329
    20  O   -0.806749
    21  O   -0.837275
    22  H    0.403735
    23  H    0.374845
    24  H    0.365120
    25  H    0.415404
    26  H    0.365706
    27  H    0.430622
    28  H    0.374804
    29  H    0.446532
    30  H    0.409375
    31  H    0.405656
    32  H    0.381334
    33  H    0.442725
 Sum of Mulliken charges =  -0.00000
 Mulliken charges with hydrogens summed into heavy atoms:
               1
     1  Zr   0.111777
     2  O   -0.681884
     3  O   -0.460748
     4  O   -0.666505
     5  O   -0.674558
     6  Si   2.280916
     7  Si   1.762360
     8  Si   2.072208
     9  Si   2.018452
    10  O   -0.542840
    11  O   -0.359112
    12  O   -0.506366
    13  O   -0.414522
    14  O   -0.480820
    15  O   -0.501429
    16  O   -0.351278
    17  O   -0.513807
    18  O   -0.690201
    19  O   -0.578954
    20  O   -0.431946
    21  O   -0.390743
 Electronic spatial extent (au):  <R**2>=           9035.1593
 Charge=              0.0000 electrons
 Dipole moment (field-independent basis, Debye):
    X=              3.1351    Y=             -1.1272    Z=             -3.0354  Tot=              4.5070
 Quadrupole moment (field-independent basis, Debye-Ang):
   XX=           -163.0169   YY=           -150.1748   ZZ=           -161.0315
   XY=             -3.0579   XZ=             14.5565   YZ=              1.7552
 Traceless Quadrupole moment (field-independent basis, Debye-Ang):
   XX=             -4.9425   YY=              7.8996   ZZ=             -2.9571
   XY=             -3.0579   XZ=             14.5565   YZ=              1.7552
 Octapole moment (field-independent basis, Debye-Ang**2):
  XXX=             81.9679  YYY=             -7.4001  ZZZ=            -65.8781  XYY=             -3.4477
  XXY=              5.1332  XXZ=            -20.0425  XZZ=             54.3947  YZZ=            -26.4461
  YYZ=              6.3948  XYZ=             -3.4945
 Hexadecapole moment (field-independent basis, Debye-Ang**3):
 XXXX=          -5553.5677 YYYY=          -2650.9231 ZZZZ=          -2319.3812 XXXY=             86.7958
 XXXZ=            -40.7179 YYYX=            -96.9302 YYYZ=             66.2103 ZZZX=             85.2762
 ZZZY=            -91.9638 XXYY=          -1273.2511 XXZZ=          -1335.9445 YYZZ=           -842.7850
 XXYZ=            103.9736 YYXZ=            205.6769 ZZXY=             10.1302
 N-N= 2.898033884894D+03 E-N=-1.150886486139D+04  KE= 2.373213128587D+03
 PrsmSu:  requested number of processors reduced to:   2 ShMem   1 Linda.
 PrsmSu:  requested number of processors reduced to:  10 ShMem   1 Linda.
   1 Symmetry operations used in ECPInt.
 ECPInt:  NShTT=   13203 NPrTT=   78401 LenC2=   11681 LenP2D=   45449.
 LDataN:  DoStor=T MaxTD1= 9 Len=  602
 Number of processors reduced to  14 by ecpmxn.
 Calling FoFJK, ICntrl=      2127 FMM=F ISym2X=0 I1Cent= 0 IOpClX= 0 NMat=1 NMatS=1 NMatT=0.
 CoulSu:  requested number of processors reduced to:  10 ShMem   1 Linda.
 Defaulting to unpruned grid for atomic number  40.
 Defaulting to unpruned grid for atomic number  40.
 Defaulting to unpruned grid for atomic number  40.
 Defaulting to unpruned grid for atomic number  40.
 Defaulting to unpruned grid for atomic number  40.
 Defaulting to unpruned grid for atomic number  40.
 Defaulting to unpruned grid for atomic number  40.
 Defaulting to unpruned grid for atomic number  40.
 Defaulting to unpruned grid for atomic number  40.
 Defaulting to unpruned grid for atomic number  40.
 Defaulting to unpruned grid for atomic number  40.
 Defaulting to unpruned grid for atomic number  40.
 Defaulting to unpruned grid for atomic number  40.
 Defaulting to unpruned grid for atomic number  40.
 Defaulting to unpruned grid for atomic number  40.
 Defaulting to unpruned grid for atomic number  40.
 ***** Axes restored to original set *****
 -------------------------------------------------------------------
 Center     Atomic                   Forces (Hartrees/Bohr)
 Number     Number              X              Y              Z
 -------------------------------------------------------------------
      1       40          -0.016294366    0.002239400    0.002627538
      2        8          -0.000896122   -0.001213856    0.000304960
      3        8          -0.001977894    0.000631565   -0.002020621
      4        8           0.000059159   -0.000276667   -0.000093384
      5        8           0.004501058    0.003987647    0.001888935
      6       14           0.000628143    0.000095262    0.000394331
      7       14           0.001427083   -0.002471067   -0.000156284
      8       14           0.001551391    0.000278528   -0.001081327
      9       14           0.019188516   -0.004804460   -0.004207445
     10        8          -0.001048881    0.000518568    0.001668107
     11        8          -0.001022141    0.001437303    0.000882922
     12        8          -0.002361364   -0.002354560   -0.000381018
     13        8          -0.000384770   -0.000216480    0.000165233
     14        8          -0.000374878    0.000141753    0.000148351
     15        8          -0.000192237   -0.000013019    0.000507579
     16        8          -0.000150184   -0.000035029   -0.000213827
     17        8          -0.000205472   -0.000013562   -0.000105357
     18        8          -0.000154302   -0.000083448   -0.000033636
     19        8          -0.000366864    0.000420348   -0.000187112
     20        8           0.000190344    0.000698139    0.000111114
     21        8          -0.000209567    0.000481937    0.000199465
     22        1          -0.002120526    0.001174391    0.000142040
     23        1          -0.000046560   -0.000049519   -0.000062371
     24        1          -0.000017680   -0.000371872   -0.000256493
     25        1           0.000108801    0.000080996    0.000021983
     26        1          -0.000015639    0.000041994   -0.000185716
     27        1           0.000095706    0.000025126    0.000018849
     28        1          -0.000203689   -0.000122640   -0.000131915
     29        1           0.000124309   -0.000155560   -0.000095128
     30        1          -0.000064080   -0.000053596   -0.000010056
     31        1           0.000051423    0.000035262    0.000017700
     32        1           0.000034253   -0.000007473    0.000062069
     33        1           0.000147030   -0.000045412    0.000060513
 -------------------------------------------------------------------
 Cartesian Forces:  Max     0.019188516 RMS     0.002801643

 GradGradGradGradGradGradGradGradGradGradGradGradGradGradGradGradGradGrad
 Berny optimization.
 FormGI is forming the generalized inverse of G from B-inverse, IUseBI=4.
 Internal  Forces:  Max     0.009970795 RMS     0.001423323
 Search for a local minimum.
 Step number   1 out of a maximum of  164
 All quantities printed in internal units (Hartrees-Bohrs-Radians)
 Mixed Optimization -- RFO/linear search
 Second derivative matrix not updated -- first step.
 ITU=  0
     Eigenvalues ---    0.00230   0.00230   0.00230   0.00485   0.03239
     Eigenvalues ---    0.03482   0.03500   0.03541   0.03581   0.03661
     Eigenvalues ---    0.03665   0.03674   0.03688   0.03735   0.03789
     Eigenvalues ---    0.03802   0.03811   0.03828   0.03858   0.03964
     Eigenvalues ---    0.04884   0.08049   0.09225   0.11097   0.11247
     Eigenvalues ---    0.11629   0.11717   0.11979   0.12205   0.12217
     Eigenvalues ---    0.12970   0.13105   0.13263   0.13476   0.14786
     Eigenvalues ---    0.15148   0.16000   0.16000   0.16000   0.16000
     Eigenvalues ---    0.16000   0.16000   0.16000   0.16000   0.16000
     Eigenvalues ---    0.16000   0.16000   0.16000   0.18389   0.18787
     Eigenvalues ---    0.19184   0.20200   0.20253   0.20422   0.20563
     Eigenvalues ---    0.20992   0.21009   0.21136   0.21189   0.21484
     Eigenvalues ---    0.22509   0.25000   0.25000   0.25000   0.34961
     Eigenvalues ---    0.37992   0.40480   0.40678   0.41116   0.41560
     Eigenvalues ---    0.42453   0.42502   0.42607   0.42768   0.43316
     Eigenvalues ---    0.43953   0.44102   0.44216   0.44422   0.44782
     Eigenvalues ---    0.50680   0.51458   0.52211   0.52570   0.54329
     Eigenvalues ---    0.54614   0.54650   0.54671   0.54696   0.54715
     Eigenvalues ---    0.54739   0.548931000.000001000.000001000.00000
     Eigenvalues --- 1000.000001000.000001000.000001000.000001000.00000
     Eigenvalues --- 1000.000001000.000001000.000001000.000001000.00000
     Eigenvalues --- 1000.000001000.000001000.000001000.000001000.00000
     Eigenvalues --- 1000.000001000.000001000.000001000.000001000.00000
     Eigenvalues --- 1000.000001000.000001000.000001000.000001000.00000
     Eigenvalues --- 1000.000001000.000001000.000001000.000001000.00000
     Eigenvalues --- 1000.000001000.000001000.000001000.000001000.00000
     Eigenvalues --- 1000.000001000.000001000.000001000.000001000.00000
     Eigenvalues --- 1000.000001000.000001000.000001000.000001000.00000
     Eigenvalues --- 1000.000001000.000001000.000001000.000001000.00000
     Eigenvalues --- 1000.000001000.000001000.000001000.000001000.00000
     Eigenvalues --- 1000.000001000.000001000.000001000.00000
 RFO step:  Lambda=-2.57520527D-03 EMin= 2.30000000D-03
 Linear search not attempted -- first point.
 Iteration  1 RMS(Cart)=  0.06485678 RMS(Int)=  0.00133863
 Iteration  2 RMS(Cart)=  0.00217160 RMS(Int)=  0.00013521
 Iteration  3 RMS(Cart)=  0.00000262 RMS(Int)=  0.00013520
 Iteration  4 RMS(Cart)=  0.00000000 RMS(Int)=  0.00013520
 Iteration  1 RMS(Cart)=  0.00003940 RMS(Int)=  0.00002140
 Iteration  2 RMS(Cart)=  0.00002663 RMS(Int)=  0.00002363
 Iteration  3 RMS(Cart)=  0.00001799 RMS(Int)=  0.00002720
 Iteration  4 RMS(Cart)=  0.00001216 RMS(Int)=  0.00003024
 Iteration  5 RMS(Cart)=  0.00000821 RMS(Int)=  0.00003250
 Iteration  6 RMS(Cart)=  0.00000555 RMS(Int)=  0.00003410
 Iteration  7 RMS(Cart)=  0.00000375 RMS(Int)=  0.00003521
 Iteration  8 RMS(Cart)=  0.00000253 RMS(Int)=  0.00003597
 Iteration  9 RMS(Cart)=  0.00000171 RMS(Int)=  0.00003649
 Iteration 10 RMS(Cart)=  0.00000116 RMS(Int)=  0.00003684
 Iteration 11 RMS(Cart)=  0.00000078 RMS(Int)=  0.00003708
 Variable       Old X    -DE/DX   Delta X   Delta X   Delta X     New X
                                 (Linear)    (Quad)   (Total)
    R1        3.67636   0.00030   0.00000   0.00139   0.00139   3.67776
    R2        3.69031  -0.00025   0.00000  -0.00118  -0.00118   3.68913
    R3        3.73798  -0.00014   0.00000  -0.00071  -0.00071   3.73727
    R4        3.71087   0.00648   0.00000   0.06688   0.06671   3.77758
    R5        5.89998   0.00997   0.00000   0.06732   0.06734   5.96733
    R6        3.13764  -0.00090   0.00000  -0.00218  -0.00218   3.13546
    R7        3.09653  -0.00150   0.00000  -0.00336  -0.00336   3.09317
    R8        3.10211  -0.00036   0.00000  -0.00081  -0.00081   3.10130
    R9        3.09249  -0.00199   0.00000   0.00921   0.00936   3.10185
   R10        3.11657   0.00018   0.00000   0.00041   0.00041   3.11697
   R11        3.11988  -0.00003   0.00000  -0.00007  -0.00007   3.11982
   R12        3.14342   0.00006   0.00000   0.00014   0.00014   3.14357
   R13        3.18077   0.00032   0.00000   0.00084   0.00084   3.18161
   R14        3.10982   0.00053   0.00000   0.00123   0.00123   3.11104
   R15        3.09230   0.00013   0.00000   0.00030   0.00030   3.09260
   R16        3.10032   0.00019   0.00000   0.00043   0.00043   3.10076
   R17        3.14606   0.00023   0.00000   0.00057   0.00057   3.14663
   R18        3.09896   0.00030   0.00000   0.00069   0.00069   3.09965
   R19        3.11858  -0.00109   0.00000  -0.00253  -0.00253   3.11605
[...]
               1          2          3          4          5          6
     1  Zr  16.923820  -0.212219  -0.042398  -0.206034   0.349119  -1.123868
     2  O   -0.212219   8.899763   0.015939  -0.082779  -0.047217   0.092248
     3  O   -0.042398   0.015939   8.929926  -0.002761  -0.029701   0.005307
     4  O   -0.206034  -0.082779  -0.002761   8.965413  -0.074000  -0.780812
     5  O    0.349119  -0.047217  -0.029701  -0.074000   8.919346  -0.007866
     6  Si  -1.123868   0.092248   0.005307  -0.780812  -0.007866  14.482686
     7  Si  -0.762008   0.008407  -0.886467  -0.037023  -0.023280   0.156101
     8  Si  -0.491417  -0.690246  -0.023517   0.079020  -0.011081   0.000495
     9  Si  -1.733624   0.022316   0.014944   0.056488  -0.631800   0.118197
    10  O   -0.101071   0.001409  -0.001895  -0.000080   0.085868   0.002300
    11  O   -0.112471  -0.003142   0.001990   0.001208   0.182683  -0.000848
    12  O   -0.267865   0.006571  -0.021694   0.013017   0.031039   0.001740
    13  O    0.070402   0.272216   0.000662  -0.019166   0.000610   0.012524
    14  O   -0.181075   0.257977  -0.023644  -0.012075  -0.001903   0.044751
    15  O   -0.120682   0.244220   0.000809   0.003452  -0.000381   0.007984
    16  O   -0.103939   0.006430  -0.000267   0.331190   0.002307  -0.428512
    17  O   -0.027386  -0.038856   0.007072   0.193979  -0.000205  -0.466687
    18  O   -0.083235  -0.023937   0.003102   0.243575  -0.000161  -0.493216
    19  O    0.031164   0.007730   0.283866   0.016024   0.002005  -0.006006
    20  O   -0.144930  -0.000962   0.139910  -0.000418   0.000549   0.013220
    21  O    0.064087   0.009818   0.133072   0.003880   0.000731  -0.020428
    22  H   -0.000851   0.000227   0.001177  -0.000026  -0.002721   0.000218
    23  H    0.012407  -0.000009   0.000050  -0.000016  -0.014920   0.000007
    24  H    0.006296  -0.000277   0.000015  -0.000027  -0.001097   0.000053
    25  H    0.017205  -0.021248  -0.000090  -0.001494  -0.000021  -0.000461
    26  H   -0.007586  -0.012335   0.000012  -0.000026   0.000005  -0.000076
    27  H    0.010181  -0.022236   0.001089  -0.000703   0.000023   0.011919
    28  H    0.005404  -0.000015  -0.016531  -0.000016  -0.000004  -0.000425
    29  H    0.007969  -0.004748  -0.017759  -0.000034   0.000008   0.000850
    30  H   -0.001794  -0.000007   0.000754  -0.000706  -0.000006  -0.001423
    31  H    0.001114   0.000309  -0.000024  -0.019268  -0.000026   0.066720
    32  H    0.003965  -0.000029   0.000039   0.013272   0.000004   0.014467
    33  H   -0.037742   0.000882  -0.010444  -0.006171  -0.000057   0.063289
               7          8          9         10         11         12
     1  Zr  -0.762008  -0.491417  -1.733624  -0.101071  -0.112471  -0.267865
     2  O    0.008407  -0.690246   0.022316   0.001409  -0.003142   0.006571
     3  O   -0.886467  -0.023517   0.014944  -0.001895   0.001990  -0.021694
     4  O   -0.037023   0.079020   0.056488  -0.000080   0.001208   0.013017
     5  O   -0.023280  -0.011081  -0.631800   0.085868   0.182683   0.031039
     6  Si   0.156101   0.000495   0.118197   0.002300  -0.000848   0.001740
     7  Si  13.891320   0.154311   0.054760   0.003916  -0.002388  -0.003497
     8  Si   0.154311  13.578196   0.060217  -0.001297   0.004602  -0.026855
     9  Si   0.054760   0.060217  14.096529   0.030114   0.022853  -0.281663
    10  O    0.003916  -0.001297   0.030114   8.709964  -0.192532   0.114233
    11  O   -0.002388   0.004602   0.022853  -0.192532   8.666812  -0.023198
    12  O   -0.003497  -0.026855  -0.281663   0.114233  -0.023198   9.190455
    13  O   -0.003324  -0.175707  -0.007651  -0.000008   0.000055  -0.000638
    14  O    0.056488  -0.452650   0.006858   0.000014  -0.000006   0.002411
    15  O    0.006010  -0.392137   0.003641   0.000026  -0.000151   0.004615
    16  O    0.005422  -0.012652  -0.002200   0.000009  -0.000011   0.000017
    17  O   -0.014297   0.094834   0.004781  -0.000002   0.000009  -0.000091
    18  O   -0.003994   0.090781   0.007447   0.000008  -0.000005   0.000084
    19  O   -0.493185  -0.016973   0.000468  -0.000041   0.000006  -0.000371
    20  O   -0.086834   0.009324   0.009465   0.000132  -0.000001   0.000227
    21  O    0.036790  -0.044790  -0.005417  -0.000045   0.000008  -0.001489
    22  H    0.001518   0.001372   0.039202  -0.001644  -0.000462   0.232984
    23  H   -0.000043   0.000021   0.037404   0.229116   0.001709   0.003655
    24  H    0.000009  -0.000134   0.033841   0.010797   0.221841  -0.006509
    25  H   -0.000343   0.057248  -0.000358  -0.000000   0.000000  -0.000007
    26  H    0.000529   0.067564  -0.001294  -0.000000   0.000003  -0.000103
    27  H   -0.000756   0.074589  -0.000095   0.000000  -0.000000   0.000007
    28  H    0.055046   0.000008  -0.000398  -0.000001  -0.000000  -0.000026
    29  H    0.039373   0.019307  -0.000051  -0.000000   0.000000   0.000053
    30  H    0.048163   0.000214  -0.000064  -0.000000   0.000000  -0.000002
    31  H    0.000074  -0.002931  -0.000173   0.000000  -0.000000   0.000000
    32  H   -0.000688   0.000313  -0.000005  -0.000000   0.000000  -0.000000
    33  H    0.025262   0.000926   0.000714  -0.000000  -0.000000   0.000011
              13         14         15         16         17         18
     1  Zr   0.070402  -0.181075  -0.120682  -0.103939  -0.027386  -0.083235
     2  O    0.272216   0.257977   0.244220   0.006430  -0.038856  -0.023937
     3  O    0.000662  -0.023644   0.000809  -0.000267   0.007072   0.003102
     4  O   -0.019166  -0.012075   0.003452   0.331190   0.193979   0.243575
     5  O    0.000610  -0.001903  -0.000381   0.002307  -0.000205  -0.000161
     6  Si   0.012524   0.044751   0.007984  -0.428512  -0.466687  -0.493216
     7  Si  -0.003324   0.056488   0.006010   0.005422  -0.014297  -0.003994
     8  Si  -0.175707  -0.452650  -0.392137  -0.012652   0.094834   0.090781
     9  Si  -0.007651   0.006858   0.003641  -0.002200   0.004781   0.007447
    10  O   -0.000008   0.000014   0.000026   0.000009  -0.000002   0.000008
    11  O    0.000055  -0.000006  -0.000151  -0.000011   0.000009  -0.000005
    12  O   -0.000638   0.002411   0.004615   0.000017  -0.000091   0.000084
    13  O    8.655525   0.018084  -0.133594   0.004303  -0.031120  -0.047663
    14  O    0.018084   8.846129   0.170936   0.002481  -0.034836  -0.025144
    15  O   -0.133594   0.170936   8.846522  -0.000185   0.004345   0.001762
    16  O    0.004303   0.002481  -0.000185   8.893907  -0.109326  -0.093325
    17  O   -0.031120  -0.034836   0.004345  -0.109326   8.917569   0.234203
    18  O   -0.047663  -0.025144   0.001762  -0.093325   0.234203   9.035982
    19  O    0.000169  -0.002608   0.000361  -0.000294  -0.028550  -0.000372
    20  O   -0.000000  -0.000976   0.000003   0.000044  -0.001126   0.000020
    21  O   -0.000539   0.023571   0.000467  -0.000173  -0.005904   0.000372
    22  H   -0.000001   0.000028   0.000004  -0.000000   0.000000  -0.000000
    23  H    0.000000  -0.000000  -0.000000  -0.000000   0.000000  -0.000000
    24  H   -0.000001   0.000000   0.000001   0.000000  -0.000000  -0.000000
    25  H    0.219301  -0.009488   0.007187  -0.000257   0.000714   0.015476
    26  H   -0.006299   0.000775   0.222801   0.000000  -0.000025   0.000005
    27  H   -0.003887   0.207505   0.000045   0.000408   0.017908  -0.000799
    28  H    0.000000  -0.000011  -0.000001  -0.000000   0.000003   0.000000
    29  H    0.000810   0.013393  -0.001377  -0.000005  -0.000517   0.000003
    30  H    0.000001   0.000047   0.000001   0.000077  -0.000869  -0.000007
    31  H    0.002525   0.000093  -0.000022   0.004570  -0.001376   0.215026
    32  H   -0.000007  -0.000006   0.000000   0.237201  -0.003117   0.003957
    33  H    0.000226   0.002814  -0.000052   0.000637   0.234384   0.002395
              19         20         21         22         23         24
     1  Zr   0.031164  -0.144930   0.064087  -0.000851   0.012407   0.006296
     2  O    0.007730  -0.000962   0.009818   0.000227  -0.000009  -0.000277
     3  O    0.283866   0.139910   0.133072   0.001177   0.000050   0.000015
     4  O    0.016024  -0.000418   0.003880  -0.000026  -0.000016  -0.000027
     5  O    0.002005   0.000549   0.000731  -0.002721  -0.014920  -0.001097
     6  Si  -0.006006   0.013220  -0.020428   0.000218   0.000007   0.000053
     7  Si  -0.493185  -0.086834   0.036790   0.001518  -0.000043   0.000009
     8  Si  -0.016973   0.009324  -0.044790   0.001372   0.000021  -0.000134
     9  Si   0.000468   0.009465  -0.005417   0.039202   0.037404   0.033841
    10  O   -0.000041   0.000132  -0.000045  -0.001644   0.229116   0.010797
    11  O    0.000006  -0.000001   0.000008  -0.000462   0.001709   0.221841
    12  O   -0.000371   0.000227  -0.001489   0.232984   0.003655  -0.006509
    13  O    0.000169  -0.000000  -0.000539  -0.000001   0.000000  -0.000001
    14  O   -0.002608  -0.000976   0.023571   0.000028  -0.000000   0.000000
    15  O    0.000361   0.000003   0.000467   0.000004  -0.000000   0.000001
    16  O   -0.000294   0.000044  -0.000173  -0.000000  -0.000000   0.000000
    17  O   -0.028550  -0.001126  -0.005904   0.000000   0.000000  -0.000000
    18  O   -0.000372   0.000020   0.000372  -0.000000  -0.000000  -0.000000
    19  O    8.928363   0.020378   0.021332  -0.000001   0.000000  -0.000000
    20  O    0.020378   8.663730  -0.049649   0.000003  -0.000000  -0.000000
    21  O    0.021332  -0.049649   8.478626  -0.000050  -0.000000   0.000000
    22  H   -0.000001   0.000003  -0.000050   0.316916  -0.000040  -0.000004
    23  H    0.000000  -0.000000  -0.000000  -0.000040   0.350591   0.000005
    24  H   -0.000000  -0.000000   0.000000  -0.000004   0.000005   0.362942
    25  H   -0.000026   0.000000  -0.000006   0.000000   0.000000  -0.000000
    26  H    0.000000  -0.000000   0.000054  -0.000000  -0.000000  -0.000000
    27  H   -0.000425   0.000245  -0.004615  -0.000000   0.000000   0.000000
    28  H    0.003549   0.225892  -0.000519   0.000000   0.000000  -0.000000
    29  H   -0.007507   0.008132   0.210455  -0.000001   0.000000  -0.000000
    30  H    0.217873  -0.001047  -0.007714   0.000000   0.000000  -0.000000
    31  H    0.000004  -0.000000  -0.000000  -0.000000   0.000000   0.000000
    32  H    0.000069   0.000000   0.000001   0.000000  -0.000000  -0.000000
    33  H    0.013271   0.000143   0.001309  -0.000000  -0.000000   0.000000
              25         26         27         28         29         30
     1  Zr   0.017205  -0.007586   0.010181   0.005404   0.007969  -0.001794
     2  O   -0.021248  -0.012335  -0.022236  -0.000015  -0.004748  -0.000007
     3  O   -0.000090   0.000012   0.001089  -0.016531  -0.017759   0.000754
     4  O   -0.001494  -0.000026  -0.000703  -0.000016  -0.000034  -0.000706
     5  O   -0.000021   0.000005   0.000023  -0.000004   0.000008  -0.000006
     6  Si  -0.000461  -0.000076   0.011919  -0.000425   0.000850  -0.001423
     7  Si  -0.000343   0.000529  -0.000756   0.055046   0.039373   0.048163
     8  Si   0.057248   0.067564   0.074589   0.000008   0.019307   0.000214
     9  Si  -0.000358  -0.001294  -0.000095  -0.000398  -0.000051  -0.000064
    10  O   -0.000000  -0.000000   0.000000  -0.000001  -0.000000  -0.000000
    11  O    0.000000   0.000003  -0.000000  -0.000000   0.000000   0.000000
    12  O   -0.000007  -0.000103   0.000007  -0.000026   0.000053  -0.000002
    13  O    0.219301  -0.006299  -0.003887   0.000000   0.000810   0.000001
    14  O   -0.009488   0.000775   0.207505  -0.000011   0.013393   0.000047
    15  O    0.007187   0.222801   0.000045  -0.000001  -0.001377   0.000001
    16  O   -0.000257   0.000000   0.000408  -0.000000  -0.000005   0.000077
    17  O    0.000714  -0.000025   0.017908   0.000003  -0.000517  -0.000869
    18  O    0.015476   0.000005  -0.000799   0.000000   0.000003  -0.000007
    19  O   -0.000026   0.000000  -0.000425   0.003549  -0.007507   0.217873
    20  O    0.000000  -0.000000   0.000245   0.225892   0.008132  -0.001047
    21  O   -0.000006   0.000054  -0.004615  -0.000519   0.210455  -0.007714
    22  H    0.000000  -0.000000  -0.000000   0.000000  -0.000001   0.000000
    23  H    0.000000  -0.000000   0.000000   0.000000   0.000000   0.000000
    24  H   -0.000000  -0.000000   0.000000  -0.000000  -0.000000  -0.000000
    25  H    0.301763  -0.000028   0.000036  -0.000000   0.000000   0.000000
    26  H   -0.000028   0.371292  -0.000033   0.000000   0.000017  -0.000000
    27  H    0.000036  -0.000033   0.282269  -0.000000  -0.000987   0.000000
    28  H   -0.000000   0.000000  -0.000000   0.352310  -0.000013   0.000007
    29  H    0.000000   0.000017  -0.000987  -0.000013   0.284780   0.000174
    30  H    0.000000  -0.000000   0.000000   0.000007   0.000174   0.337504
    31  H   -0.000313   0.000000   0.000014   0.000000   0.000000  -0.000000
    32  H   -0.000001  -0.000000  -0.000000  -0.000000  -0.000000  -0.000000
    33  H    0.000006   0.000000  -0.002649  -0.000002   0.000111  -0.000857
              31         32         33
     1  Zr   0.001114   0.003965  -0.037742
     2  O    0.000309  -0.000029   0.000882
     3  O   -0.000024   0.000039  -0.010444
     4  O   -0.019268   0.013272  -0.006171
     5  O   -0.000026   0.000004  -0.000057
     6  Si   0.066720   0.014467   0.063289
     7  Si   0.000074  -0.000688   0.025262
     8  Si  -0.002931   0.000313   0.000926
     9  Si  -0.000173  -0.000005   0.000714
    10  O    0.000000  -0.000000  -0.000000
    11  O   -0.000000   0.000000  -0.000000
    12  O    0.000000  -0.000000   0.000011
    13  O    0.002525  -0.000007   0.000226
    14  O    0.000093  -0.000006   0.002814
    15  O   -0.000022   0.000000  -0.000052
    16  O    0.004570   0.237201   0.000637
    17  O   -0.001376  -0.003117   0.234384
    18  O    0.215026   0.003957   0.002395
    19  O    0.000004   0.000069   0.013271
    20  O   -0.000000   0.000000   0.000143
    21  O   -0.000000   0.000001   0.001309
    22  H   -0.000000   0.000000  -0.000000
    23  H    0.000000  -0.000000  -0.000000
    24  H    0.000000  -0.000000   0.000000
    25  H   -0.000313  -0.000001   0.000006
    26  H    0.000000  -0.000000   0.000000
    27  H    0.000014  -0.000000  -0.002649
    28  H    0.000000  -0.000000  -0.000002
    29  H    0.000000  -0.000000   0.000111
    30  H   -0.000000  -0.000000  -0.000857
    31  H    0.329895  -0.000012  -0.000035
    32  H   -0.000012   0.348993   0.000144
    33  H   -0.000035   0.000144   0.270453
 Mulliken charges:
               1
     1  Zr   0.259062
     2  O   -0.686202
     3  O   -0.462545
     4  O   -0.676885
     5  O   -0.727849
     6  Si   2.235551
     7  Si   1.774628
     8  Si   2.049049
     9  Si   2.044552
    10  O   -0.889291
    11  O   -0.768564
    12  O   -0.967110
    13  O   -0.827808
    14  O   -0.909935
    15  O   -0.876610
    16  O   -0.737856
    17  O   -0.945515
    18  O   -1.082341
    19  O   -0.990274
    20  O   -0.805475
    21  O   -0.843236
    22  H    0.412150
    23  H    0.380061
    24  H    0.372248
    25  H    0.415203
    26  H    0.364749
    27  H    0.430948
    28  H    0.375741
    29  H    0.447564
    30  H    0.409681
    31  H    0.403838
    32  H    0.381440
    33  H    0.441032
 Sum of Mulliken charges =  -0.00000
 Mulliken charges with hydrogens summed into heavy atoms:
               1
     1  Zr   0.259062
     2  O   -0.686202
     3  O   -0.462545
     4  O   -0.676885
     5  O   -0.727849
     6  Si   2.235551
     7  Si   1.774628
     8  Si   2.049049
     9  Si   2.044552
    10  O   -0.509231
    11  O   -0.396316
    12  O   -0.554960
    13  O   -0.412604
    14  O   -0.478987
    15  O   -0.511860
    16  O   -0.356417
    17  O   -0.504483
    18  O   -0.678503
    19  O   -0.580593
    20  O   -0.429734
    21  O   -0.395672
 Electronic spatial extent (au):  <R**2>=           9107.2272
 Charge=              0.0000 electrons
 Dipole moment (field-independent basis, Debye):
    X=              3.7041    Y=             -0.7636    Z=             -2.7197  Tot=              4.6583
 Quadrupole moment (field-independent basis, Debye-Ang):
   XX=           -159.4242   YY=           -151.3575   ZZ=           -163.0773
   XY=             -6.6075   XZ=             13.1165   YZ=              5.0885
 Traceless Quadrupole moment (field-independent basis, Debye-Ang):
   XX=             -1.4712   YY=              6.5955   ZZ=             -5.1243
   XY=             -6.6075   XZ=             13.1165   YZ=              5.0885
 Octapole moment (field-independent basis, Debye-Ang**2):
  XXX=            104.3393  YYY=            -11.4722  ZZZ=            -59.1052  XYY=             -5.2510
  XXY=             20.1333  XXZ=            -26.4002  XZZ=             52.6341  YZZ=            -14.3908
  YYZ=              2.4718  XYZ=             -1.2639
 Hexadecapole moment (field-independent basis, Debye-Ang**3):
 XXXX=          -5297.9922 YYYY=          -2811.6222 ZZZZ=          -2298.4465 XXXY=             -1.2648
 XXXZ=           -167.0658 YYYX=            -98.3401 YYYZ=            176.6668 ZZZX=            129.6379
 ZZZY=            -76.5283 XXYY=          -1314.5312 XXZZ=          -1352.8986 YYZZ=           -871.0681
 XXYZ=             56.6077 YYXZ=            181.0650 ZZXY=             -9.7328
 N-N= 2.893676174426D+03 E-N=-1.150011691102D+04  KE= 2.373157400233D+03
 1\1\GINC-GRA1102\FOpt\RB3LYP\Gen\H12O16Si4Zr1\SARASHS\02-Aug-2020\0\\#
 n B3LYP/Gen Pseudo=cards EmpiricalDispersion=GD3 Opt=modredundant\\Tit
 le\\0,1\Zr,0.6790682937,0.0237562472,-0.2049375386\O,-0.0765075179,-0.
 8011733887,1.3900917043\O,0.0523442444,1.8775125404,-0.302860809\O,-0.
 3815174299,-0.8571875124,-1.6153179292\O,2.6025757318,-0.3708677045,-0
 .5708412311\Si,-1.9444663814,-1.2985539624,-1.8386199819\Si,-1.1837814
 681,2.9414493511,-0.1948432503\Si,-1.5245622461,-0.9845341605,2.175099
 692\Si,3.763499675,0.3092221457,0.3494412723\O,4.6795610797,1.48941608
 33,-0.3349312701\O,4.8176493094,-0.7907242612,0.9816451767\O,2.7295571
 576,1.0281732294,1.455772917\O,-2.1216099122,-2.4841939258,1.877619180
 4\O,-2.5547900096,0.2154199951,1.6534817944\O,-1.36484418,-0.722515864
 3,3.7877858762\O,-2.2276020906,-1.5960565374,-3.4368536764\O,-2.943171
 4579,-0.174616205,-1.1569344349\O,-2.3192901979,-2.680748923,-0.991368
 0486\O,-2.2272311228,2.4617528011,-1.4255805674\O,-0.7611456649,4.5009
 461916,-0.5189586579\O,-1.8947512677,2.9207437227,1.2808246396\H,2.989
 8374303,1.8029056995,1.9650978979\H,5.5777290099,1.2490412705,-0.58891
 67784\H,4.470961724,-1.6674363548,1.1825361578\H,-2.2056306596,-2.7352
 991171,0.9402288203\H,-0.7101753112,-1.2518438968,4.2546699129\H,-2.98
 34136317,0.0184709238,0.7985916358\H,-0.6817680763,5.0790614099,0.2482
 950808\H,-2.1596766406,2.0394221452,1.6173544355\H,-2.8798857106,3.122
 7527377,-1.6882111279\H,-2.3577022895,-3.4951828297,-1.5052422646\H,-1
 .5534587342,-1.2915638419,-4.0544213767\H,-2.7634916553,0.7657819913,-
 1.3832772511\\Version=ES64L-G16RevB.01\State=1-A\HF=-2416.9468651\RMSD
 =3.790e-09\RMSF=9.327e-04\Dipole=1.6278878,-0.2117434,-0.8148698\Quadr
 upole=-2.4524441,4.5117701,-2.0593259,-4.908134,10.1110819,3.4338148\P
 G=C01 [X(H12O16Si4Zr1)]\\@


     ON THE SURVIVAL OF THE FITTEST -
 "STRONG REPRESENTATIVES FROM EACH PAST ERA THRIVE TODAY,
 SUCH AS PROGRAMMING IN THE THIRTY YEAR OLD LANGUAGE KNOWN
 AS FORTRAN, AND EVEN IN THE ANCIENT SCRIPT KNOWN AS DIRECT
 MACHINE CODE. SOME PEOPLE MIGHT LOOK ON SUCH RELICS AS LIVING
 FOSSILS; OTHERS WOULD POINT OUT THAT EVEN A VERY OLD SPECIES
 MIGHT STILL BE FILLING A PARTICULAR ECOLOGICAL NICHE."
     -- ALAN KAY, SCI.AM. SEPTEMBER 1984
 Job cpu time:       1 days  3 hours 32 minutes 19.5 seconds.
 Elapsed time:       0 days  2 hours  2 minutes 58.8 seconds.
 File lengths (MBytes):  RWF=    167 Int=      0 D2E=      0 Chk=     21 Scr=      1
 Normal termination of Gaussian 16 at Sun Aug  2 09:08:29 2020.
