 Entering Gaussian System, Link 0=g16
 Initial command:
 /opt/software/gaussian/g16.b01/l1.exe "/localscratch/sarashs.36760141.0/Gau-166315.inp" -scrdir="/localscratch/sarashs.36760141.0/"
 Entering Link 1 = /opt/software/gaussian/g16.b01/l1.exe PID=    166316.
  
 Copyright (c) 1988-2017, Gaussian, Inc.  All Rights Reserved.
  
 This is part of the Gaussian(R) 16 program.  It is based on
 the Gaussian(R) 09 system (copyright 2009, Gaussian, Inc.),
 the Gaussian(R) 03 system (copyright 2003, Gaussian, Inc.),
 the Gaussian(R) 98 system (copyright 1998, Gaussian, Inc.),
 the Gaussian(R) 94 system (copyright 1995, Gaussian, Inc.),
 the Gaussian 92(TM) system (copyright 1992, Gaussian, Inc.),
 the Gaussian 90(TM) system (copyright 1990, Gaussian, Inc.),
 the Gaussian 88(TM) system (copyright 1988, Gaussian, Inc.),
 the Gaussian 86(TM) system (copyright 1986, Carnegie Mellon
 University), and the Gaussian 82(TM) system (copyright 1983,
 Carnegie Mellon University). Gaussian is a federally registered
 trademark of Gaussian, Inc.
  
 This software contains proprietary and confidential information,
 including trade secrets, belonging to Gaussian, Inc.
  
 This software is provided under written license and may be
 used, copied, transmitted, or stored only in accord with that
 written license.
  
 The following legend is applicable only to US Government
 contracts under FAR:
  
                    RESTRICTED RIGHTS LEGEND
  
 Use, reproduction and disclosure by the US Government is
 subject to restrictions as set forth in subparagraphs (a)
 and (c) of the Commercial Computer Software - Restricted
 Rights clause in FAR 52.227-19.
  
 Gaussian, Inc.
 340 Quinnipiac St., Bldg. 40, Wallingford CT 06492
  
  
 ---------------------------------------------------------------
 Warning -- This program may not be used in any manner that
 competes with the business of Gaussian, Inc. or will provide
 assistance to any competitor of Gaussian, Inc.  The licensee
 of this program is prohibited from giving any competitor of
 Gaussian, Inc. access to this program.  By using this program,
 the user acknowledges that Gaussian, Inc. is engaged in the
 business of creating and licensing software in the field of
 computational chemistry and represents and warrants to the
 licensee that it is not a competitor of Gaussian, Inc. and that
 it will not use this program in any manner prohibited above.
 ---------------------------------------------------------------
  

 Cite this work as:
 Gaussian 16, Revision B.01,
 M. J. Frisch, G. W. Trucks, H. B. Schlegel, G. E. Scuseria, 
 M. A. Robb, J. R. Cheeseman, G. Scalmani, V. Barone, 
 G. A. Petersson, H. Nakatsuji, X. Li, M. Caricato, A. V. Marenich, 
 J. Bloino, B. G. Janesko, R. Gomperts, B. Mennucci, H. P. Hratchian, 
 J. V. Ortiz, A. F. Izmaylov, J. L. Sonnenberg, D. Williams-Young, 
 F. Ding, F. Lipparini, F. Egidi, J. Goings, B. Peng, A. Petrone, 
 T. Henderson, D. Ranasinghe, V. G. Zakrzewski, J. Gao, N. Rega, 
 G. Zheng, W. Liang, M. Hada, M. Ehara, K. Toyota, R. Fukuda, 
 J. Hasegawa, M. Ishida, T. Nakajima, Y. Honda, O. Kitao, H. Nakai, 
 T. Vreven, K. Throssell, J. A. Montgomery, Jr., J. E. Peralta, 
 F. Ogliaro, M. J. Bearpark, J. J. Heyd, E. N. Brothers, K. N. Kudin, 
 V. N. Staroverov, T. A. Keith, R. Kobayashi, J. Normand, 
 K. Raghavachari, A. P. Rendell, J. C. Burant, S. S. Iyengar, 
 J. Tomasi, M. Cossi, J. M. Millam, M. Klene, C. Adamo, R. Cammi, 
 J. W. Ochterski, R. L. Martin, K. Morokuma, O. Farkas, 
 J. B. Foresman, and D. J. Fox, Gaussian, Inc., Wallingford CT, 2016.
 
 ******************************************
 Gaussian 16:  ES64L-G16RevB.01 20-Dec-2017
                 2-Aug-2020 
 ******************************************
 %NProcShared=16
 Will use up to   16 processors via shared memory.
 ------------------------------------------------------------------
 #n B3LYP/Gen Pseudo=cards EmpiricalDispersion=GD3 Opt=modredundant
 ------------------------------------------------------------------
 1/18=120,19=15,26=3,38=1/1,3;
 2/9=110,12=2,17=6,18=5,40=1/2;
 3/5=7,11=2,16=1,17=8,25=1,30=1,71=1,74=-5,124=31/1,2,3;
 4//1;
 5/5=2,38=5/2;
 6/7=2,8=2,9=2,10=2,28=1/1;
 7//1,2,3,16;
 1/18=20,19=15,26=3/3(2);
 2/9=110/2;
 99//99;
 2/9=110/2;
 3/5=7,6=1,11=2,16=1,17=8,25=1,30=1,71=1,74=-5,82=7,124=31/1,2,3;
 4/5=5,16=3,69=1/1;
 5/5=2,38=5/2;
 7//1,2,3,16;
 1/18=20,19=15,26=3/3(-5);
 2/9=110/2;
 6/7=2,8=2,9=2,10=2,19=2,28=1/1;
 99/9=1/99;
 -----
 Title
 -----
 Symbolic Z-matrix:
 Charge =  0 Multiplicity = 1
 Zr                    0.64646  -0.19013  -0.1519 
 O                    -0.19212  -0.93131   1.43939 
 O                     0.17263   1.70395  -0.1904 
 O                    -0.37772  -1.01692  -1.62844 
 O                     2.5678   -0.57883  -0.26812 
 Si                   -1.96924  -1.33216  -1.87829 
 Si                   -0.98958   2.85681  -0.11809 
 Si                   -1.67476  -1.05152   2.17706 
 Si                    4.19735  -0.51126  -0.13386 
 O                     4.9501    0.20799  -1.41428 
 O                     4.83028  -2.04101  -0.05652 
 O                     4.47127   0.40847   1.20996 
 O                    -2.33574  -2.51245   1.83004 
 O                    -2.6209    0.20928   1.64149 
 O                    -1.552    -0.82432   3.7965 
 O                    -2.25427  -1.59164  -3.48183 
 O                    -2.88371  -0.13912  -1.19557 
 O                    -2.46027  -2.68598  -1.04579 
 O                    -2.00825   2.45605  -1.3967 
 O                    -0.44623   4.38142  -0.41555 
 O                    -1.75835   2.86715   1.32642 
 H                     5.3659    0.74442   1.33405 
 H                     5.26579  -0.38385  -2.10646 
 H                     4.36715  -2.68344   0.49214 
 H                    -2.40738  -2.74575   0.88712 
 H                    -0.93391  -1.38513   4.27638 
 H                    -3.02928   0.04705   0.77024 
 H                    -0.29029   4.93346   0.35924 
 H                    -2.09489   2.00321   1.64266 
 H                    -2.6086    3.15807  -1.6773 
 H                    -2.56602  -3.49143  -1.56436 
 H                    -1.55278  -1.33714  -4.09141 
 H                    -2.64046   0.78995  -1.40829 
 
 The following ModRedundant input section has been read:
 A       1       5       9 F                                                   
 

 GradGradGradGradGradGradGradGradGradGradGradGradGradGradGradGradGradGrad
 Berny optimization.
 Initialization pass.
                           ----------------------------
                           !    Initial Parameters    !
                           ! (Angstroms and Degrees)  !
 --------------------------                            --------------------------
 ! Name  Definition              Value          Derivative Info.                !
 --------------------------------------------------------------------------------
 ! R1    R(1,2)                  1.9454         estimate D2E/DX2                !
 ! R2    R(1,3)                  1.9528         estimate D2E/DX2                !
 ! R3    R(1,4)                  1.9781         estimate D2E/DX2                !
 ! R4    R(1,5)                  1.9637         estimate D2E/DX2                !
 ! R5    R(2,8)                  1.6604         estimate D2E/DX2                !
 ! R6    R(3,7)                  1.6386         estimate D2E/DX2                !
 ! R7    R(4,6)                  1.6416         estimate D2E/DX2                !
 ! R8    R(5,9)                  1.6365         estimate D2E/DX2                !
 ! R9    R(6,16)                 1.6492         estimate D2E/DX2                !
 ! R10   R(6,17)                 1.651          estimate D2E/DX2                !
 ! R11   R(6,18)                 1.6634         estimate D2E/DX2                !
 ! R12   R(7,19)                 1.6832         estimate D2E/DX2                !
 ! R13   R(7,20)                 1.6456         estimate D2E/DX2                !
 ! R14   R(7,21)                 1.6364         estimate D2E/DX2                !
 ! R15   R(8,13)                 1.6406         estimate D2E/DX2                !
 ! R16   R(8,14)                 1.6648         estimate D2E/DX2                !
 ! R17   R(8,15)                 1.6399         estimate D2E/DX2                !
 ! R18   R(9,10)                 1.6503         estimate D2E/DX2                !
 ! R19   R(9,11)                 1.6573         estimate D2E/DX2                !
 ! R20   R(9,12)                 1.6513         estimate D2E/DX2                !
 ! R21   R(10,23)                0.9639         estimate D2E/DX2                !
 ! R22   R(11,24)                0.9634         estimate D2E/DX2                !
 ! R23   R(12,22)                0.9637         estimate D2E/DX2                !
 ! R24   R(13,25)                0.974          estimate D2E/DX2                !
 ! R25   R(14,27)                0.9758         estimate D2E/DX2                !
 ! R26   R(15,26)                0.9627         estimate D2E/DX2                !
 ! R27   R(16,32)                0.9636         estimate D2E/DX2                !
 ! R28   R(17,33)                0.9837         estimate D2E/DX2                !
 ! R29   R(18,31)                0.9638         estimate D2E/DX2                !
 ! R30   R(19,30)                0.9654         estimate D2E/DX2                !
 ! R31   R(20,28)                0.964          estimate D2E/DX2                !
 ! R32   R(21,29)                0.9796         estimate D2E/DX2                !
 ! A1    A(2,1,3)              106.3234         estimate D2E/DX2                !
 ! A2    A(2,1,4)              103.1879         estimate D2E/DX2                !
 ! A3    A(2,1,5)              113.2501         estimate D2E/DX2                !
 ! A4    A(3,1,4)              105.3705         estimate D2E/DX2                !
 ! A5    A(3,1,5)              115.3549         estimate D2E/DX2                !
 ! A6    A(4,1,5)              112.3142         estimate D2E/DX2                !
 ! A7    A(1,2,8)              140.8859         estimate D2E/DX2                !
 ! A8    A(1,3,7)              148.6074         estimate D2E/DX2                !
 ! A9    A(1,4,6)              134.0964         estimate D2E/DX2                !
 ! A10   A(1,5,9)              163.9999         Frozen                          !
 ! A11   A(4,6,16)             110.2282         estimate D2E/DX2                !
 ! A12   A(4,6,17)             109.5909         estimate D2E/DX2                !
 ! A13   A(4,6,18)             111.4884         estimate D2E/DX2                !
 ! A14   A(16,6,17)            114.8371         estimate D2E/DX2                !
 ! A15   A(16,6,18)            107.9112         estimate D2E/DX2                !
 ! A16   A(17,6,18)            102.5719         estimate D2E/DX2                !
 ! A17   A(3,7,19)             103.1918         estimate D2E/DX2                !
 ! A18   A(3,7,20)             114.1832         estimate D2E/DX2                !
 ! A19   A(3,7,21)             112.1241         estimate D2E/DX2                !
 ! A20   A(19,7,20)            106.4451         estimate D2E/DX2                !
 ! A21   A(19,7,21)            112.8144         estimate D2E/DX2                !
 ! A22   A(20,7,21)            107.9884         estimate D2E/DX2                !
 ! A23   A(2,8,13)             109.2843         estimate D2E/DX2                !
 ! A24   A(2,8,14)             108.0427         estimate D2E/DX2                !
 ! A25   A(2,8,15)             111.2146         estimate D2E/DX2                !
 ! A26   A(13,8,14)            112.1704         estimate D2E/DX2                !
 ! A27   A(13,8,15)            111.2482         estimate D2E/DX2                !
 ! A28   A(14,8,15)            104.7916         estimate D2E/DX2                !
 ! A29   A(5,9,10)             114.1136         estimate D2E/DX2                !
 ! A30   A(5,9,11)             110.243          estimate D2E/DX2                !
 ! A31   A(5,9,12)             104.7703         estimate D2E/DX2                !
 ! A32   A(10,9,11)            105.3251         estimate D2E/DX2                !
 ! A33   A(10,9,12)            108.2398         estimate D2E/DX2                !
 ! A34   A(11,9,12)            114.3792         estimate D2E/DX2                !
 ! A35   A(9,10,23)            116.0376         estimate D2E/DX2                !
 ! A36   A(9,11,24)            117.2885         estimate D2E/DX2                !
 ! A37   A(9,12,22)            116.9342         estimate D2E/DX2                !
 ! A38   A(8,13,25)            116.5961         estimate D2E/DX2                !
 ! A39   A(8,14,27)            113.5263         estimate D2E/DX2                !
 ! A40   A(8,15,26)            117.3612         estimate D2E/DX2                !
 ! A41   A(6,16,32)            116.5984         estimate D2E/DX2                !
 ! A42   A(6,17,33)            117.1373         estimate D2E/DX2                !
 ! A43   A(6,18,31)            116.3135         estimate D2E/DX2                !
 ! A44   A(7,19,30)            115.0881         estimate D2E/DX2                !
 ! A45   A(7,20,28)            116.018          estimate D2E/DX2                !
 ! A46   A(7,21,29)            116.1544         estimate D2E/DX2                !
 ! D1    D(3,1,2,8)             54.013          estimate D2E/DX2                !
 ! D2    D(4,1,2,8)            -56.615          estimate D2E/DX2                !
 ! D3    D(5,1,2,8)           -178.2908         estimate D2E/DX2                !
 ! D4    D(2,1,3,7)            -51.1331         estimate D2E/DX2                !
 ! D5    D(4,1,3,7)             57.9568         estimate D2E/DX2                !
 ! D6    D(5,1,3,7)           -177.5709         estimate D2E/DX2                !
 ! D7    D(2,1,4,6)             41.2968         estimate D2E/DX2                !
 ! D8    D(3,1,4,6)            -70.0365         estimate D2E/DX2                !
 ! D9    D(5,1,4,6)            163.602          estimate D2E/DX2                !
 ! D10   D(2,1,5,9)            -89.6371         estimate D2E/DX2                !
 ! D11   D(3,1,5,9)             33.1896         estimate D2E/DX2                !
 ! D12   D(4,1,5,9)            153.9562         estimate D2E/DX2                !
 ! D13   D(1,2,8,13)            98.0767         estimate D2E/DX2                !
 ! D14   D(1,2,8,14)           -24.2296         estimate D2E/DX2                !
 ! D15   D(1,2,8,15)          -138.7156         estimate D2E/DX2                !
 ! D16   D(1,3,7,19)           -58.6416         estimate D2E/DX2                !
 ! D17   D(1,3,7,20)          -173.7291         estimate D2E/DX2                !
 ! D18   D(1,3,7,21)            63.0404         estimate D2E/DX2                !
 ! D19   D(1,4,6,16)           161.8736         estimate D2E/DX2                !
 ! D20   D(1,4,6,17)            34.551          estimate D2E/DX2                !
 ! D21   D(1,4,6,18)           -78.3045         estimate D2E/DX2                !
 ! D22   D(1,5,9,10)           -93.0127         estimate D2E/DX2                !
 ! D23   D(1,5,9,11)           148.7128         estimate D2E/DX2                !
 ! D24   D(1,5,9,12)            25.1938         estimate D2E/DX2                !
 ! D25   D(4,6,16,32)          -13.7229         estimate D2E/DX2                !
 ! D26   D(17,6,16,32)         110.6319         estimate D2E/DX2                !
 ! D27   D(18,6,16,32)        -135.686          estimate D2E/DX2                !
 ! D28   D(4,6,17,33)           49.7998         estimate D2E/DX2                !
 ! D29   D(16,6,17,33)         -74.8906         estimate D2E/DX2                !
 ! D30   D(18,6,17,33)         168.3378         estimate D2E/DX2                !
 ! D31   D(4,6,18,31)         -102.9126         estimate D2E/DX2                !
 ! D32   D(16,6,18,31)          18.2691         estimate D2E/DX2                !
 ! D33   D(17,6,18,31)         139.8941         estimate D2E/DX2                !
 ! D34   D(3,7,19,30)         -162.9704         estimate D2E/DX2                !
 ! D35   D(20,7,19,30)         -42.4468         estimate D2E/DX2                !
 ! D36   D(21,7,19,30)          75.8144         estimate D2E/DX2                !
 ! D37   D(3,7,20,28)         -100.1112         estimate D2E/DX2                !
 ! D38   D(19,7,20,28)         146.7232         estimate D2E/DX2                !
 ! D39   D(21,7,20,28)          25.3303         estimate D2E/DX2                !
 ! D40   D(3,7,21,29)          -50.5298         estimate D2E/DX2                !
 ! D41   D(19,7,21,29)          65.4642         estimate D2E/DX2                !
 ! D42   D(20,7,21,29)        -177.1813         estimate D2E/DX2                !
 ! D43   D(2,8,13,25)          -54.0971         estimate D2E/DX2                !
 ! D44   D(14,8,13,25)          65.6987         estimate D2E/DX2                !
 ! D45   D(15,8,13,25)        -177.2849         estimate D2E/DX2                !
 ! D46   D(2,8,14,27)           81.1206         estimate D2E/DX2                !
 ! D47   D(13,8,14,27)         -39.3971         estimate D2E/DX2                !
 ! D48   D(15,8,14,27)        -160.2179         estimate D2E/DX2                !
 ! D49   D(2,8,15,26)          -54.9076         estimate D2E/DX2                !
 ! D50   D(13,8,15,26)          67.168          estimate D2E/DX2                !
 ! D51   D(14,8,15,26)        -171.403          estimate D2E/DX2                !
 ! D52   D(5,9,10,23)          -94.3731         estimate D2E/DX2                !
 ! D53   D(11,9,10,23)          26.6725         estimate D2E/DX2                !
 ! D54   D(12,9,10,23)         149.4206         estimate D2E/DX2                !
 ! D55   D(5,9,11,24)          -42.1574         estimate D2E/DX2                !
 ! D56   D(10,9,11,24)        -165.7001         estimate D2E/DX2                !
 ! D57   D(12,9,11,24)          75.5821         estimate D2E/DX2                !
 ! D58   D(5,9,12,22)         -165.3208         estimate D2E/DX2                !
 ! D59   D(10,9,12,22)         -43.1971         estimate D2E/DX2                !
 ! D60   D(11,9,12,22)          73.8594         estimate D2E/DX2                !
 --------------------------------------------------------------------------------
 Trust Radius=3.00D-01 FncErr=1.00D-07 GrdErr=1.00D-06 EigMax=2.50D+02 EigMin=1.00D-04
 Number of steps in this run=    148 maximum allowed number of steps=    198.
 GradGradGradGradGradGradGradGradGradGradGradGradGradGradGradGradGradGrad

                          Input orientation:                          
 ---------------------------------------------------------------------
 Center     Atomic      Atomic             Coordinates (Angstroms)
 Number     Number       Type             X           Y           Z
 ---------------------------------------------------------------------
      1         40           0        0.646460   -0.190130   -0.151900
      2          8           0       -0.192120   -0.931310    1.439390
      3          8           0        0.172630    1.703950   -0.190400
      4          8           0       -0.377720   -1.016920   -1.628440
      5          8           0        2.567800   -0.578830   -0.268120
      6         14           0       -1.969240   -1.332160   -1.878290
      7         14           0       -0.989580    2.856810   -0.118090
      8         14           0       -1.674760   -1.051520    2.177060
      9         14           0        4.197350   -0.511260   -0.133860
     10          8           0        4.950100    0.207990   -1.414280
     11          8           0        4.830280   -2.041010   -0.056520
     12          8           0        4.471270    0.408470    1.209960
     13          8           0       -2.335740   -2.512450    1.830040
     14          8           0       -2.620900    0.209280    1.641490
     15          8           0       -1.552000   -0.824320    3.796500
     16          8           0       -2.254270   -1.591640   -3.481830
     17          8           0       -2.883710   -0.139120   -1.195570
     18          8           0       -2.460270   -2.685980   -1.045790
     19          8           0       -2.008250    2.456050   -1.396700
     20          8           0       -0.446230    4.381420   -0.415550
     21          8           0       -1.758350    2.867150    1.326420
     22          1           0        5.365900    0.744420    1.334050
     23          1           0        5.265790   -0.383850   -2.106460
     24          1           0        4.367150   -2.683440    0.492140
     25          1           0       -2.407380   -2.745750    0.887120
     26          1           0       -0.933910   -1.385130    4.276380
     27          1           0       -3.029280    0.047050    0.770240
     28          1           0       -0.290290    4.933460    0.359240
     29          1           0       -2.094890    2.003210    1.642660
     30          1           0       -2.608600    3.158070   -1.677300
     31          1           0       -2.566020   -3.491430   -1.564360
     32          1           0       -1.552780   -1.337140   -4.091410
     33          1           0       -2.640460    0.789950   -1.408290
 ---------------------------------------------------------------------
                    Distance matrix (angstroms):
                    1          2          3          4          5
     1  Zr   0.000000
     2  O    1.945448   0.000000
     3  O    1.952828   3.119912   0.000000
     4  O    1.978054   3.074631   3.126336   0.000000
     5  O    1.963706   3.264505   3.309677   3.273909   0.000000
     6  Si   3.335647   3.784949   4.080998   1.641565   4.872872
     7  Si   3.458557   4.172714   1.638611   4.202537   4.947836
     8  Si   3.399134   1.660370   4.075577   4.020614   4.919518
     9  Si   3.565427   4.681774   4.594423   4.839497   1.636467
    10  O    4.502601   5.990314   5.153639   5.471009   2.758282
    11  O    4.575937   5.356648   5.977989   5.535608   2.702140
    12  O    4.103920   4.857454   4.702933   5.796633   2.604358
    13  O    4.267877   2.692159   5.305858   4.246356   5.673259
    14  O    3.748522   2.690866   3.659736   4.150646   5.584831
    15  O    4.563473   2.723360   5.026119   5.553918   5.792595
    16  O    4.633238   5.376514   5.252073   2.699407   5.882693
    17  O    3.681569   3.849056   3.707895   2.690334   5.547294
    18  O    4.084125   3.794666   5.189927   2.731713   5.506936
    19  O    3.949592   4.776604   2.603277   3.843677   5.605749
    20  O    4.707712   5.632981   2.757268   5.533342   5.806048
    21  O    4.161190   4.110248   2.717068   5.071818   5.756119
    22  H    5.035330   5.806096   5.496790   6.698346   3.485298
    23  H    5.019566   6.531581   5.828419   5.698990   3.270575
    24  H    4.524922   4.975358   6.108113   5.457833   2.871418
    25  H    4.115422   2.916260   5.255219   3.665572   5.548201
    26  H    4.851315   2.967274   5.542470   5.942375   5.793494
    27  H    3.797060   3.074805   3.731002   3.730478   5.726886
    28  H    5.233540   5.964217   3.308494   6.274196   6.240801
    29  H    3.942865   3.503321   2.931094   4.771787   5.662039
    30  H    4.912505   5.681211   3.472834   4.733894   6.537991
    31  H    4.818055   4.605663   6.031579   3.303931   6.043144
    32  H    4.655322   5.710153   5.238621   2.747640   5.672016
    33  H    3.652796   4.131148   3.198770   2.904004   5.504500
                    6          7          8          9         10
     6  Si   0.000000
     7  Si   4.648172   0.000000
     8  Si   4.075701   4.583910   0.000000
     9  Si   6.460940   6.184528   6.333554   0.000000
    10  O    7.103846   6.631452   7.640213   1.650281   0.000000
    11  O    7.074941   7.606787   6.948634   1.657322   2.629804
    12  O    7.351683   6.130169   6.390660   1.651299   2.675090
    13  O    3.908851   5.868246   1.640620   7.109355   8.426735
    14  O    3.897377   3.573058   1.664822   7.082343   8.164421
    15  O    5.712725   5.402874   1.639901   6.971425   8.396142
    16  O    1.649216   5.718645   5.714070   7.348437   7.708202
    17  O    1.650971   3.704631   3.697116   7.169876   7.844546
    18  O    1.663429   5.809137   3.698006   7.062926   7.963946
    19  O    3.818898   1.683194   5.018568   6.993509   7.312504
    20  O    6.091319   1.645645   6.143920   6.751333   6.894589
    21  O    5.286667   1.636375   4.010804   7.001174   7.719188
    22  H    8.272581   6.852958   7.314845   2.257654   2.830895
    23  H    7.300480   7.320188   8.183249   2.246986   0.963871
    24  H    6.898894   7.730544   6.481265   2.266953   3.512070
    25  H    3.136510   5.865943   2.251909   7.046829   8.255515
    26  H    6.241368   6.108070   2.251066   6.822294   8.339258
    27  H    3.168693   3.583889   2.240697   7.304334   8.274572
    28  H    6.861735   2.242616   6.406342   7.072979   7.275790
    29  H    4.851553   2.247350   3.129452   7.005060   7.886671
    30  H    4.539972   2.267845   5.783493   7.884614   8.118257
    31  H    2.262111   6.699031   4.554748   7.528009   8.378561
    32  H    2.251969   5.804626   6.276159   7.029102   7.200132
    33  H    2.274816   2.943116   4.144674   7.076225   7.612839
                   11         12         13         14         15
    11  O    0.000000
    12  O    2.780793   0.000000
    13  O    7.425174   7.433146   0.000000
    14  O    7.966626   7.108078   2.743115   0.000000
    15  O    7.553780   6.670063   2.707581   2.618195   0.000000
    16  O    7.881975   8.440748   5.391706   5.442990   7.352282
    17  O    8.026223   7.757716   3.884235   2.870429   5.211882
    18  O    7.385578   7.918982   2.883751   3.953455   5.266736
    19  O    8.293680   7.278148   5.933388   3.828043   6.159409
    20  O    8.319740   6.527513   7.492554   5.134915   6.787033
    21  O    8.331423   6.698271   5.433885   2.812034   4.446440
    22  H    3.158986   0.963651   8.376662   8.010610   7.508791
    23  H    2.671723   3.501096   8.821011   8.752075   9.028910
    24  H    0.963449   3.175849   6.837247   7.649946   7.029328
    25  H    7.332860   7.574243   0.973991   3.057265   3.589994
    26  H    7.240862   6.468068   3.036537   3.511513   0.962719
    27  H    8.174118   7.522116   2.855734   0.975792   3.478490
    28  H    8.662351   6.623572   7.860578   5.421604   6.823394
    29  H    8.197616   6.770885   4.525959   1.869458   3.595648
    30  H    9.219235   8.125339   6.673131   4.439581   6.851155
    31  H    7.686518   8.510554   3.540252   4.896503   6.072934
    32  H    7.584143   8.212238   6.087524   6.033112   7.904563
    33  H    8.102689   7.587982   4.635243   3.104629   5.557018
                   16         17         18         19         20
    16  O    0.000000
    17  O    2.780826   0.000000
    18  O    2.678490   2.586162   0.000000
    19  O    4.559834   2.746232   5.173774   0.000000
    20  O    6.953311   5.194711   7.375751   2.666385   0.000000
    21  O    6.576170   4.082221   6.079254   2.765291   2.655020
    22  H    9.312189   8.673851   8.870187   8.047656   7.075996
    23  H    7.739619   8.203899   8.131225   7.840947   7.628509
    24  H    7.799209   7.867458   6.998493   8.404035   8.596789
    25  H    4.521409   3.370313   1.934557   5.695073   7.505972
    26  H    7.872472   5.941086   5.687484   6.934891   7.450177
    27  H    4.622342   1.979964   3.330344   3.397265   5.183147
    28  H    7.822274   5.905449   8.046042   3.488878   0.964036
    29  H    6.261689   3.642439   5.417543   3.074131   3.551083
    30  H    5.093292   3.343533   5.879943   0.965396   2.786475
    31  H    2.717183   3.387464   0.963767   5.975930   8.233774
    32  H    0.963559   3.404778   3.452348   4.675169   6.887549
    33  H    3.181302   0.983662   3.499423   1.782053   4.324215
                   21         22         23         24         25
    21  O    0.000000
    22  H    7.433773   0.000000
    23  H    8.467125   3.622171   0.000000
    24  H    8.308238   3.668315   3.584465   0.000000
    25  H    5.667351   8.532580   8.568409   6.786321   0.000000
    26  H    5.240596   7.271856   8.954300   6.641334   3.938208
    27  H    3.142859   8.442941   8.790294   7.889239   2.863591
    28  H    2.712983   7.105688   8.076106   8.928974   7.983169
    29  H    0.979622   7.572528   8.598463   8.065131   4.818829
    30  H    3.135266   8.859266   8.644963   9.353652   6.439863
    31  H    7.031392   9.447675   8.443232   7.276736   2.567286
    32  H    6.860845   9.035300   7.165311   7.607038   5.244071
    33  H    3.545633   8.463114   8.023343   8.048768   4.221896
                   26         27         28         29         30
    26  H    0.000000
    27  H    4.328364   0.000000
    28  H    7.462092   5.616760   0.000000
    29  H    4.445807   2.336828   3.672889   0.000000
    30  H    7.674084   3.980687   3.560065   3.552426   0.000000
    31  H    6.419854   4.264482   8.936328   6.379499   6.650595
    32  H    8.390781   5.266087   7.792470   6.658181   5.210527
    33  H    6.321294   2.334325   5.080958   3.328354   2.383563
                   31         32         33
    31  H    0.000000
    32  H    3.471830   0.000000
    33  H    4.284870   3.592589   0.000000
 Stoichiometry    H12O16Si4Zr
 Framework group  C1[X(H12O16Si4Zr)]
 Deg. of freedom    93
 Full point group                 C1      NOp   1
 Largest Abelian subgroup         C1      NOp   1
 Largest concise Abelian subgroup C1      NOp   1
                         Standard orientation:                         
 ---------------------------------------------------------------------
 Center     Atomic      Atomic             Coordinates (Angstroms)
 Number     Number       Type             X           Y           Z
 ---------------------------------------------------------------------
      1         40           0        0.650730   -0.117348   -0.111432
      2          8           0       -0.186624   -0.884580    1.468112
      3          8           0        0.075398    1.747286   -0.186723
      4          8           0       -0.288671   -1.016487   -1.601993
      5          8           0        2.592762   -0.401363   -0.174601
      6         14           0       -1.853699   -1.421526   -1.887240
      7         14           0       -1.149456    2.835399   -0.158617
      8         14           0       -1.678896   -1.077253    2.170131
      9         14           0        4.212225   -0.242882   -0.000681
     10          8           0        4.957143    0.501417   -1.271328
     11          8           0        4.925494   -1.734570    0.112590
     12          8           0        4.401057    0.706307    1.337291
     13          8           0       -2.250075   -2.576255    1.826061
     14          8           0       -2.678399    0.123306    1.594558
     15          8           0       -1.610218   -0.824541    3.788987
     16          8           0       -2.082998   -1.715185   -3.493820
     17          8           0       -2.849084   -0.272488   -1.243325
     18          8           0       -2.291280   -2.790323   -1.049438
     19          8           0       -2.111671    2.364259   -1.456812
     20          8           0       -0.682668    4.383910   -0.462543
     21          8           0       -1.954376    2.820599    1.266026
     22          1           0        5.272552    1.092292    1.479190
     23          1           0        5.322275   -0.080342   -1.947555
     24          1           0        4.484213   -2.394922    0.657970
     25          1           0       -2.284713   -2.824259    0.884810
     26          1           0       -0.974938   -1.344876    4.291480
     27          1           0       -3.054878   -0.071375    0.715619
     28          1           0       -0.576970    4.952792    0.308539
     29          1           0       -2.251260    1.943288    1.585157
     30          1           0       -2.742051    3.028909   -1.761526
     31          1           0       -2.339612   -3.606433   -1.559806
     32          1           0       -1.381063   -1.429790   -4.089037
     33          1           0       -2.651525    0.665954   -1.462161
 ---------------------------------------------------------------------
 Rotational constants (GHZ):           0.2119944           0.1340839           0.1242119
 General basis read from cards:  (5D, 7F)
 ======================================================================================================
                                       Pseudopotential Parameters
 ======================================================================================================
  Center     Atomic      Valence      Angular      Power
  Number     Number     Electrons     Momentum     of R      Exponent        Coefficient   SO-Coeffient
 ======================================================================================================
    1         40           12
                                      G and up 
                                                     2        1.0000000        0.00000000    0.00000000
                                      S - G
                                                     2        8.6365280      150.24299400    0.00000000
                                                     2        3.7176390       18.78003600    0.00000000
                                      P - G
                                                     2        7.6267280       33.19279100    0.00000000
                                                     2        7.4532070       66.38903900    0.00000000
                                                     2        3.3583890        4.62072600    0.00000000
                                                     2        3.2297380        9.26027000    0.00000000
                                      D - G
                                                     2        5.9380860       13.99338300    0.00000000
                                                     2        5.8255440       20.99588200    0.00000000
                                                     2        2.2050190        2.28516600    0.00000000
                                                     2        2.2062920        3.44126000    0.00000000
                                      F - G
                                                     2        4.8002150       -5.23932000    0.00000000
                                                     2        4.7989920       -6.98742400    0.00000000
    2          8
                                   No pseudopotential on this center.
    3          8
                                   No pseudopotential on this center.
    4          8
                                   No pseudopotential on this center.
    5          8
                                   No pseudopotential on this center.
    6         14
                                   No pseudopotential on this center.
    7         14
                                   No pseudopotential on this center.
    8         14
                                   No pseudopotential on this center.
    9         14
                                   No pseudopotential on this center.
   10          8
                                   No pseudopotential on this center.
   11          8
                                   No pseudopotential on this center.
   12          8
                                   No pseudopotential on this center.
   13          8
                                   No pseudopotential on this center.
   14          8
                                   No pseudopotential on this center.
   15          8
                                   No pseudopotential on this center.
   16          8
                                   No pseudopotential on this center.
   17          8
                                   No pseudopotential on this center.
   18          8
                                   No pseudopotential on this center.
   19          8
                                   No pseudopotential on this center.
   20          8
                                   No pseudopotential on this center.
   21          8
                                   No pseudopotential on this center.
   22          1
                                   No pseudopotential on this center.
   23          1
                                   No pseudopotential on this center.
   24          1
                                   No pseudopotential on this center.
   25          1
                                   No pseudopotential on this center.
   26          1
                                   No pseudopotential on this center.
   27          1
                                   No pseudopotential on this center.
   28          1
                                   No pseudopotential on this center.
   29          1
                                   No pseudopotential on this center.
   30          1
                                   No pseudopotential on this center.
   31          1
                                   No pseudopotential on this center.
   32          1
                                   No pseudopotential on this center.
   33          1
                                   No pseudopotential on this center.
 ======================================================================================================
 There are   570 symmetry adapted cartesian basis functions of A   symmetry.
 There are   524 symmetry adapted basis functions of A   symmetry.
   524 basis functions,  1074 primitive gaussians,   570 cartesian basis functions
   104 alpha electrons      104 beta electrons
       nuclear repulsion energy      2833.0303649736 Hartrees.
 NAtoms=   33 NActive=   33 NUniq=   33 SFac= 1.00D+00 NAtFMM=   60 NAOKFM=F Big=F
 Integral buffers will be    131072 words long.
 Raffenetti 2 integral format.
 Two-electron integral symmetry is turned on.
 Nuclear repulsion after empirical dispersion term =     2832.9895451732 Hartrees.
 One-electron integrals computed using PRISM.
 PrsmSu:  requested number of processors reduced to:   4 ShMem   1 Linda.
   1 Symmetry operations used in ECPInt.
 ECPInt:  NShTT=   13203 NPrTT=   78401 LenC2=   11527 LenP2D=   44667.
 LDataN:  DoStor=T MaxTD1= 8 Len=  415
 Number of processors reduced to  13 by ecpmxn.
 NBasis=   524 RedAO= T EigKep=  3.20D-05  NBF=   524
 NBsUse=   524 1.00D-06 EigRej= -1.00D+00 NBFU=   524
 Defaulting to unpruned grid for atomic number  40.
 ExpMin= 1.01D-02 ExpMax= 1.61D+04 ExpMxC= 2.43D+03 IAcc=3 IRadAn=         5 AccDes= 0.00D+00
 Harris functional with IExCor=  402 and IRadAn=       5 diagonalized for initial guess.
 HarFok:  IExCor=  402 AccDes= 0.00D+00 IRadAn=         5 IDoV= 1 UseB2=F ITyADJ=14
 ICtDFT=  3500011 ScaDFX=  1.000000  1.000000  1.000000  1.000000
 Defaulting to unpruned grid for atomic number  40.
 FoFCou: FMM=F IPFlag=           0 FMFlag=      100000 FMFlg1=           0
         NFxFlg=           0 DoJE=T BraDBF=F KetDBF=T FulRan=T
         wScrn=  0.000000 ICntrl=       500 IOpCl=  0 I1Cent=   200000004 NGrid=           0
         NMat0=    1 NMatS0=      1 NMatT0=    0 NMatD0=    1 NMtDS0=    0 NMtDT0=    0
 Petite list used in FoFCou.
 Requested convergence on RMS density matrix=1.00D-08 within 128 cycles.
 Requested convergence on MAX density matrix=1.00D-06.
 Requested convergence on             energy=1.00D-06.
 No special actions if energy rises.
 Defaulting to unpruned grid for atomic number  40.
 Defaulting to unpruned grid for atomic number  40.
 Defaulting to unpruned grid for atomic number  40.
 Defaulting to unpruned grid for atomic number  40.
 Defaulting to unpruned grid for atomic number  40.
 Defaulting to unpruned grid for atomic number  40.
 Defaulting to unpruned grid for atomic number  40.
 Defaulting to unpruned grid for atomic number  40.
 Defaulting to unpruned grid for atomic number  40.
 Defaulting to unpruned grid for atomic number  40.
 Defaulting to unpruned grid for atomic number  40.
 Defaulting to unpruned grid for atomic number  40.
 Defaulting to unpruned grid for atomic number  40.
 Defaulting to unpruned grid for atomic number  40.
 Defaulting to unpruned grid for atomic number  40.
 Defaulting to unpruned grid for atomic number  40.
 SCF Done:  E(RB3LYP) =  -2416.94579417     A.U. after   14 cycles
            NFock= 14  Conv=0.35D-08     -V/T= 2.0185

 **********************************************************************

            Population analysis using the SCF Density.

 **********************************************************************

 Orbital symmetries:
       Occupied  (A) (A) (A) (A) (A) (A) (A) (A) (A) (A) (A) (A)
                 (A) (A) (A) (A) (A) (A) (A) (A) (A) (A) (A) (A)
                 (A) (A) (A) (A) (A) (A) (A) (A) (A) (A) (A) (A)
                 (A) (A) (A) (A) (A) (A) (A) (A) (A) (A) (A) (A)
                 (A) (A) (A) (A) (A) (A) (A) (A) (A) (A) (A) (A)
                 (A) (A) (A) (A) (A) (A) (A) (A) (A) (A) (A) (A)
                 (A) (A) (A) (A) (A) (A) (A) (A) (A) (A) (A) (A)
                 (A) (A) (A) (A) (A) (A) (A) (A) (A) (A) (A) (A)
                 (A) (A) (A) (A) (A) (A) (A) (A)
       Virtual   (A) (A) (A) (A) (A) (A) (A) (A) (A) (A) (A) (A)
                 (A) (A) (A) (A) (A) (A) (A) (A) (A) (A) (A) (A)
                 (A) (A) (A) (A) (A) (A) (A) (A) (A) (A) (A) (A)
                 (A) (A) (A) (A) (A) (A) (A) (A) (A) (A) (A) (A)
                 (A) (A) (A) (A) (A) (A) (A) (A) (A) (A) (A) (A)
                 (A) (A) (A) (A) (A) (A) (A) (A) (A) (A) (A) (A)
                 (A) (A) (A) (A) (A) (A) (A) (A) (A) (A) (A) (A)
                 (A) (A) (A) (A) (A) (A) (A) (A) (A) (A) (A) (A)
                 (A) (A) (A) (A) (A) (A) (A) (A) (A) (A) (A) (A)
                 (A) (A) (A) (A) (A) (A) (A) (A) (A) (A) (A) (A)
                 (A) (A) (A) (A) (A) (A) (A) (A) (A) (A) (A) (A)
                 (A) (A) (A) (A) (A) (A) (A) (A) (A) (A) (A) (A)
                 (A) (A) (A) (A) (A) (A) (A) (A) (A) (A) (A) (A)
                 (A) (A) (A) (A) (A) (A) (A) (A) (A) (A) (A) (A)
                 (A) (A) (A) (A) (A) (A) (A) (A) (A) (A) (A) (A)
                 (A) (A) (A) (A) (A) (A) (A) (A) (A) (A) (A) (A)
                 (A) (A) (A) (A) (A) (A) (A) (A) (A) (A) (A) (A)
                 (A) (A) (A) (A) (A) (A) (A) (A) (A) (A) (A) (A)
                 (A) (A) (A) (A) (A) (A) (A) (A) (A) (A) (A) (A)
                 (A) (A) (A) (A) (A) (A) (A) (A) (A) (A) (A) (A)
                 (A) (A) (A) (A) (A) (A) (A) (A) (A) (A) (A) (A)
                 (A) (A) (A) (A) (A) (A) (A) (A) (A) (A) (A) (A)
                 (A) (A) (A) (A) (A) (A) (A) (A) (A) (A) (A) (A)
                 (A) (A) (A) (A) (A) (A) (A) (A) (A) (A) (A) (A)
                 (A) (A) (A) (A) (A) (A) (A) (A) (A) (A) (A) (A)
                 (A) (A) (A) (A) (A) (A) (A) (A) (A) (A) (A) (A)
                 (A) (A) (A) (A) (A) (A) (A) (A) (A) (A) (A) (A)
                 (A) (A) (A) (A) (A) (A) (A) (A) (A) (A) (A) (A)
                 (A) (A) (A) (A) (A) (A) (A) (A) (A) (A) (A) (A)
                 (A) (A) (A) (A) (A) (A) (A) (A) (A) (A) (A) (A)
                 (A) (A) (A) (A) (A) (A) (A) (A) (A) (A) (A) (A)
                 (A) (A) (A) (A) (A) (A) (A) (A) (A) (A) (A) (A)
                 (A) (A) (A) (A) (A) (A) (A) (A) (A) (A) (A) (A)
                 (A) (A) (A) (A) (A) (A) (A) (A) (A) (A) (A) (A)
                 (A) (A) (A) (A) (A) (A) (A) (A) (A) (A) (A) (A)
 The electronic state is 1-A.
 Alpha  occ. eigenvalues --  -66.22818 -66.21754 -66.21640 -66.21046 -19.18556
 Alpha  occ. eigenvalues --  -19.18352 -19.17827 -19.16983 -19.16774 -19.16712
 Alpha  occ. eigenvalues --  -19.16587 -19.16341 -19.16198 -19.16048 -19.16005
 Alpha  occ. eigenvalues --  -19.15553 -19.15424 -19.15329 -19.14875 -19.14641
 Alpha  occ. eigenvalues --   -5.36877  -5.35835  -5.35713  -5.35104  -3.72863
 Alpha  occ. eigenvalues --   -3.72838  -3.72782  -3.71825  -3.71780  -3.71745
 Alpha  occ. eigenvalues --   -3.71680  -3.71675  -3.71635  -3.71086  -3.71066
 Alpha  occ. eigenvalues --   -3.71013  -2.13409  -1.29633  -1.29575  -1.29410
 Alpha  occ. eigenvalues --   -1.05670  -1.04769  -1.04312  -1.03533  -1.02565
 Alpha  occ. eigenvalues --   -1.02156  -1.01463  -1.01107  -1.00905  -1.00710
 Alpha  occ. eigenvalues --   -0.99824  -0.99357  -0.97398  -0.96317  -0.95770
 Alpha  occ. eigenvalues --   -0.95327  -0.60936  -0.59184  -0.59102  -0.58961
 Alpha  occ. eigenvalues --   -0.55587  -0.54528  -0.54029  -0.53155  -0.53106
 Alpha  occ. eigenvalues --   -0.52599  -0.51876  -0.50200  -0.48689  -0.47902
 Alpha  occ. eigenvalues --   -0.47509  -0.47123  -0.43415  -0.42876  -0.41853
 Alpha  occ. eigenvalues --   -0.41491  -0.41215  -0.40611  -0.39854  -0.39465
 Alpha  occ. eigenvalues --   -0.38938  -0.38893  -0.38643  -0.38226  -0.38049
 Alpha  occ. eigenvalues --   -0.37622  -0.37478  -0.37114  -0.36503  -0.36368
 Alpha  occ. eigenvalues --   -0.36201  -0.35807  -0.35467  -0.35237  -0.34949
 Alpha  occ. eigenvalues --   -0.34487  -0.34098  -0.33785  -0.33597  -0.33086
 Alpha  occ. eigenvalues --   -0.32660  -0.32235  -0.32018  -0.31332
 Alpha virt. eigenvalues --   -0.04440  -0.03216  -0.03048  -0.02908  -0.02099
 Alpha virt. eigenvalues --   -0.01394  -0.00613  -0.00297  -0.00022   0.00232
 Alpha virt. eigenvalues --    0.00674   0.00822   0.00930   0.01811   0.02177
 Alpha virt. eigenvalues --    0.03052   0.03277   0.03817   0.03891   0.04116
 Alpha virt. eigenvalues --    0.04225   0.04759   0.05823   0.05906   0.06144
 Alpha virt. eigenvalues --    0.06285   0.07128   0.07497   0.07607   0.08337
 Alpha virt. eigenvalues --    0.08545   0.08781   0.09063   0.09476   0.09671
 Alpha virt. eigenvalues --    0.10290   0.10644   0.10868   0.11091   0.11604
 Alpha virt. eigenvalues --    0.11793   0.12500   0.13215   0.13268   0.13922
 Alpha virt. eigenvalues --    0.14003   0.14079   0.14813   0.15113   0.15232
 Alpha virt. eigenvalues --    0.15456   0.15798   0.16182   0.16559   0.16790
 Alpha virt. eigenvalues --    0.17125   0.17328   0.17688   0.17797   0.18511
 Alpha virt. eigenvalues --    0.18634   0.18812   0.18953   0.19316   0.19643
 Alpha virt. eigenvalues --    0.19695   0.20255   0.20835   0.21150   0.21255
 Alpha virt. eigenvalues --    0.21418   0.21813   0.22177   0.22466   0.23166
 Alpha virt. eigenvalues --    0.23629   0.23842   0.24060   0.24173   0.24606
 Alpha virt. eigenvalues --    0.24963   0.25443   0.25562   0.25824   0.26086
 Alpha virt. eigenvalues --    0.26282   0.26620   0.26797   0.27202   0.27641
 Alpha virt. eigenvalues --    0.27719   0.28292   0.28396   0.28737   0.28889
 Alpha virt. eigenvalues --    0.29432   0.29919   0.30044   0.30385   0.30472
 Alpha virt. eigenvalues --    0.30827   0.30864   0.31302   0.31504   0.32000
 Alpha virt. eigenvalues --    0.32415   0.32639   0.33147   0.33579   0.34127
 Alpha virt. eigenvalues --    0.34349   0.34788   0.35428   0.35799   0.36302
 Alpha virt. eigenvalues --    0.36506   0.37595   0.38392   0.38555   0.38787
 Alpha virt. eigenvalues --    0.39372   0.40141   0.40546   0.40764   0.41074
 Alpha virt. eigenvalues --    0.41546   0.42274   0.43367   0.43840   0.44117
 Alpha virt. eigenvalues --    0.45235   0.45682   0.46266   0.46671   0.47000
 Alpha virt. eigenvalues --    0.47286   0.48228   0.48554   0.49057   0.49064
 Alpha virt. eigenvalues --    0.49753   0.50124   0.51227   0.52418   0.52717
 Alpha virt. eigenvalues --    0.53613   0.54342   0.55346   0.56672   0.57073
 Alpha virt. eigenvalues --    0.58184   0.58536   0.59074   0.59862   0.59958
 Alpha virt. eigenvalues --    0.60955   0.61595   0.62046   0.63896   0.66188
 Alpha virt. eigenvalues --    0.66500   0.67331   0.68173   0.69112   0.69723
 Alpha virt. eigenvalues --    0.70010   0.70917   0.72478   0.74239   0.74930
 Alpha virt. eigenvalues --    0.75317   0.77162   0.78593   0.78832   0.80485
 Alpha virt. eigenvalues --    0.80950   0.81482   0.83066   0.83612   0.85306
 Alpha virt. eigenvalues --    0.86802   0.87659   0.89903   0.90643   0.90866
 Alpha virt. eigenvalues --    0.93714   0.95685   0.96294   0.96712   0.97437
 Alpha virt. eigenvalues --    0.98283   0.98858   0.99161   0.99314   0.99775
 Alpha virt. eigenvalues --    1.00303   1.01151   1.01892   1.03209   1.03592
 Alpha virt. eigenvalues --    1.04454   1.04574   1.05404   1.06694   1.08040
 Alpha virt. eigenvalues --    1.09568   1.12498   1.15255   1.16199   1.16731
 Alpha virt. eigenvalues --    1.18686   1.18911   1.20087   1.20450   1.20756
 Alpha virt. eigenvalues --    1.21505   1.21925   1.22172   1.22465   1.23611
 Alpha virt. eigenvalues --    1.23777   1.24006   1.24135   1.25271   1.25396
 Alpha virt. eigenvalues --    1.25670   1.26428   1.27496   1.27804   1.28211
 Alpha virt. eigenvalues --    1.28808   1.29461   1.30088   1.30507   1.31489
 Alpha virt. eigenvalues --    1.31932   1.32751   1.33339   1.33782   1.34740
 Alpha virt. eigenvalues --    1.35412   1.36310   1.36606   1.37106   1.38381
 Alpha virt. eigenvalues --    1.38815   1.39946   1.40096   1.40645   1.41575
 Alpha virt. eigenvalues --    1.41750   1.42705   1.43413   1.44437   1.45299
 Alpha virt. eigenvalues --    1.47544   1.49529   1.50742   1.52423   1.52744
 Alpha virt. eigenvalues --    1.56696   1.57293   1.58286   1.59106   1.59832
 Alpha virt. eigenvalues --    1.60129   1.60922   1.61241   1.62106   1.62724
 Alpha virt. eigenvalues --    1.63486   1.64052   1.65058   1.65930   1.66389
 Alpha virt. eigenvalues --    1.67117   1.67664   1.69054   1.69599   1.69982
 Alpha virt. eigenvalues --    1.70606   1.71054   1.71731   1.72909   1.73255
 Alpha virt. eigenvalues --    1.74609   1.75211   1.75507   1.75975   1.76467
 Alpha virt. eigenvalues --    1.76768   1.77070   1.78398   1.79455   1.79979
 Alpha virt. eigenvalues --    1.80516   1.81481   1.81908   1.82378   1.82782
 Alpha virt. eigenvalues --    1.83456   1.83943   1.85035   1.85537   1.86158
 Alpha virt. eigenvalues --    1.87710   1.88184   1.88821   1.89785   1.90063
 Alpha virt. eigenvalues --    1.91055   1.91641   1.92083   1.92928   1.93255
 Alpha virt. eigenvalues --    1.94106   1.95427   1.96167   1.97365   1.98007
 Alpha virt. eigenvalues --    1.98468   1.99893   2.00702   2.02308   2.05396
 Alpha virt. eigenvalues --    2.05987   2.07320   2.09180   2.10075   2.10338
 Alpha virt. eigenvalues --    2.11828   2.13427   2.14404   2.15693   2.16213
 Alpha virt. eigenvalues --    2.16653   2.18721   2.19865   2.21134   2.26783
 Alpha virt. eigenvalues --    2.31620   2.32845   2.36209   2.39476   2.40218
 Alpha virt. eigenvalues --    2.40798   2.41433   2.41652   2.42958   2.43543
 Alpha virt. eigenvalues --    2.43996   2.45261   2.46501   2.47827   2.48785
 Alpha virt. eigenvalues --    2.49418   2.50480   2.50782   2.52857   2.53429
 Alpha virt. eigenvalues --    2.54621   2.58159   2.58703   2.59978   2.60816
 Alpha virt. eigenvalues --    2.61033   2.61687   2.61850   2.62260   2.62720
 Alpha virt. eigenvalues --    2.63145   2.63535   2.64767   2.65223   2.65681
 Alpha virt. eigenvalues --    2.66067   2.66520   2.67073   2.67493   2.67857
 Alpha virt. eigenvalues --    2.69293   2.70673   2.71226   2.71698   2.72574
 Alpha virt. eigenvalues --    2.73511   2.74789   2.75661   2.76521   2.78006
 Alpha virt. eigenvalues --    2.79571   2.80383   2.80905   2.82970   2.83283
 Alpha virt. eigenvalues --    2.83941   2.84837   2.86368   2.87592   2.88133
 Alpha virt. eigenvalues --    3.15486   3.21470   3.36765   3.41159   3.46572
 Alpha virt. eigenvalues --    3.47693   3.48302   3.48776   3.48837   3.52016
 Alpha virt. eigenvalues --    3.52821   3.53556   3.59964   3.61162   3.62133
 Alpha virt. eigenvalues --    3.65881   4.35539   4.60686   7.91381  31.27068
          Condensed to atoms (all electrons):
               1          2          3          4          5          6
     1  Zr  14.895058  -0.022381  -0.011662  -0.113263  -0.192654  -0.682669
     2  O   -0.022381   8.861017   0.016525  -0.043689  -0.055556   0.063287
     3  O   -0.011662   0.016525   8.834549   0.018388  -0.049052  -0.000790
     4  O   -0.113263  -0.043689   0.018388   8.817727  -0.060141  -0.702069
     5  O   -0.192654  -0.055556  -0.049052  -0.060141   9.407813  -0.011181
     6  Si  -0.682669   0.063287  -0.000790  -0.702069  -0.011181  14.162788
     7  Si  -0.563940  -0.023917  -0.862551  -0.011364  -0.034960   0.082847
     8  Si  -0.661057  -0.781844  -0.015247   0.064908  -0.015823   0.028845
     9  Si  -0.228276  -0.038463  -0.028248  -0.029807  -1.143170   0.036009
    10  O   -0.028343   0.001009  -0.000669   0.000147   0.122262  -0.001356
    11  O   -0.086880   0.002506   0.003347   0.002366   0.327178  -0.000096
    12  O    0.047271   0.001402   0.003811   0.001791   0.114788  -0.002895
    13  O   -0.015978   0.256180   0.001694  -0.016215  -0.000449   0.035020
    14  O   -0.022361   0.254167  -0.016594  -0.002097   0.001348   0.003499
    15  O   -0.052664   0.262033   0.000160   0.002614   0.000881  -0.007500
    16  O   -0.137867   0.005588  -0.000395   0.350122   0.003560  -0.441177
    17  O   -0.062064  -0.040159   0.011283   0.210736   0.001236  -0.458241
    18  O   -0.014482  -0.018840   0.003883   0.198113  -0.001046  -0.478471
    19  O    0.002615   0.008308   0.265881   0.011378   0.002390  -0.007414
    20  O   -0.137803  -0.000745   0.158877  -0.000694   0.001488   0.009583
    21  O    0.027497   0.010793   0.150667   0.003587   0.000159  -0.011935
    22  H   -0.009102  -0.000008   0.000012  -0.000005   0.006743   0.000087
    23  H   -0.007892  -0.000008  -0.000009  -0.000033  -0.024261   0.000145
    24  H   -0.005769  -0.000085  -0.000011   0.000001  -0.003171   0.000161
    25  H    0.022872  -0.021910  -0.000140  -0.000733  -0.000021  -0.000193
    26  H   -0.007535  -0.012791   0.000020  -0.000012  -0.000021   0.000284
    27  H    0.002299  -0.020468   0.000718  -0.001683   0.000029   0.011233
    28  H    0.004627  -0.000011  -0.018461  -0.000013  -0.000012  -0.000258
    29  H    0.000399  -0.005288  -0.019869  -0.000199  -0.000067   0.000754
    30  H    0.000022  -0.000012   0.000265  -0.000476  -0.000009  -0.000546
    31  H    0.002717   0.000292  -0.000021  -0.017942  -0.000017   0.060562
    32  H    0.002280  -0.000027   0.000036   0.010952   0.000006   0.020014
    33  H   -0.013963   0.000947  -0.010290  -0.009290  -0.000097   0.051339
               7          8          9         10         11         12
     1  Zr  -0.563940  -0.661057  -0.228276  -0.028343  -0.086880   0.047271
     2  O   -0.023917  -0.781844  -0.038463   0.001009   0.002506   0.001402
     3  O   -0.862551  -0.015247  -0.028248  -0.000669   0.003347   0.003811
     4  O   -0.011364   0.064908  -0.029807   0.000147   0.002366   0.001791
     5  O   -0.034960  -0.015823  -1.143170   0.122262   0.327178   0.114788
     6  Si   0.082847   0.028845   0.036009  -0.001356  -0.000096  -0.002895
     7  Si  13.746096   0.166161   0.015517   0.001051  -0.001067   0.002279
     8  Si   0.166161  13.795453   0.032098  -0.001325   0.001426  -0.001830
     9  Si   0.015517   0.032098  13.991710  -0.040845  -0.183009  -0.148916
    10  O    0.001051  -0.001325  -0.040845   8.511112   0.013562   0.031712
    11  O   -0.001067   0.001426  -0.183009   0.013562   8.526313  -0.051867
    12  O    0.002279  -0.001830  -0.148916   0.031712  -0.051867   8.581800
    13  O    0.003802  -0.137888   0.000177  -0.000000   0.000012  -0.000014
    14  O    0.011094  -0.512254  -0.001106  -0.000003   0.000002   0.000005
    15  O   -0.003750  -0.388599  -0.001190  -0.000002  -0.000011   0.000007
    16  O    0.003746  -0.008811  -0.000812   0.000004  -0.000013  -0.000002
    17  O   -0.006873   0.091715   0.002340   0.000004   0.000005  -0.000007
    18  O   -0.001300   0.078753   0.003556   0.000002   0.000013   0.000003
    19  O   -0.419098  -0.017037   0.000886   0.000005  -0.000001  -0.000041
    20  O   -0.105102   0.009475   0.002889   0.000023  -0.000003  -0.000037
    21  O    0.028605  -0.045071  -0.001104  -0.000002   0.000001   0.000006
    22  H   -0.000033   0.000096   0.045198  -0.006160  -0.004698   0.220830
    23  H    0.000026   0.000055   0.078709   0.230179  -0.005448   0.005680
    24  H    0.000032   0.000182   0.033273   0.007137   0.243084  -0.006938
    25  H   -0.000376   0.053362  -0.000236  -0.000000  -0.000000  -0.000000
    26  H    0.000574   0.063069  -0.000194   0.000000   0.000000  -0.000001
    27  H    0.001622   0.078430   0.000038   0.000000  -0.000000   0.000000
    28  H    0.057320   0.000059  -0.000149   0.000000  -0.000000  -0.000001
    29  H    0.047934   0.024134  -0.000082   0.000000  -0.000000  -0.000000
    30  H    0.041418   0.000081   0.000012  -0.000000   0.000000   0.000000
    31  H    0.000093  -0.002643  -0.000058   0.000000  -0.000000   0.000000
    32  H   -0.000579   0.000093   0.000029  -0.000000   0.000000  -0.000000
    33  H    0.021504  -0.000150   0.000057  -0.000000   0.000000   0.000000
              13         14         15         16         17         18
     1  Zr  -0.015978  -0.022361  -0.052664  -0.137867  -0.062064  -0.014482
     2  O    0.256180   0.254167   0.262033   0.005588  -0.040159  -0.018840
     3  O    0.001694  -0.016594   0.000160  -0.000395   0.011283   0.003883
     4  O   -0.016215  -0.002097   0.002614   0.350122   0.210736   0.198113
     5  O   -0.000449   0.001348   0.000881   0.003560   0.001236  -0.001046
     6  Si   0.035020   0.003499  -0.007500  -0.441177  -0.458241  -0.478471
     7  Si   0.003802   0.011094  -0.003750   0.003746  -0.006873  -0.001300
     8  Si  -0.137888  -0.512254  -0.388599  -0.008811   0.091715   0.078753
     9  Si   0.000177  -0.001106  -0.001190  -0.000812   0.002340   0.003556
    10  O   -0.000000  -0.000003  -0.000002   0.000004   0.000004   0.000002
    11  O    0.000012   0.000002  -0.000011  -0.000013   0.000005   0.000013
    12  O   -0.000014   0.000005   0.000007  -0.000002  -0.000007   0.000003
    13  O    8.639068   0.024855  -0.114135   0.003879  -0.028546  -0.042296
    14  O    0.024855   8.811971   0.154975   0.002782  -0.028670  -0.022688
    15  O   -0.114135   0.154975   8.777393  -0.000164   0.003813   0.001159
    16  O    0.003879   0.002782  -0.000164   8.916857  -0.095003  -0.104014
    17  O   -0.028546  -0.028670   0.003813  -0.095003   8.941795   0.222181
    18  O   -0.042296  -0.022688   0.001159  -0.104014   0.222181   9.033340
    19  O    0.000219   0.002142   0.000328  -0.001088  -0.031416   0.000125
    20  O    0.000010  -0.000898   0.000009   0.000058  -0.000708   0.000011
    21  O   -0.000525   0.025407   0.000796  -0.000193  -0.005690   0.000402
    22  H   -0.000000  -0.000000   0.000000   0.000000   0.000000  -0.000000
    23  H    0.000000   0.000000   0.000000  -0.000000   0.000000   0.000000
    24  H   -0.000000   0.000000   0.000001   0.000000  -0.000000  -0.000000
    25  H    0.216695  -0.009411   0.007486  -0.000249   0.000600   0.015362
    26  H   -0.006635   0.001193   0.225977   0.000000  -0.000020   0.000010
    27  H   -0.004564   0.207047   0.000061   0.000280   0.018046  -0.000768
    28  H    0.000000  -0.000003  -0.000001  -0.000000   0.000002  -0.000000
    29  H    0.000781   0.013730  -0.001358  -0.000003  -0.000722  -0.000003
    30  H    0.000001  -0.000018   0.000001   0.000102  -0.000482  -0.000007
    31  H    0.002368   0.000068  -0.000020   0.005133  -0.001211   0.216686
    32  H   -0.000007  -0.000006   0.000000   0.235685  -0.003431   0.003920
    33  H    0.000238   0.001922  -0.000053   0.000208   0.229922   0.002278
              19         20         21         22         23         24
     1  Zr   0.002615  -0.137803   0.027497  -0.009102  -0.007892  -0.005769
     2  O    0.008308  -0.000745   0.010793  -0.000008  -0.000008  -0.000085
     3  O    0.265881   0.158877   0.150667   0.000012  -0.000009  -0.000011
     4  O    0.011378  -0.000694   0.003587  -0.000005  -0.000033   0.000001
     5  O    0.002390   0.001488   0.000159   0.006743  -0.024261  -0.003171
     6  Si  -0.007414   0.009583  -0.011935   0.000087   0.000145   0.000161
     7  Si  -0.419098  -0.105102   0.028605  -0.000033   0.000026   0.000032
     8  Si  -0.017037   0.009475  -0.045071   0.000096   0.000055   0.000182
     9  Si   0.000886   0.002889  -0.001104   0.045198   0.078709   0.033273
    10  O    0.000005   0.000023  -0.000002  -0.006160   0.230179   0.007137
    11  O   -0.000001  -0.000003   0.000001  -0.004698  -0.005448   0.243084
    12  O   -0.000041  -0.000037   0.000006   0.220830   0.005680  -0.006938
    13  O    0.000219   0.000010  -0.000525  -0.000000   0.000000  -0.000000
    14  O    0.002142  -0.000898   0.025407  -0.000000   0.000000   0.000000
    15  O    0.000328   0.000009   0.000796   0.000000   0.000000   0.000001
    16  O   -0.001088   0.000058  -0.000193   0.000000  -0.000000   0.000000
    17  O   -0.031416  -0.000708  -0.005690   0.000000   0.000000  -0.000000
    18  O    0.000125   0.000011   0.000402  -0.000000   0.000000  -0.000000
    19  O    8.880445   0.033639   0.023728  -0.000000   0.000000  -0.000000
    20  O    0.033639   8.657057  -0.055218   0.000000   0.000000  -0.000000
    21  O    0.023728  -0.055218   8.483578  -0.000000   0.000000   0.000000
    22  H   -0.000000   0.000000  -0.000000   0.362277   0.000059   0.000110
    23  H    0.000000   0.000000   0.000000   0.000059   0.350986   0.000020
    24  H   -0.000000  -0.000000   0.000000   0.000110   0.000020   0.367898
    25  H   -0.000034   0.000000  -0.000013   0.000000   0.000000   0.000000
    26  H    0.000000  -0.000000   0.000042  -0.000000   0.000000  -0.000000
    27  H   -0.000211   0.000221  -0.004695  -0.000000  -0.000000   0.000000
    28  H    0.004292   0.228889  -0.001673  -0.000000   0.000000   0.000000
    29  H   -0.008643   0.008033   0.208210   0.000000  -0.000000  -0.000000
    30  H    0.223756  -0.001515  -0.007202   0.000000  -0.000000  -0.000000
    31  H    0.000002  -0.000000  -0.000000  -0.000000   0.000000   0.000000
    32  H    0.000097   0.000000   0.000001  -0.000000  -0.000000  -0.000000
    33  H    0.013590  -0.000095   0.001422  -0.000000  -0.000000  -0.000000
              25         26         27         28         29         30
     1  Zr   0.022872  -0.007535   0.002299   0.004627   0.000399   0.000022
     2  O   -0.021910  -0.012791  -0.020468  -0.000011  -0.005288  -0.000012
     3  O   -0.000140   0.000020   0.000718  -0.018461  -0.019869   0.000265
     4  O   -0.000733  -0.000012  -0.001683  -0.000013  -0.000199  -0.000476
     5  O   -0.000021  -0.000021   0.000029  -0.000012  -0.000067  -0.000009
     6  Si  -0.000193   0.000284   0.011233  -0.000258   0.000754  -0.000546
     7  Si  -0.000376   0.000574   0.001622   0.057320   0.047934   0.041418
     8  Si   0.053362   0.063069   0.078430   0.000059   0.024134   0.000081
     9  Si  -0.000236  -0.000194   0.000038  -0.000149  -0.000082   0.000012
    10  O   -0.000000   0.000000   0.000000   0.000000   0.000000  -0.000000
    11  O   -0.000000   0.000000  -0.000000  -0.000000  -0.000000   0.000000
    12  O   -0.000000  -0.000001   0.000000  -0.000001  -0.000000   0.000000
    13  O    0.216695  -0.006635  -0.004564   0.000000   0.000781   0.000001
    14  O   -0.009411   0.001193   0.207047  -0.000003   0.013730  -0.000018
    15  O    0.007486   0.225977   0.000061  -0.000001  -0.001358   0.000001
    16  O   -0.000249   0.000000   0.000280  -0.000000  -0.000003   0.000102
    17  O    0.000600  -0.000020   0.018046   0.000002  -0.000722  -0.000482
    18  O    0.015362   0.000010  -0.000768  -0.000000  -0.000003  -0.000007
    19  O   -0.000034   0.000000  -0.000211   0.004292  -0.008643   0.223756
    20  O    0.000000  -0.000000   0.000221   0.228889   0.008033  -0.001515
    21  O   -0.000013   0.000042  -0.004695  -0.001673   0.208210  -0.007202
    22  H    0.000000  -0.000000  -0.000000  -0.000000   0.000000   0.000000
    23  H    0.000000   0.000000  -0.000000   0.000000  -0.000000  -0.000000
    24  H    0.000000  -0.000000   0.000000   0.000000  -0.000000  -0.000000
    25  H    0.301491  -0.000032   0.000039   0.000000   0.000001   0.000000
    26  H   -0.000032   0.369256  -0.000036   0.000000   0.000018  -0.000000
    27  H    0.000039  -0.000036   0.284676  -0.000000  -0.000990   0.000008
    28  H    0.000000   0.000000  -0.000000   0.348961  -0.000016  -0.000010
    29  H    0.000001   0.000018  -0.000990  -0.000016   0.286153   0.000166
    30  H    0.000000  -0.000000   0.000008  -0.000010   0.000166   0.334301
    31  H   -0.000212   0.000000   0.000015   0.000000   0.000000  -0.000000
    32  H   -0.000001  -0.000000  -0.000000   0.000000  -0.000000  -0.000000
    33  H    0.000006   0.000000  -0.002474  -0.000002   0.000123  -0.001041
              31         32         33
     1  Zr   0.002717   0.002280  -0.013963
     2  O    0.000292  -0.000027   0.000947
     3  O   -0.000021   0.000036  -0.010290
     4  O   -0.017942   0.010952  -0.009290
     5  O   -0.000017   0.000006  -0.000097
     6  Si   0.060562   0.020014   0.051339
     7  Si   0.000093  -0.000579   0.021504
     8  Si  -0.002643   0.000093  -0.000150
     9  Si  -0.000058   0.000029   0.000057
    10  O    0.000000  -0.000000  -0.000000
    11  O   -0.000000   0.000000   0.000000
    12  O    0.000000  -0.000000   0.000000
    13  O    0.002368  -0.000007   0.000238
    14  O    0.000068  -0.000006   0.001922
    15  O   -0.000020   0.000000  -0.000053
    16  O    0.005133   0.235685   0.000208
    17  O   -0.001211  -0.003431   0.229922
    18  O    0.216686   0.003920   0.002278
    19  O    0.000002   0.000097   0.013590
    20  O   -0.000000   0.000000  -0.000095
    21  O   -0.000000   0.000001   0.001422
    22  H   -0.000000  -0.000000  -0.000000
    23  H    0.000000  -0.000000  -0.000000
    24  H    0.000000  -0.000000  -0.000000
    25  H   -0.000212  -0.000001   0.000006
    26  H    0.000000  -0.000000   0.000000
    27  H    0.000015  -0.000000  -0.002474
    28  H    0.000000   0.000000  -0.000002
    29  H    0.000000  -0.000000   0.000123
    30  H   -0.000000  -0.000000  -0.001041
    31  H    0.327333  -0.000010  -0.000036
    32  H   -0.000010   0.349136   0.000146
    33  H   -0.000036   0.000146   0.270914
 Mulliken charges:
               1
     1  Zr   0.070950
     2  O   -0.657853
     3  O   -0.436105
     4  O   -0.683105
     5  O   -0.398172
     6  Si   2.240333
     7  Si   1.803186
     8  Si   2.101184
     9  Si   1.603166
    10  O   -0.839506
    11  O   -0.786721
    12  O   -0.798833
    13  O   -0.817744
    14  O   -0.900099
    15  O   -0.868246
    16  O   -0.738216
    17  O   -0.970435
    18  O   -1.095881
    19  O   -0.988842
    20  O   -0.807443
    21  O   -0.831581
    22  H    0.384594
    23  H    0.371792
    24  H    0.364075
    25  H    0.415646
    26  H    0.366835
    27  H    0.431129
    28  H    0.376460
    29  H    0.446804
    30  H    0.411188
    31  H    0.406900
    32  H    0.381664
    33  H    0.442874
 Sum of Mulliken charges =  -0.00000
 Mulliken charges with hydrogens summed into heavy atoms:
               1
     1  Zr   0.070950
     2  O   -0.657853
     3  O   -0.436105
     4  O   -0.683105
     5  O   -0.398172
     6  Si   2.240333
     7  Si   1.803186
     8  Si   2.101184
     9  Si   1.603166
    10  O   -0.467714
    11  O   -0.422645
    12  O   -0.414239
    13  O   -0.402098
    14  O   -0.468970
    15  O   -0.501411
    16  O   -0.356552
    17  O   -0.527561
    18  O   -0.688981
    19  O   -0.577654
    20  O   -0.430984
    21  O   -0.384777
 Electronic spatial extent (au):  <R**2>=           9861.1388
 Charge=             -0.0000 electrons
 Dipole moment (field-independent basis, Debye):
    X=              2.9703    Y=             -1.4875    Z=             -3.0393  Tot=              4.5026
 Quadrupole moment (field-independent basis, Debye-Ang):
   XX=           -167.3507   YY=           -152.7236   ZZ=           -158.3016
   XY=             -7.5875   XZ=             12.6855   YZ=              2.9057
 Traceless Quadrupole moment (field-independent basis, Debye-Ang):
   XX=             -7.8921   YY=              6.7351   ZZ=              1.1570
   XY=             -7.5875   XZ=             12.6855   YZ=              2.9057
 Octapole moment (field-independent basis, Debye-Ang**2):
  XXX=             86.0995  YYY=             -6.2137  ZZZ=            -36.4341  XYY=             -5.9312
  XXY=             29.0134  XXZ=            -22.4169  XZZ=             62.4868  YZZ=            -22.5742
  YYZ=             -2.1172  XYZ=             12.8010
 Hexadecapole moment (field-independent basis, Debye-Ang**3):
 XXXX=          -6075.9282 YYYY=          -2774.2503 ZZZZ=          -2252.3115 XXXY=             17.7867
 XXXZ=            118.5937 YYYX=            -22.5341 YYYZ=            187.0672 ZZZX=             24.0276
 ZZZY=            -86.9369 XXYY=          -1531.6517 XXZZ=          -1480.2794 YYZZ=           -936.8352
 XXYZ=             12.1577 YYXZ=            173.4602 ZZXY=            -76.0426
 N-N= 2.832989545173D+03 E-N=-1.137849688004D+04  KE= 2.373149441209D+03
 PrsmSu:  requested number of processors reduced to:   2 ShMem   1 Linda.
 PrsmSu:  requested number of processors reduced to:  10 ShMem   1 Linda.
   1 Symmetry operations used in ECPInt.
 ECPInt:  NShTT=   13203 NPrTT=   78401 LenC2=   11527 LenP2D=   44667.
 LDataN:  DoStor=T MaxTD1= 9 Len=  602
 Number of processors reduced to  14 by ecpmxn.
 Calling FoFJK, ICntrl=      2127 FMM=F ISym2X=0 I1Cent= 0 IOpClX= 0 NMat=1 NMatS=1 NMatT=0.
 CoulSu:  requested number of processors reduced to:  10 ShMem   1 Linda.
 Defaulting to unpruned grid for atomic number  40.
 Defaulting to unpruned grid for atomic number  40.
 Defaulting to unpruned grid for atomic number  40.
 Defaulting to unpruned grid for atomic number  40.
 Defaulting to unpruned grid for atomic number  40.
 Defaulting to unpruned grid for atomic number  40.
 Defaulting to unpruned grid for atomic number  40.
 Defaulting to unpruned grid for atomic number  40.
 Defaulting to unpruned grid for atomic number  40.
 Defaulting to unpruned grid for atomic number  40.
 Defaulting to unpruned grid for atomic number  40.
 Defaulting to unpruned grid for atomic number  40.
 Defaulting to unpruned grid for atomic number  40.
 Defaulting to unpruned grid for atomic number  40.
 Defaulting to unpruned grid for atomic number  40.
 Defaulting to unpruned grid for atomic number  40.
 ***** Axes restored to original set *****
 -------------------------------------------------------------------
 Center     Atomic                   Forces (Hartrees/Bohr)
 Number     Number              X              Y              Z
 -------------------------------------------------------------------
      1       40           0.001413102   -0.000251293   -0.000078269
      2        8           0.000057474    0.000032715   -0.000107545
      3        8          -0.000000402    0.000152895   -0.000002485
      4        8           0.000000012    0.000028333    0.000065100
      5        8          -0.000921430   -0.000517279   -0.000328726
      6       14          -0.000116432    0.000008818   -0.000021469
      7       14          -0.000060762    0.000093848   -0.000027584
      8       14          -0.000142337   -0.000013350    0.000086471
      9       14          -0.000647500    0.001370068    0.000965798
     10        8          -0.000011007   -0.000147167   -0.000174595
     11        8           0.000001009   -0.000299882   -0.000128344
     12        8           0.000140571   -0.000331781   -0.000258841
     13        8           0.000049668    0.000015221   -0.000016203
     14        8           0.000049681   -0.000044090   -0.000009608
     15        8           0.000019710   -0.000002521   -0.000039493
     16        8           0.000020398   -0.000002158    0.000028879
     17        8           0.000038183   -0.000033091    0.000012856
     18        8           0.000039669    0.000001766   -0.000000016
     19        8           0.000017004   -0.000028643    0.000021935
     20        8           0.000010299   -0.000036892    0.000010195
     21        8           0.000023972   -0.000010782    0.000005250
     22        1          -0.000012416   -0.000091800   -0.000092812
     23        1           0.000026259    0.000004363    0.000015464
     24        1           0.000081427    0.000033236    0.000073536
     25        1          -0.000017581    0.000001142   -0.000000918
     26        1          -0.000004194   -0.000003189    0.000020192
     27        1          -0.000048025    0.000015286    0.000016833
     28        1          -0.000001731    0.000021732    0.000000244
     29        1          -0.000014162    0.000008438   -0.000017958
     30        1           0.000000555    0.000007225   -0.000007725
     31        1          -0.000014678    0.000000070   -0.000004142
     32        1          -0.000000637    0.000005149   -0.000017249
     33        1           0.000024300    0.000013614    0.000011228
 -------------------------------------------------------------------
 Cartesian Forces:  Max     0.001413102 RMS     0.000266504

 GradGradGradGradGradGradGradGradGradGradGradGradGradGradGradGradGradGrad
 Berny optimization.
 FormGI is forming the generalized inverse of G from B-inverse, IUseBI=4.
 Internal  Forces:  Max     0.001322879 RMS     0.000173411
 Search for a local minimum.
 Step number   1 out of a maximum of  148
 All quantities printed in internal units (Hartrees-Bohrs-Radians)
 Mixed Optimization -- En-DIIS/RFO-DIIS
 Second derivative matrix not updated -- first step.
 ITU=  0
     Eigenvalues ---    0.00230   0.00230   0.00230   0.00230   0.03239
     Eigenvalues ---    0.03482   0.03500   0.03541   0.03581   0.03661
     Eigenvalues ---    0.03665   0.03674   0.03688   0.03735   0.03789
     Eigenvalues ---    0.03802   0.03811   0.03828   0.03857   0.03858
     Eigenvalues ---    0.08414   0.09469   0.11097   0.11247   0.11629
     Eigenvalues ---    0.11809   0.11979   0.12095   0.12205   0.12217
     Eigenvalues ---    0.12600   0.12707   0.12970   0.13105   0.13263
     Eigenvalues ---    0.16000   0.16000   0.16000   0.16000   0.16000
     Eigenvalues ---    0.16000   0.16000   0.16000   0.16000   0.16000
     Eigenvalues ---    0.16000   0.16000   0.19184   0.19894   0.19953
     Eigenvalues ---    0.20035   0.20159   0.20200   0.20253   0.20422
     Eigenvalues ---    0.20563   0.20992   0.21009   0.21136   0.21189
     Eigenvalues ---    0.21280   0.25000   0.25000   0.25000   0.37992
     Eigenvalues ---    0.40480   0.40678   0.41116   0.41559   0.42453
     Eigenvalues ---    0.42502   0.42607   0.42768   0.43316   0.43953
     Eigenvalues ---    0.44102   0.44216   0.44422   0.44767   0.44782
     Eigenvalues ---    0.50680   0.51458   0.52211   0.52570   0.54329
     Eigenvalues ---    0.54614   0.54649   0.54671   0.54695   0.54715
     Eigenvalues ---    0.54738   0.548931000.000001000.000001000.00000
     Eigenvalues --- 1000.000001000.000001000.000001000.000001000.00000
     Eigenvalues --- 1000.000001000.000001000.000001000.000001000.00000
     Eigenvalues --- 1000.000001000.000001000.000001000.000001000.00000
     Eigenvalues --- 1000.000001000.000001000.000001000.000001000.00000
     Eigenvalues --- 1000.000001000.000001000.000001000.000001000.00000
     Eigenvalues --- 1000.000001000.000001000.000001000.000001000.00000
     Eigenvalues --- 1000.000001000.000001000.000001000.000001000.00000
     Eigenvalues --- 1000.000001000.000001000.000001000.000001000.00000
     Eigenvalues --- 1000.000001000.000001000.00000
 RFO step:  Lambda=-2.12815208D-05 EMin= 2.30000000D-03
 Linear search not attempted -- first point.
 Iteration  1 RMS(Cart)=  0.01931793 RMS(Int)=  0.00010454
 Iteration  2 RMS(Cart)=  0.00016424 RMS(Int)=  0.00000041
 Iteration  3 RMS(Cart)=  0.00000001 RMS(Int)=  0.00000041
 Iteration  1 RMS(Cart)=  0.00000000 RMS(Int)=  0.00000000
 Variable       Old X    -DE/DX   Delta X   Delta X   Delta X     New X
                                 (Linear)    (Quad)   (Total)
    R1        3.67636  -0.00003   0.00000  -0.00012  -0.00012   3.67624
    R2        3.69031   0.00021   0.00000   0.00101   0.00101   3.69132
    R3        3.73798  -0.00006   0.00000  -0.00032  -0.00032   3.73766
    R4        3.71087  -0.00132   0.00000  -0.00663  -0.00663   3.70424
    R5        3.13764   0.00011   0.00000   0.00026   0.00026   3.13791
    R6        3.09653   0.00006   0.00000   0.00013   0.00013   3.09666
    R7        3.10211   0.00001   0.00000   0.00002   0.00002   3.10213
    R8        3.09247  -0.00036   0.00000  -0.00081  -0.00081   3.09166
    R9        3.11657  -0.00001   0.00000  -0.00003  -0.00003   3.11653
   R10        3.11988  -0.00004   0.00000  -0.00009  -0.00009   3.11979
   R11        3.14342  -0.00001   0.00000  -0.00003  -0.00003   3.14340
   R12        3.18077  -0.00002   0.00000  -0.00004  -0.00004   3.18073
   R13        3.10982  -0.00001   0.00000  -0.00003  -0.00003   3.10978
   R14        3.09230  -0.00001   0.00000  -0.00003  -0.00003   3.09227
   R15        3.10032  -0.00002   0.00000  -0.00005  -0.00005   3.10027
   R16        3.14606  -0.00003   0.00000  -0.00007  -0.00007   3.14599
   R17        3.09896  -0.00002   0.00000  -0.00004  -0.00004   3.09892
   R18        3.11858   0.00007   0.00000   0.00017   0.00017   3.11875
   R19        3.13189   0.00027   0.00000   0.00066   0.00066   3.13254
   R20        3.12050  -0.00050   0.00000  -0.00118  -0.00118   3.11932
   R21        1.82145  -0.00001   0.00000  -0.00001  -0.00001   1.82144
   R22        1.82065  -0.00002   0.00000  -0.00004  -0.00004   1.82062
   R23        1.82104  -0.00006   0.00000  -0.00010  -0.00010   1.82094
   R24        1.84058   0.00000   0.00000   0.00000   0.00000   1.84058
   R25        1.84398   0.00000   0.00000   0.00000   0.00000   1.84398
   R26        1.81928   0.00001   0.00000   0.00002   0.00002   1.81929
   R27        1.82086   0.00001   0.00000   0.00002   0.00002   1.82088
   R28        1.85885   0.00002   0.00000   0.00003   0.00003   1.85888
   R29        1.82126   0.00000   0.00000   0.00001   0.00001   1.82126
   R30        1.82433   0.00001   0.00000   0.00001   0.00001   1.82435
   R31        1.82176   0.00001   0.00000   0.00002   0.00002   1.82179
   R32        1.85122  -0.00001   0.00000  -0.00001  -0.00001   1.85120
    A1        1.85569   0.00011   0.00000   0.00044   0.00044   1.85613
    A2        1.80097  -0.00009   0.00000  -0.00051  -0.00051   1.80045
    A3        1.97659  -0.00007   0.00000  -0.00041  -0.00041   1.97618
    A4        1.83906  -0.00006   0.00000  -0.00022  -0.00022   1.83885
    A5        2.01332  -0.00006   0.00000  -0.00021  -0.00021   2.01311
    A6        1.96025   0.00015   0.00000   0.00087   0.00087   1.96112
    A7        2.45892   0.00023   0.00000   0.00093   0.00093   2.45986
    A8        2.59369   0.00005   0.00000   0.00021   0.00021   2.59390
    A9        2.34042  -0.00016   0.00000  -0.00062  -0.00062   2.33980
   A10        2.86234  -0.00098   0.00000   0.00000  -0.00000   2.86234
   A11        1.92384   0.00002   0.00000   0.00010   0.00010   1.92395
   A12        1.91272  -0.00007   0.00000  -0.00046  -0.00046   1.91226
   A13        1.94584  -0.00000   0.00000  -0.00008  -0.00008   1.94576
   A14        2.00429   0.00005   0.00000   0.00030   0.00030   2.00458
   A15        1.88341  -0.00000   0.00000   0.00008   0.00008   1.88349
   A16        1.79022   0.00001   0.00000   0.00007   0.00007   1.79028
   A17        1.80104  -0.00003   0.00000  -0.00018  -0.00018   1.80086
   A18        1.99287  -0.00001   0.00000  -0.00005  -0.00005   1.99282
[...]
 Alpha virt. eigenvalues --    3.15480   3.21428   3.36536   3.41404   3.46480
 Alpha virt. eigenvalues --    3.47682   3.48336   3.48768   3.48826   3.51995
 Alpha virt. eigenvalues --    3.52851   3.53676   3.60053   3.61187   3.62131
 Alpha virt. eigenvalues --    3.65939   4.34957   4.60903   7.94851  31.27339
          Condensed to atoms (all electrons):
               1          2          3          4          5          6
     1  Zr  14.936445  -0.036450  -0.011329  -0.118156  -0.198895  -0.676046
     2  O   -0.036450   8.850219   0.016570  -0.043248  -0.058916   0.070369
     3  O   -0.011329   0.016570   8.837010   0.017653  -0.048257  -0.001767
     4  O   -0.118156  -0.043248   0.017653   8.812198  -0.059500  -0.688833
     5  O   -0.198895  -0.058916  -0.048257  -0.059500   9.418619  -0.009906
     6  Si  -0.676046   0.070369  -0.001767  -0.688833  -0.009906  14.132182
     7  Si  -0.581243  -0.022073  -0.870792  -0.009764  -0.034848   0.084010
     8  Si  -0.647761  -0.756970  -0.014955   0.064418  -0.015664   0.018929
     9  Si  -0.234704  -0.038153  -0.026550  -0.030183  -1.157534   0.036356
    10  O   -0.022522   0.001030  -0.001155   0.000307   0.118942  -0.001860
    11  O   -0.086331   0.002865   0.003273   0.001878   0.319195  -0.000061
    12  O    0.047279   0.000707   0.004383   0.001852   0.119614  -0.003153
    13  O   -0.021343   0.254851   0.001817  -0.016117  -0.000459   0.037120
    14  O   -0.024157   0.251973  -0.016881  -0.002159   0.001343   0.004431
    15  O   -0.048013   0.250146  -0.000136   0.002524   0.000747  -0.008749
    16  O   -0.137462   0.005483  -0.000258   0.346815   0.003509  -0.440098
    17  O   -0.064498  -0.040845   0.009970   0.211618   0.001078  -0.456628
    18  O   -0.013729  -0.018560   0.003824   0.196925  -0.001116  -0.474424
    19  O    0.000853   0.008429   0.265912   0.010634   0.002246  -0.007088
    20  O   -0.136731  -0.000789   0.159276  -0.000721   0.001423   0.009170
    21  O    0.028469   0.011222   0.151273   0.003435   0.000194  -0.011836
    22  H   -0.008970  -0.000007   0.000013  -0.000006   0.006507   0.000088
    23  H   -0.008152  -0.000009  -0.000005  -0.000042  -0.024199   0.000138
    24  H   -0.006298  -0.000099  -0.000010   0.000008  -0.004690   0.000149
    25  H    0.023092  -0.021273  -0.000142  -0.000758  -0.000018  -0.000368
    26  H   -0.007003  -0.014896   0.000017  -0.000012  -0.000023   0.000292
    27  H    0.004550  -0.020872   0.000718  -0.001607   0.000030   0.010032
    28  H    0.004639  -0.000011  -0.018304  -0.000013  -0.000012  -0.000265
    29  H    0.000827  -0.005438  -0.019944  -0.000201  -0.000068   0.000703
    30  H   -0.000057  -0.000012   0.000179  -0.000459  -0.000009  -0.000536
    31  H    0.002551   0.000323  -0.000020  -0.017835  -0.000015   0.060086
    32  H    0.002232  -0.000027   0.000035   0.010944   0.000004   0.020336
    33  H   -0.014471   0.000991  -0.010297  -0.009376  -0.000094   0.051747
               7          8          9         10         11         12
     1  Zr  -0.581243  -0.647761  -0.234704  -0.022522  -0.086331   0.047279
     2  O   -0.022073  -0.756970  -0.038153   0.001030   0.002865   0.000707
     3  O   -0.870792  -0.014955  -0.026550  -0.001155   0.003273   0.004383
     4  O   -0.009764   0.064418  -0.030183   0.000307   0.001878   0.001852
     5  O   -0.034848  -0.015664  -1.157534   0.118942   0.319195   0.119614
     6  Si   0.084010   0.018929   0.036356  -0.001860  -0.000061  -0.003153
     7  Si  13.766408   0.168414   0.017035   0.000439  -0.001029   0.003038
     8  Si   0.168414  13.758232   0.031196  -0.001350   0.001379  -0.001818
     9  Si   0.017035   0.031196  14.021822  -0.045439  -0.174323  -0.155099
    10  O    0.000439  -0.001350  -0.045439   8.512736   0.018089   0.030417
    11  O   -0.001029   0.001379  -0.174323   0.018089   8.524477  -0.056418
    12  O    0.003038  -0.001818  -0.155099   0.030417  -0.056418   8.587856
    13  O    0.004139  -0.130762   0.000196  -0.000000   0.000014  -0.000003
    14  O    0.011055  -0.517505  -0.001014  -0.000003   0.000002   0.000008
    15  O   -0.003860  -0.374436  -0.001291  -0.000001  -0.000015  -0.000011
    16  O    0.003851  -0.008253  -0.000784   0.000005  -0.000009  -0.000002
    17  O   -0.005961   0.092180   0.002350   0.000002   0.000005  -0.000007
    18  O   -0.001095   0.076446   0.003753   0.000002   0.000009   0.000001
    19  O   -0.416555  -0.017550   0.000968   0.000008  -0.000001  -0.000041
    20  O   -0.106551   0.009589   0.002973   0.000018  -0.000002  -0.000054
    21  O    0.028430  -0.046853  -0.001245  -0.000002   0.000001   0.000009
    22  H   -0.000074   0.000094   0.046291  -0.006522  -0.004766   0.220535
    23  H    0.000049   0.000055   0.079373   0.229612  -0.005511   0.005511
    24  H    0.000038   0.000111   0.036580   0.007246   0.242827  -0.007251
    25  H   -0.000396   0.052093  -0.000235  -0.000000  -0.000000  -0.000000
    26  H    0.000578   0.066151  -0.000163   0.000000   0.000000  -0.000001
    27  H    0.001458   0.079006   0.000024   0.000000  -0.000000   0.000000
    28  H    0.057071   0.000044  -0.000146  -0.000000  -0.000000  -0.000002
    29  H    0.048013   0.024383  -0.000089   0.000000  -0.000000  -0.000001
    30  H    0.041426   0.000138   0.000015  -0.000000   0.000000   0.000000
    31  H    0.000101  -0.002534  -0.000059   0.000000  -0.000000   0.000000
    32  H   -0.000590   0.000074   0.000018  -0.000000   0.000000  -0.000000
    33  H    0.021595  -0.000179   0.000053  -0.000000   0.000000   0.000000
              13         14         15         16         17         18
     1  Zr  -0.021343  -0.024157  -0.048013  -0.137462  -0.064498  -0.013729
     2  O    0.254851   0.251973   0.250146   0.005483  -0.040845  -0.018560
     3  O    0.001817  -0.016881  -0.000136  -0.000258   0.009970   0.003824
     4  O   -0.016117  -0.002159   0.002524   0.346815   0.211618   0.196925
     5  O   -0.000459   0.001343   0.000747   0.003509   0.001078  -0.001116
     6  Si   0.037120   0.004431  -0.008749  -0.440098  -0.456628  -0.474424
     7  Si   0.004139   0.011055  -0.003860   0.003851  -0.005961  -0.001095
     8  Si  -0.130762  -0.517505  -0.374436  -0.008253   0.092180   0.076446
     9  Si   0.000196  -0.001014  -0.001291  -0.000784   0.002350   0.003753
    10  O   -0.000000  -0.000003  -0.000001   0.000005   0.000002   0.000002
    11  O    0.000014   0.000002  -0.000015  -0.000009   0.000005   0.000009
    12  O   -0.000003   0.000008  -0.000011  -0.000002  -0.000007   0.000001
    13  O    8.639740   0.023300  -0.116115   0.003873  -0.028379  -0.042016
    14  O    0.023300   8.818460   0.156513   0.002770  -0.028523  -0.022752
    15  O   -0.116115   0.156513   8.772357  -0.000164   0.003761   0.001118
    16  O    0.003873   0.002770  -0.000164   8.919529  -0.095026  -0.105640
    17  O   -0.028379  -0.028523   0.003761  -0.095026   8.945210   0.221647
    18  O   -0.042016  -0.022752   0.001118  -0.105640   0.221647   9.033362
    19  O    0.000228   0.002217   0.000320  -0.001198  -0.032089   0.000137
    20  O    0.000010  -0.000915   0.000005   0.000058  -0.000730   0.000012
    21  O   -0.000529   0.025792   0.000855  -0.000192  -0.005690   0.000399
    22  H   -0.000000  -0.000000   0.000000   0.000000   0.000000  -0.000000
    23  H    0.000000   0.000000   0.000000  -0.000000   0.000000   0.000000
    24  H   -0.000000   0.000000   0.000001   0.000000  -0.000000  -0.000000
    25  H    0.217141  -0.009307   0.007617  -0.000250   0.000587   0.015406
    26  H   -0.006738   0.001557   0.225110   0.000000  -0.000020   0.000011
    27  H   -0.004582   0.206005  -0.000027   0.000292   0.018122  -0.000813
    28  H    0.000000  -0.000003  -0.000001  -0.000000   0.000002  -0.000000
    29  H    0.000771   0.013560  -0.001446  -0.000003  -0.000733  -0.000002
    30  H    0.000001  -0.000015   0.000001   0.000104  -0.000454  -0.000007
    31  H    0.002393   0.000065  -0.000020   0.005301  -0.001206   0.216972
    32  H   -0.000006  -0.000007   0.000000   0.235515  -0.003494   0.003946
    33  H    0.000237   0.001928  -0.000053   0.000192   0.229735   0.002303
              19         20         21         22         23         24
     1  Zr   0.000853  -0.136731   0.028469  -0.008970  -0.008152  -0.006298
     2  O    0.008429  -0.000789   0.011222  -0.000007  -0.000009  -0.000099
     3  O    0.265912   0.159276   0.151273   0.000013  -0.000005  -0.000010
     4  O    0.010634  -0.000721   0.003435  -0.000006  -0.000042   0.000008
     5  O    0.002246   0.001423   0.000194   0.006507  -0.024199  -0.004690
     6  Si  -0.007088   0.009170  -0.011836   0.000088   0.000138   0.000149
     7  Si  -0.416555  -0.106551   0.028430  -0.000074   0.000049   0.000038
     8  Si  -0.017550   0.009589  -0.046853   0.000094   0.000055   0.000111
     9  Si   0.000968   0.002973  -0.001245   0.046291   0.079373   0.036580
    10  O    0.000008   0.000018  -0.000002  -0.006522   0.229612   0.007246
    11  O   -0.000001  -0.000002   0.000001  -0.004766  -0.005511   0.242827
    12  O   -0.000041  -0.000054   0.000009   0.220535   0.005511  -0.007251
    13  O    0.000228   0.000010  -0.000529  -0.000000   0.000000  -0.000000
    14  O    0.002217  -0.000915   0.025792  -0.000000   0.000000   0.000000
    15  O    0.000320   0.000005   0.000855   0.000000   0.000000   0.000001
    16  O   -0.001198   0.000058  -0.000192   0.000000  -0.000000   0.000000
    17  O   -0.032089  -0.000730  -0.005690   0.000000   0.000000  -0.000000
    18  O    0.000137   0.000012   0.000399  -0.000000   0.000000  -0.000000
    19  O    8.880388   0.033673   0.024143  -0.000000   0.000000  -0.000000
    20  O    0.033673   8.656994  -0.054917   0.000000   0.000000  -0.000000
    21  O    0.024143  -0.054917   8.482514  -0.000000   0.000000   0.000000
    22  H   -0.000000   0.000000  -0.000000   0.362312   0.000067   0.000124
    23  H    0.000000   0.000000   0.000000   0.000067   0.350811   0.000018
    24  H   -0.000000  -0.000000   0.000000   0.000124   0.000018   0.367611
    25  H   -0.000034   0.000000  -0.000013   0.000000   0.000000   0.000000
    26  H    0.000000  -0.000000   0.000039  -0.000000   0.000000  -0.000000
    27  H   -0.000212   0.000223  -0.004744  -0.000000  -0.000000   0.000000
    28  H    0.004297   0.228836  -0.001654  -0.000000   0.000000   0.000000
    29  H   -0.008636   0.008023   0.208141   0.000000  -0.000000  -0.000000
    30  H    0.223643  -0.001506  -0.007196   0.000000  -0.000000  -0.000000
    31  H    0.000002  -0.000000  -0.000000  -0.000000   0.000000   0.000000
    32  H    0.000095   0.000000   0.000001  -0.000000  -0.000000  -0.000000
    33  H    0.013793  -0.000096   0.001401  -0.000000  -0.000000  -0.000000
              25         26         27         28         29         30
     1  Zr   0.023092  -0.007003   0.004550   0.004639   0.000827  -0.000057
     2  O   -0.021273  -0.014896  -0.020872  -0.000011  -0.005438  -0.000012
     3  O   -0.000142   0.000017   0.000718  -0.018304  -0.019944   0.000179
     4  O   -0.000758  -0.000012  -0.001607  -0.000013  -0.000201  -0.000459
     5  O   -0.000018  -0.000023   0.000030  -0.000012  -0.000068  -0.000009
     6  Si  -0.000368   0.000292   0.010032  -0.000265   0.000703  -0.000536
     7  Si  -0.000396   0.000578   0.001458   0.057071   0.048013   0.041426
     8  Si   0.052093   0.066151   0.079006   0.000044   0.024383   0.000138
     9  Si  -0.000235  -0.000163   0.000024  -0.000146  -0.000089   0.000015
    10  O   -0.000000   0.000000   0.000000  -0.000000   0.000000  -0.000000
    11  O   -0.000000   0.000000  -0.000000  -0.000000  -0.000000   0.000000
    12  O   -0.000000  -0.000001   0.000000  -0.000002  -0.000001   0.000000
    13  O    0.217141  -0.006738  -0.004582   0.000000   0.000771   0.000001
    14  O   -0.009307   0.001557   0.206005  -0.000003   0.013560  -0.000015
    15  O    0.007617   0.225110  -0.000027  -0.000001  -0.001446   0.000001
    16  O   -0.000250   0.000000   0.000292  -0.000000  -0.000003   0.000104
    17  O    0.000587  -0.000020   0.018122   0.000002  -0.000733  -0.000454
    18  O    0.015406   0.000011  -0.000813  -0.000000  -0.000002  -0.000007
    19  O   -0.000034   0.000000  -0.000212   0.004297  -0.008636   0.223643
    20  O    0.000000  -0.000000   0.000223   0.228836   0.008023  -0.001506
    21  O   -0.000013   0.000039  -0.004744  -0.001654   0.208141  -0.007196
    22  H    0.000000  -0.000000  -0.000000  -0.000000   0.000000   0.000000
    23  H    0.000000   0.000000  -0.000000   0.000000  -0.000000  -0.000000
    24  H    0.000000  -0.000000   0.000000   0.000000  -0.000000  -0.000000
    25  H    0.301159  -0.000035   0.000048   0.000000   0.000001   0.000000
    26  H   -0.000035   0.368364  -0.000038   0.000000   0.000016  -0.000000
    27  H    0.000048  -0.000038   0.284618  -0.000000  -0.000997   0.000008
    28  H    0.000000   0.000000  -0.000000   0.349079  -0.000016  -0.000011
    29  H    0.000001   0.000016  -0.000997  -0.000016   0.286246   0.000165
    30  H    0.000000  -0.000000   0.000008  -0.000011   0.000165   0.334277
    31  H   -0.000219   0.000000   0.000015   0.000000   0.000000  -0.000000
    32  H   -0.000001  -0.000000  -0.000000   0.000000  -0.000000  -0.000000
    33  H    0.000006   0.000000  -0.002485  -0.000002   0.000125  -0.001040
              31         32         33
     1  Zr   0.002551   0.002232  -0.014471
     2  O    0.000323  -0.000027   0.000991
     3  O   -0.000020   0.000035  -0.010297
     4  O   -0.017835   0.010944  -0.009376
     5  O   -0.000015   0.000004  -0.000094
     6  Si   0.060086   0.020336   0.051747
     7  Si   0.000101  -0.000590   0.021595
     8  Si  -0.002534   0.000074  -0.000179
     9  Si  -0.000059   0.000018   0.000053
    10  O    0.000000  -0.000000  -0.000000
    11  O   -0.000000   0.000000   0.000000
    12  O    0.000000  -0.000000   0.000000
    13  O    0.002393  -0.000006   0.000237
    14  O    0.000065  -0.000007   0.001928
    15  O   -0.000020   0.000000  -0.000053
    16  O    0.005301   0.235515   0.000192
    17  O   -0.001206  -0.003494   0.229735
    18  O    0.216972   0.003946   0.002303
    19  O    0.000002   0.000095   0.013793
    20  O   -0.000000   0.000000  -0.000096
    21  O   -0.000000   0.000001   0.001401
    22  H   -0.000000  -0.000000  -0.000000
    23  H    0.000000  -0.000000  -0.000000
    24  H    0.000000  -0.000000  -0.000000
    25  H   -0.000219  -0.000001   0.000006
    26  H    0.000000  -0.000000   0.000000
    27  H    0.000015  -0.000000  -0.002485
    28  H    0.000000   0.000000  -0.000002
    29  H    0.000000  -0.000000   0.000125
    30  H   -0.000000  -0.000000  -0.001040
    31  H    0.327182  -0.000011  -0.000036
    32  H   -0.000011   0.349107   0.000148
    33  H   -0.000036   0.000148   0.270695
 Mulliken charges:
               1
     1  Zr   0.053382
     2  O   -0.646532
     3  O   -0.431123
     4  O   -0.682220
     5  O   -0.379231
     6  Si   2.245481
     7  Si   1.797683
     8  Si   2.093659
     9  Si   1.588009
    10  O   -0.839998
    11  O   -0.785548
    12  O   -0.797351
    13  O   -0.818782
    14  O   -0.897735
    15  O   -0.866735
    16  O   -0.737958
    17  O   -0.971986
    18  O   -1.096116
    19  O   -0.988583
    20  O   -0.807270
    21  O   -0.831447
    22  H    0.384314
    23  H    0.372283
    24  H    0.363636
    25  H    0.415899
    26  H    0.366796
    27  H    0.431231
    28  H    0.376471
    29  H    0.446600
    30  H    0.411345
    31  H    0.406963
    32  H    0.381681
    33  H    0.443182
 Sum of Mulliken charges =  -0.00000
 Mulliken charges with hydrogens summed into heavy atoms:
               1
     1  Zr   0.053382
     2  O   -0.646532
     3  O   -0.431123
     4  O   -0.682220
     5  O   -0.379231
     6  Si   2.245481
     7  Si   1.797683
     8  Si   2.093659
     9  Si   1.588009
    10  O   -0.467715
    11  O   -0.421912
    12  O   -0.413038
    13  O   -0.402882
    14  O   -0.466504
    15  O   -0.499939
    16  O   -0.356277
    17  O   -0.528804
    18  O   -0.689153
    19  O   -0.577238
    20  O   -0.430799
    21  O   -0.384846
 Electronic spatial extent (au):  <R**2>=           9860.0416
 Charge=              0.0000 electrons
 Dipole moment (field-independent basis, Debye):
    X=              3.0262    Y=             -1.5349    Z=             -2.8090  Tot=              4.4050
 Quadrupole moment (field-independent basis, Debye-Ang):
   XX=           -167.1447   YY=           -152.5098   ZZ=           -157.9256
   XY=             -7.2294   XZ=             12.8946   YZ=              2.3251
 Traceless Quadrupole moment (field-independent basis, Debye-Ang):
   XX=             -7.9513   YY=              6.6835   ZZ=              1.2677
   XY=             -7.2294   XZ=             12.8946   YZ=              2.3251
 Octapole moment (field-independent basis, Debye-Ang**2):
  XXX=             92.5824  YYY=             -2.6505  ZZZ=            -30.9592  XYY=             -5.0916
  XXY=             28.5406  XXZ=            -21.6193  XZZ=             58.9592  YZZ=            -28.5361
  YYZ=             -1.9959  XYZ=             14.6276
 Hexadecapole moment (field-independent basis, Debye-Ang**3):
 XXXX=          -6056.7770 YYYY=          -2782.3823 ZZZZ=          -2246.7821 XXXY=             24.2154
 XXXZ=            117.2041 YYYX=             -4.2459 YYYZ=            179.6845 ZZZX=             19.1501
 ZZZY=            -99.4354 XXYY=          -1518.3237 XXZZ=          -1494.5829 YYZZ=           -920.7871
 XXYZ=             20.8991 YYXZ=            170.8588 ZZXY=            -90.8424
 N-N= 2.833149881665D+03 E-N=-1.137885040201D+04  KE= 2.373154626663D+03
 1\1\GINC-GRA1217\FOpt\RB3LYP\Gen\H12O16Si4Zr1\SARASHS\02-Aug-2020\0\\#
 n B3LYP/Gen Pseudo=cards EmpiricalDispersion=GD3 Opt=modredundant\\Tit
 le\\0,1\Zr,0.6461733716,-0.2011670969,-0.1353822797\O,-0.2100326284,-0
 .9523627235,1.4418804025\O,0.181165379,1.6958953157,-0.1612768282\O,-0
 .3690434793,-1.0102627213,-1.6281382464\O,2.5642158337,-0.5969123586,-
 0.2284274663\Si,-1.9603083972,-1.3167787546,-1.889788657\Si,-0.9767740
 159,2.8527794032,-0.0867057833\Si,-1.6975093613,-1.0741985476,2.169415
 9179\Si,4.195292649,-0.5006065646,-0.1495821199\O,4.8982179894,0.06891
 85881,-1.5302182589\O,4.8493030199,-2.0066704299,0.0803499043\O,4.5024
 834912,0.5654363005,1.072134186\O,-2.3606155253,-2.5298798083,1.804280
 2957\O,-2.6334414773,0.1969029863,1.6407022836\O,-1.5865578709,-0.8653
 71919,3.7922603985\O,-2.2378977214,-1.5587582338,-3.497320505\O,-2.873
 5110267,-0.126778605,-1.1998705189\O,-2.4611022631,-2.6770074212,-1.07
 36800581\O,-1.9890253408,2.4665123833,-1.3748725378\O,-0.4258789429,4.
 3777437547,-0.367796192\O,-1.7547097465,2.853766568,1.353028183\H,5.39
 84578384,0.9156771682,1.1281477055\H,5.212427162,-0.5990392015,-2.1500
 423434\H,4.432115415,-2.5749458936,0.7370491547\H,-2.4231356604,-2.755
 7994664,0.8588882548\H,-1.0181387572,-1.47096619,4.2790369275\H,-3.033
 6106974,0.0459558299,0.7635609716\H,-0.2733926647,4.9229928916,0.41247
 719\H,-2.0975621455,1.9887510049,1.6592706116\H,-2.584241412,3.1733371
 2,-1.6543418315\H,-2.5665646622,-3.4767876506,-1.6010207273\H,-1.53270
 91746,-1.2997370596,-4.1007291163\H,-2.6261091782,0.8032513313,-1.4037
 589169\\Version=ES64L-G16RevB.01\State=1-A\HF=-2416.9458242\RMSD=2.266
 e-09\RMSF=4.687e-05\Dipole=1.1235827,-0.6360728,-1.1560732\Quadrupole=
 -5.7864579,5.4044317,0.3820261,-4.9912088,9.7672387,1.5227277\PG=C01 [
 X(H12O16Si4Zr1)]\\@


 ONE THORN OF EXPERIENCE IS WORTH A WHOLE WILDERNESS OF
 WARNING....  LOWELL - AMONG MY BOOKS
 Job cpu time:       1 days  0 hours 48 minutes  7.0 seconds.
 Elapsed time:       0 days  1 hours 53 minutes  2.2 seconds.
 File lengths (MBytes):  RWF=    167 Int=      0 D2E=      0 Chk=     21 Scr=      1
 Normal termination of Gaussian 16 at Sun Aug  2 08:56:09 2020.
