 Entering Gaussian System, Link 0=g16
 Initial command:
 /opt/software/gaussian/g16.b01/l1.exe "/localscratch/sarashs.37192508.0/Gau-8330.inp" -scrdir="/localscratch/sarashs.37192508.0/"
 Entering Link 1 = /opt/software/gaussian/g16.b01/l1.exe PID=      8331.
  
 Copyright (c) 1988-2017, Gaussian, Inc.  All Rights Reserved.
  
 This is part of the Gaussian(R) 16 program.  It is based on
 the Gaussian(R) 09 system (copyright 2009, Gaussian, Inc.),
 the Gaussian(R) 03 system (copyright 2003, Gaussian, Inc.),
 the Gaussian(R) 98 system (copyright 1998, Gaussian, Inc.),
 the Gaussian(R) 94 system (copyright 1995, Gaussian, Inc.),
 the Gaussian 92(TM) system (copyright 1992, Gaussian, Inc.),
 the Gaussian 90(TM) system (copyright 1990, Gaussian, Inc.),
 the Gaussian 88(TM) system (copyright 1988, Gaussian, Inc.),
 the Gaussian 86(TM) system (copyright 1986, Carnegie Mellon
 University), and the Gaussian 82(TM) system (copyright 1983,
 Carnegie Mellon University). Gaussian is a federally registered
 trademark of Gaussian, Inc.
  
 This software contains proprietary and confidential information,
 including trade secrets, belonging to Gaussian, Inc.
  
 This software is provided under written license and may be
 used, copied, transmitted, or stored only in accord with that
 written license.
  
 The following legend is applicable only to US Government
 contracts under FAR:
  
                    RESTRICTED RIGHTS LEGEND
  
 Use, reproduction and disclosure by the US Government is
 subject to restrictions as set forth in subparagraphs (a)
 and (c) of the Commercial Computer Software - Restricted
 Rights clause in FAR 52.227-19.
  
 Gaussian, Inc.
 340 Quinnipiac St., Bldg. 40, Wallingford CT 06492
  
  
 ---------------------------------------------------------------
 Warning -- This program may not be used in any manner that
 competes with the business of Gaussian, Inc. or will provide
 assistance to any competitor of Gaussian, Inc.  The licensee
 of this program is prohibited from giving any competitor of
 Gaussian, Inc. access to this program.  By using this program,
 the user acknowledges that Gaussian, Inc. is engaged in the
 business of creating and licensing software in the field of
 computational chemistry and represents and warrants to the
 licensee that it is not a competitor of Gaussian, Inc. and that
 it will not use this program in any manner prohibited above.
 ---------------------------------------------------------------
  

 Cite this work as:
 Gaussian 16, Revision B.01,
 M. J. Frisch, G. W. Trucks, H. B. Schlegel, G. E. Scuseria, 
 M. A. Robb, J. R. Cheeseman, G. Scalmani, V. Barone, 
 G. A. Petersson, H. Nakatsuji, X. Li, M. Caricato, A. V. Marenich, 
 J. Bloino, B. G. Janesko, R. Gomperts, B. Mennucci, H. P. Hratchian, 
 J. V. Ortiz, A. F. Izmaylov, J. L. Sonnenberg, D. Williams-Young, 
 F. Ding, F. Lipparini, F. Egidi, J. Goings, B. Peng, A. Petrone, 
 T. Henderson, D. Ranasinghe, V. G. Zakrzewski, J. Gao, N. Rega, 
 G. Zheng, W. Liang, M. Hada, M. Ehara, K. Toyota, R. Fukuda, 
 J. Hasegawa, M. Ishida, T. Nakajima, Y. Honda, O. Kitao, H. Nakai, 
 T. Vreven, K. Throssell, J. A. Montgomery, Jr., J. E. Peralta, 
 F. Ogliaro, M. J. Bearpark, J. J. Heyd, E. N. Brothers, K. N. Kudin, 
 V. N. Staroverov, T. A. Keith, R. Kobayashi, J. Normand, 
 K. Raghavachari, A. P. Rendell, J. C. Burant, S. S. Iyengar, 
 J. Tomasi, M. Cossi, J. M. Millam, M. Klene, C. Adamo, R. Cammi, 
 J. W. Ochterski, R. L. Martin, K. Morokuma, O. Farkas, 
 J. B. Foresman, and D. J. Fox, Gaussian, Inc., Wallingford CT, 2016.
 
 ******************************************
 Gaussian 16:  ES64L-G16RevB.01 20-Dec-2017
                12-Aug-2020 
 ******************************************
 %NProcShared=16
 Will use up to   16 processors via shared memory.
 ------------------------------------------------------------------
 #n B3LYP/Gen Pseudo=cards EmpiricalDispersion=GD3 Opt=modredundant
 ------------------------------------------------------------------
 1/18=120,19=15,26=3,38=1/1,3;
 2/9=110,12=2,17=6,18=5,40=1/2;
 3/5=7,11=2,16=1,17=8,25=1,30=1,71=1,74=-5,124=31/1,2,3;
 4//1;
 5/5=2,38=5/2;
 6/7=2,8=2,9=2,10=2,28=1/1;
 7//1,2,3,16;
 1/18=20,19=15,26=3/3(2);
 2/9=110/2;
 99//99;
 2/9=110/2;
 3/5=7,6=1,11=2,16=1,17=8,25=1,30=1,71=1,74=-5,82=7,124=31/1,2,3;
 4/5=5,16=3,69=1/1;
 5/5=2,38=5/2;
 7//1,2,3,16;
 1/18=20,19=15,26=3/3(-5);
 2/9=110/2;
 6/7=2,8=2,9=2,10=2,19=2,28=1/1;
 99/9=1/99;
 -----
 Title
 -----
 Symbolic Z-matrix:
 Charge =  0 Multiplicity = 1
 Zr                    0.65779  -0.12506  -0.07164 
 O                    -0.22285  -0.90624   1.4773 
 O                     0.10302   1.74748  -0.12299 
 O                    -0.2683   -0.97885  -1.59705 
 O                     2.59206  -0.4363   -0.08284 
 Si                   -1.83119  -1.33244  -1.9536 
 Si                   -1.1155    2.84172  -0.08279 
 Si                   -1.72376  -1.15291   2.11517 
 Si                    4.19744  -0.14364   0.04008 
 O                     4.94868   0.06828  -1.41467 
 O                     4.96352  -1.43544   0.74106 
 O                     4.31258   1.26146   0.89709 
 O                    -2.31924  -2.624     1.69627 
 O                    -2.72422   0.06508   1.55086 
 O                    -1.59734  -1.01957   3.74439 
 O                    -2.00144  -1.55965  -3.57782 
 O                    -2.82509  -0.18676  -1.30145 
 O                    -2.34448  -2.71439  -1.18277 
 O                    -2.04046   2.43957  -1.43023 
 O                    -0.63565   4.40049  -0.29987 
 O                    -1.96551   2.76086   1.31383 
 H                     5.17033   1.70046   0.90011 
 H                     5.36177  -0.71639  -1.79251 
 H                     4.54299  -1.83554   1.5103 
 H                    -2.40577  -2.80951   0.74392 
 H                    -2.38137  -1.22423   4.26535 
 H                    -3.06034  -0.08306   0.64589 
 H                    -0.52731   4.92728   0.50015 
 H                    -2.26909   1.86932   1.58533 
 H                    -2.64854   3.12676  -1.73014 
 H                    -2.30452  -3.52952  -1.69562 
 H                    -1.27114  -1.26305  -4.13223 
 H                    -2.61026   0.75461  -1.48993 
 
 The following ModRedundant input section has been read:
 A       1       5       9 F                                                   
 D       1       5       9      12 F                                           
 D       3       1       5       9 F                                           
 

 GradGradGradGradGradGradGradGradGradGradGradGradGradGradGradGradGradGrad
 Berny optimization.
 Initialization pass.
                           ----------------------------
                           !    Initial Parameters    !
                           ! (Angstroms and Degrees)  !
 --------------------------                            --------------------------
 ! Name  Definition              Value          Derivative Info.                !
 --------------------------------------------------------------------------------
 ! R1    R(1,2)                  1.9455         estimate D2E/DX2                !
 ! R2    R(1,3)                  1.9537         estimate D2E/DX2                !
 ! R3    R(1,4)                  1.9783         estimate D2E/DX2                !
 ! R4    R(1,5)                  1.9592         estimate D2E/DX2                !
 ! R5    R(2,8)                  1.6494         estimate D2E/DX2                !
 ! R6    R(3,7)                  1.6382         estimate D2E/DX2                !
 ! R7    R(4,6)                  1.6416         estimate D2E/DX2                !
 ! R8    R(5,9)                  1.6365         estimate D2E/DX2                !
 ! R9    R(6,16)                 1.6488         estimate D2E/DX2                !
 ! R10   R(6,17)                 1.651          estimate D2E/DX2                !
 ! R11   R(6,18)                 1.6636         estimate D2E/DX2                !
 ! R12   R(7,19)                 1.6831         estimate D2E/DX2                !
 ! R13   R(7,20)                 1.6453         estimate D2E/DX2                !
 ! R14   R(7,21)                 1.6369         estimate D2E/DX2                !
 ! R15   R(8,13)                 1.6414         estimate D2E/DX2                !
 ! R16   R(8,14)                 1.6742         estimate D2E/DX2                !
 ! R17   R(8,15)                 1.6395         estimate D2E/DX2                !
 ! R18   R(9,10)                 1.6509         estimate D2E/DX2                !
 ! R19   R(9,11)                 1.6574         estimate D2E/DX2                !
 ! R20   R(9,12)                 1.6499         estimate D2E/DX2                !
 ! R21   R(10,23)                0.9639         estimate D2E/DX2                !
 ! R22   R(11,24)                0.9637         estimate D2E/DX2                !
 ! R23   R(12,22)                0.9636         estimate D2E/DX2                !
 ! R24   R(13,25)                0.9741         estimate D2E/DX2                !
 ! R25   R(14,27)                0.9767         estimate D2E/DX2                !
 ! R26   R(15,26)                0.9633         estimate D2E/DX2                !
 ! R27   R(16,32)                0.9637         estimate D2E/DX2                !
 ! R28   R(17,33)                0.9838         estimate D2E/DX2                !
 ! R29   R(18,31)                0.9639         estimate D2E/DX2                !
 ! R30   R(19,30)                0.9654         estimate D2E/DX2                !
 ! R31   R(20,28)                0.964          estimate D2E/DX2                !
 ! R32   R(21,29)                0.9802         estimate D2E/DX2                !
 ! A1    A(2,1,3)              106.0959         estimate D2E/DX2                !
 ! A2    A(2,1,4)              103.2214         estimate D2E/DX2                !
 ! A3    A(2,1,5)              112.8091         estimate D2E/DX2                !
 ! A4    A(3,1,4)              105.0977         estimate D2E/DX2                !
 ! A5    A(3,1,5)              115.6243         estimate D2E/DX2                !
 ! A6    A(4,1,5)              112.9055         estimate D2E/DX2                !
 ! A7    A(1,2,8)              141.2479         estimate D2E/DX2                !
 ! A8    A(1,3,7)              148.2962         estimate D2E/DX2                !
 ! A9    A(1,4,6)              134.9216         estimate D2E/DX2                !
 ! A10   A(1,5,9)              160.0001         Frozen                          !
 ! A11   A(4,6,16)             109.9952         estimate D2E/DX2                !
 ! A12   A(4,6,17)             109.7479         estimate D2E/DX2                !
 ! A13   A(4,6,18)             111.8422         estimate D2E/DX2                !
 ! A14   A(16,6,17)            114.9972         estimate D2E/DX2                !
 ! A15   A(16,6,18)            108.0658         estimate D2E/DX2                !
 ! A16   A(17,6,18)            101.9869         estimate D2E/DX2                !
 ! A17   A(3,7,19)             103.269          estimate D2E/DX2                !
 ! A18   A(3,7,20)             114.3706         estimate D2E/DX2                !
 ! A19   A(3,7,21)             111.9733         estimate D2E/DX2                !
 ! A20   A(19,7,20)            106.3205         estimate D2E/DX2                !
 ! A21   A(19,7,21)            112.6973         estimate D2E/DX2                !
 ! A22   A(20,7,21)            108.1076         estimate D2E/DX2                !
 ! A23   A(2,8,13)             111.4365         estimate D2E/DX2                !
 ! A24   A(2,8,14)             107.7362         estimate D2E/DX2                !
 ! A25   A(2,8,15)             107.5759         estimate D2E/DX2                !
 ! A26   A(13,8,14)            110.4391         estimate D2E/DX2                !
 ! A27   A(13,8,15)            110.7606         estimate D2E/DX2                !
 ! A28   A(14,8,15)            108.7751         estimate D2E/DX2                !
 ! A29   A(5,9,10)             113.7763         estimate D2E/DX2                !
 ! A30   A(5,9,11)             110.2317         estimate D2E/DX2                !
 ! A31   A(5,9,12)             105.0574         estimate D2E/DX2                !
 ! A32   A(10,9,11)            105.2126         estimate D2E/DX2                !
 ! A33   A(10,9,12)            108.46           estimate D2E/DX2                !
 ! A34   A(11,9,12)            114.3201         estimate D2E/DX2                !
 ! A35   A(9,10,23)            115.8442         estimate D2E/DX2                !
 ! A36   A(9,11,24)            117.355          estimate D2E/DX2                !
 ! A37   A(9,12,22)            116.8568         estimate D2E/DX2                !
 ! A38   A(8,13,25)            116.8991         estimate D2E/DX2                !
 ! A39   A(8,14,27)            114.056          estimate D2E/DX2                !
 ! A40   A(8,15,26)            117.2166         estimate D2E/DX2                !
 ! A41   A(6,16,32)            116.4907         estimate D2E/DX2                !
 ! A42   A(6,17,33)            117.1859         estimate D2E/DX2                !
 ! A43   A(6,18,31)            116.3076         estimate D2E/DX2                !
 ! A44   A(7,19,30)            115.1373         estimate D2E/DX2                !
 ! A45   A(7,20,28)            116.1676         estimate D2E/DX2                !
 ! A46   A(7,21,29)            116.2372         estimate D2E/DX2                !
 ! D1    D(3,1,2,8)             57.7292         estimate D2E/DX2                !
 ! D2    D(4,1,2,8)            -52.5301         estimate D2E/DX2                !
 ! D3    D(5,1,2,8)           -174.7067         estimate D2E/DX2                !
 ! D4    D(2,1,3,7)            -50.098          estimate D2E/DX2                !
 ! D5    D(4,1,3,7)             58.8315         estimate D2E/DX2                !
 ! D6    D(5,1,3,7)           -175.9641         estimate D2E/DX2                !
 ! D7    D(2,1,4,6)             42.7683         estimate D2E/DX2                !
 ! D8    D(3,1,4,6)            -68.2312         estimate D2E/DX2                !
 ! D9    D(5,1,4,6)            164.8802         estimate D2E/DX2                !
 ! D10   D(2,1,5,9)           -106.9246         estimate D2E/DX2                !
 ! D11   D(3,1,5,9)             15.4386         Frozen                          !
 ! D12   D(4,1,5,9)            136.5208         estimate D2E/DX2                !
 ! D13   D(1,2,8,13)            93.5308         estimate D2E/DX2                !
 ! D14   D(1,2,8,14)           -27.7655         estimate D2E/DX2                !
 ! D15   D(1,2,8,15)          -144.8802         estimate D2E/DX2                !
 ! D16   D(1,3,7,19)           -61.1012         estimate D2E/DX2                !
 ! D17   D(1,3,7,20)          -176.1751         estimate D2E/DX2                !
 ! D18   D(1,3,7,21)            60.409          estimate D2E/DX2                !
 ! D19   D(1,4,6,16)           160.167          estimate D2E/DX2                !
 ! D20   D(1,4,6,17)            32.6925         estimate D2E/DX2                !
 ! D21   D(1,4,6,18)           -79.742          estimate D2E/DX2                !
 ! D22   D(1,5,9,10)          -100.1295         estimate D2E/DX2                !
 ! D23   D(1,5,9,11)           141.9684         estimate D2E/DX2                !
 ! D24   D(1,5,9,12)            18.3492         Frozen                          !
 ! D25   D(4,6,16,32)          -14.1998         estimate D2E/DX2                !
 ! D26   D(17,6,16,32)         110.2979         estimate D2E/DX2                !
 ! D27   D(18,6,16,32)        -136.5531         estimate D2E/DX2                !
 ! D28   D(4,6,17,33)           51.0095         estimate D2E/DX2                !
 ! D29   D(16,6,17,33)         -73.6179         estimate D2E/DX2                !
 ! D30   D(18,6,17,33)         169.7166         estimate D2E/DX2                !
 ! D31   D(4,6,18,31)          -96.4424         estimate D2E/DX2                !
 ! D32   D(16,6,18,31)          24.7715         estimate D2E/DX2                !
 ! D33   D(17,6,18,31)         146.349          estimate D2E/DX2                !
 ! D34   D(3,7,19,30)         -162.1837         estimate D2E/DX2                !
 ! D35   D(20,7,19,30)         -41.4662         estimate D2E/DX2                !
 ! D36   D(21,7,19,30)          76.796          estimate D2E/DX2                !
 ! D37   D(3,7,20,28)          -98.427          estimate D2E/DX2                !
 ! D38   D(19,7,20,28)         148.2947         estimate D2E/DX2                !
 ! D39   D(21,7,20,28)          27.0455         estimate D2E/DX2                !
 ! D40   D(3,7,21,29)          -49.8995         estimate D2E/DX2                !
 ! D41   D(19,7,21,29)          66.0156         estimate D2E/DX2                !
 ! D42   D(20,7,21,29)        -176.7753         estimate D2E/DX2                !
 ! D43   D(2,8,13,25)          -58.468          estimate D2E/DX2                !
 ! D44   D(14,8,13,25)          61.2404         estimate D2E/DX2                !
 ! D45   D(15,8,13,25)        -178.1888         estimate D2E/DX2                !
 ! D46   D(2,8,14,27)           80.2918         estimate D2E/DX2                !
 ! D47   D(13,8,14,27)         -41.6247         estimate D2E/DX2                !
 ! D48   D(15,8,14,27)        -163.3756         estimate D2E/DX2                !
 ! D49   D(2,8,15,26)         -174.1994         estimate D2E/DX2                !
 ! D50   D(13,8,15,26)         -52.1897         estimate D2E/DX2                !
 ! D51   D(14,8,15,26)          69.3652         estimate D2E/DX2                !
 ! D52   D(5,9,10,23)          -94.8506         estimate D2E/DX2                !
 ! D53   D(11,9,10,23)          25.9075         estimate D2E/DX2                !
 ! D54   D(12,9,10,23)         148.6399         estimate D2E/DX2                !
 ! D55   D(5,9,11,24)          -43.8205         estimate D2E/DX2                !
 ! D56   D(10,9,11,24)        -166.8795         estimate D2E/DX2                !
 ! D57   D(12,9,11,24)          74.2395         estimate D2E/DX2                !
 ! D58   D(5,9,12,22)         -166.4773         estimate D2E/DX2                !
 ! D59   D(10,9,12,22)         -44.475          estimate D2E/DX2                !
 ! D60   D(11,9,12,22)          72.554          estimate D2E/DX2                !
 --------------------------------------------------------------------------------
 Trust Radius=3.00D-01 FncErr=1.00D-07 GrdErr=1.00D-06 EigMax=2.50D+02 EigMin=1.00D-04
 Number of steps in this run=    148 maximum allowed number of steps=    198.
 GradGradGradGradGradGradGradGradGradGradGradGradGradGradGradGradGradGrad

                          Input orientation:                          
 ---------------------------------------------------------------------
 Center     Atomic      Atomic             Coordinates (Angstroms)
 Number     Number       Type             X           Y           Z
 ---------------------------------------------------------------------
      1         40           0        0.657790   -0.125060   -0.071640
      2          8           0       -0.222850   -0.906240    1.477300
      3          8           0        0.103020    1.747480   -0.122990
      4          8           0       -0.268300   -0.978850   -1.597050
      5          8           0        2.592060   -0.436300   -0.082840
      6         14           0       -1.831190   -1.332440   -1.953600
      7         14           0       -1.115500    2.841720   -0.082790
      8         14           0       -1.723760   -1.152910    2.115170
      9         14           0        4.197440   -0.143640    0.040080
     10          8           0        4.948680    0.068280   -1.414670
     11          8           0        4.963520   -1.435440    0.741060
     12          8           0        4.312580    1.261460    0.897090
     13          8           0       -2.319240   -2.624000    1.696270
     14          8           0       -2.724220    0.065080    1.550860
     15          8           0       -1.597340   -1.019570    3.744390
     16          8           0       -2.001440   -1.559650   -3.577820
     17          8           0       -2.825090   -0.186760   -1.301450
     18          8           0       -2.344480   -2.714390   -1.182770
     19          8           0       -2.040460    2.439570   -1.430230
     20          8           0       -0.635650    4.400490   -0.299870
     21          8           0       -1.965510    2.760860    1.313830
     22          1           0        5.170330    1.700460    0.900110
     23          1           0        5.361770   -0.716390   -1.792510
     24          1           0        4.542990   -1.835540    1.510300
     25          1           0       -2.405770   -2.809510    0.743920
     26          1           0       -2.381370   -1.224230    4.265350
     27          1           0       -3.060340   -0.083060    0.645890
     28          1           0       -0.527310    4.927280    0.500150
     29          1           0       -2.269090    1.869320    1.585330
     30          1           0       -2.648540    3.126760   -1.730140
     31          1           0       -2.304520   -3.529520   -1.695620
     32          1           0       -1.271140   -1.263050   -4.132230
     33          1           0       -2.610260    0.754610   -1.489930
 ---------------------------------------------------------------------
                    Distance matrix (angstroms):
                    1          2          3          4          5
     1  Zr   0.000000
     2  O    1.945504   0.000000
     3  O    1.953666   3.115983   0.000000
     4  O    1.978251   3.075543   3.121475   0.000000
     5  O    1.959183   3.252476   3.311469   3.281593   0.000000
     6  Si   3.345827   3.813067   4.071635   1.641578   4.885484
     7  Si   3.456366   4.156670   1.638221   4.196128   4.948880
     8  Si   3.392697   1.649380   4.093745   3.991145   4.896027
     9  Si   3.541461   4.710215   4.513004   4.829141   1.636461
    10  O    4.500316   6.004823   5.288532   5.324155   2.753549
    11  O    4.573498   5.265030   5.873842   5.748667   2.702020
    12  O    4.027203   5.060207   4.358575   5.676635   2.608226
    13  O    4.270002   2.719099   5.318542   4.214123   5.663226
    14  O    3.755882   2.684348   3.691278   4.126823   5.584191
    15  O    4.521929   2.653632   5.050190   5.504452   5.704294
    16  O    4.628483   5.398571   5.225104   2.695283   5.880225
    17  O    3.694143   3.874372   3.701875   2.692947   5.558129
    18  O    4.117386   3.853141   5.198238   2.737563   5.546978
    19  O    3.962783   4.790812   2.604299   3.854086   5.616612
    20  O    4.712290   5.611606   2.759598   5.545712   5.818913
    21  O    4.138812   4.063399   2.714813   5.033803   5.739683
    22  H    4.963853   6.017842   5.169775   6.556920   3.489901
    23  H    5.043659   6.474232   6.042549   5.639573   3.266912
    24  H    4.530238   4.855710   5.934560   5.791205   2.881336
    25  H    4.154132   2.987545   5.273682   3.660633   5.594101
    26  H    5.408711   3.540275   5.853271   6.236426   6.653014
    27  H    3.786965   3.069237   3.734823   3.691708   5.710118
    28  H    5.220876   5.922624   3.301022   6.272775   6.232041
    29  H    3.910208   3.450000   2.925766   4.716225   5.632890
    30  H    4.925117   5.695325   3.472237   4.747556   6.547739
    31  H    4.796138   4.613282   6.009671   3.265245   6.012118
    32  H    4.637260   5.717784   5.198616   2.741094   5.657331
    33  H    3.669539   4.154829   3.196280   2.915671   5.519266
                    6          7          8          9         10
     6  Si   0.000000
     7  Si   4.629876   0.000000
     8  Si   4.074145   4.599791   0.000000
     9  Si   6.460061   6.095474   6.354938   0.000000
    10  O    6.943997   6.800011   7.646733   1.650930   0.000000
    11  O    7.310259   7.478456   6.832841   1.657407   2.628415
    12  O    7.252631   5.737721   6.614401   1.649857   2.678159
    13  O    3.902290   5.872660   1.641396   7.166747   8.351586
    14  O    3.877087   3.600906   1.674176   7.087693   8.226042
    15  O    5.711363   5.457933   1.639549   6.933155   8.405337
    16  O    1.648848   5.689656   5.714252   7.315764   7.458790
    17  O    1.650975   3.685040   3.717481   7.149650   7.778777
    18  O    1.663560   5.795749   3.701340   7.134482   7.809431
    19  O    3.813892   1.683113   5.057279   6.909861   7.380470
    20  O    6.085279   1.645340   6.152776   6.642548   7.155108
    21  O    5.239203   1.636949   4.002272   6.931126   7.905740
    22  H    8.146375   6.463762   7.559535   2.255409   2.841012
    23  H    7.221090   7.585401   8.103410   2.245461   0.963905
    24  H    7.271993   7.512204   6.332772   2.267924   3.513483
    25  H    3.128657   5.855309   2.256056   7.155741   8.187131
    26  H    6.244177   6.086107   2.249625   7.893119   9.362844
    27  H    3.135141   3.587160   2.256060   7.283272   8.271228
    28  H    6.848729   2.243958   6.403787   6.946161   7.567224
    29  H    4.792395   2.249212   3.116406   6.946641   8.021219
    30  H    4.538993   2.268308   5.827281   7.790805   8.195827
    31  H    2.262246   6.678899   4.528540   7.533414   8.101358
    32  H    2.250533   5.768130   6.264743   6.968975   6.916916
    33  H    2.275460   2.927521   4.173878   7.035095   7.590408
                   11         12         13         14         15
    11  O    0.000000
    12  O    2.778730   0.000000
    13  O    7.440678   7.727647   0.000000
    14  O    7.874559   7.167656   2.723289   0.000000
    15  O    7.227574   6.945313   2.700024   2.694049   0.000000
    16  O    8.196269   8.237131   5.389792   5.428215   7.353213
    17  O    8.148220   7.607710   3.896453   2.865182   5.259415
    18  O    7.664444   8.028054   2.880569   3.916936   5.263795
    19  O    8.293729   6.867713   5.957555   3.872032   6.240088
    20  O    8.154282   5.980903   7.494165   5.155881   6.830662
    21  O    8.120865   6.468098   5.410000   2.810526   4.509415
    22  H    3.146734   0.963569   8.684957   8.088378   7.828783
    23  H    2.663571   3.499520   8.649189   8.784763   8.898224
    24  H    0.963668   3.165521   6.909881   7.511747   6.584878
    25  H    7.496300   7.857002   0.974101   3.002637   3.586121
    26  H    8.149395   7.895112   2.926327   3.024619   0.963321
    27  H    8.137587   7.498719   2.847614   0.976674   3.552200
    28  H    8.407821   6.084434   7.852614   5.437959   6.858213
    29  H    7.996554   6.645416   4.494969   1.861079   3.668579
    30  H    9.212163   7.670650   6.702236   4.488271   6.947485
    31  H    7.946508   8.570977   3.510712   4.861783   6.032716
    32  H    7.915154   7.927493   6.076357   6.014390   7.887131
    33  H    8.193643   7.340332   4.653125   3.120071   5.618881
                   16         17         18         19         20
    16  O    0.000000
    17  O    2.783000   0.000000
    18  O    2.680926   2.575652   0.000000
    19  O    4.539540   2.744055   5.168846   0.000000
    20  O    6.937839   5.180702   7.370287   2.663909   0.000000
    21  O    6.526587   4.033241   6.029510   2.763822   2.657243
    22  H    9.061703   8.505011   8.961119   7.613952   6.514562
    23  H    7.623338   8.218657   7.984364   8.055082   8.023683
    24  H    8.294254   8.056861   7.447298   8.382428   8.305606
    25  H    4.516976   3.352340   1.930010   5.693261   7.497128
    26  H    7.859527   5.680008   5.648358   6.780802   7.451594
    27  H    4.597968   1.964238   3.283344   3.422586   5.184188
    28  H    7.802766   5.888884   8.033022   3.493521   0.963990
    29  H    6.203837   3.587492   5.355227   3.077509   3.553720
    30  H    5.078888   3.345797   5.874615   0.965369   2.778450
    31  H    2.741336   3.405937   0.963872   5.980819   8.223035
    32  H    0.963680   3.403891   3.458000   4.647801   6.867788
    33  H    3.175806   0.983796   3.492699   1.779698   4.313672
                   21         22         23         24         25
    21  O    0.000000
    22  H    7.226052   0.000000
    23  H    8.685024   3.623260   0.000000
    24  H    7.970324   3.642689   3.582102   0.000000
    25  H    5.616729   8.818249   8.435005   7.058415   0.000000
    26  H    4.976480   8.769654   9.844378   7.477350   3.861888
    27  H    3.119724   8.425527   8.790838   7.850415   2.805637
    28  H    2.724678   6.560140   8.472813   8.512584   7.965297
    29  H    0.980162   7.472818   8.736459   7.754744   4.755849
    30  H    3.141045   8.371814   8.884749   9.318958   6.435776
    31  H    6.981447   9.484929   8.166706   7.748283   2.545589
    32  H    6.806877   8.694790   7.054688   8.122192   5.239825
    33  H    3.507394   8.194175   8.112254   8.177973   4.211277
                   26         27         28         29         30
    26  H    0.000000
    27  H    3.855355   0.000000
    28  H    7.446835   5.616136   0.000000
    29  H    4.094529   2.306602   3.682734   0.000000
    30  H    7.412718   4.014728   3.565906   3.566157   0.000000
    31  H    6.391669   4.234622   8.916129   6.317702   6.665254
    32  H    8.470742   5.236797   7.767394   6.595312   5.190154
    33  H    6.090275   2.337946   5.070530   3.288799   2.384588
                   31         32         33
    31  H    0.000000
    32  H    3.484513   0.000000
    33  H    4.299948   3.584124   0.000000
 Stoichiometry    H12O16Si4Zr
 Framework group  C1[X(H12O16Si4Zr)]
 Deg. of freedom    93
 Full point group                 C1      NOp   1
 Largest Abelian subgroup         C1      NOp   1
 Largest concise Abelian subgroup C1      NOp   1
                         Standard orientation:                         
 ---------------------------------------------------------------------
 Center     Atomic      Atomic             Coordinates (Angstroms)
 Number     Number       Type             X           Y           Z
 ---------------------------------------------------------------------
      1         40           0        0.655455   -0.173017   -0.082609
      2          8           0       -0.241555   -0.928681    1.469592
      3          8           0        0.166199    1.717950   -0.123653
      4          8           0       -0.310155   -0.988240   -1.604609
      5          8           0        2.577535   -0.551642   -0.108119
      6         14           0       -1.886816   -1.285652   -1.951689
      7         14           0       -1.012999    2.853961   -0.071316
      8         14           0       -1.745860   -1.125099    2.116850
      9         14           0        4.192959   -0.315740    0.004837
     10          8           0        4.941370   -0.124810   -1.454271
     11          8           0        4.918068   -1.636126    0.696065
     12          8           0        4.362933    1.081283    0.865919
     13          8           0       -2.395237   -2.572907    1.696920
     14          8           0       -2.706865    0.129208    1.563634
     15          8           0       -1.603919   -1.002312    3.745621
     16          8           0       -2.075810   -1.500737   -3.575487
     17          8           0       -2.835629   -0.108357   -1.288778
     18          8           0       -2.442950   -2.651666   -1.182177
     19          8           0       -1.960486    2.489399   -1.413789
     20          8           0       -0.480381    4.395799   -0.286252
     21          8           0       -1.855923    2.797679    1.330795
     22          1           0        5.235516    1.490016    0.864599
     23          1           0        5.324211   -0.922033   -1.837654
     24          1           0        4.488972   -2.024134    1.466768
     25          1           0       -2.494594   -2.751741    0.744545
     26          1           0       -2.391113   -1.181372    4.271216
     27          1           0       -3.054029   -0.003729    0.660474
     28          1           0       -0.348311    4.915505    0.514836
     29          1           0       -2.188676    1.916294    1.601263
     30          1           0       -2.546153    3.198535   -1.707142
     31          1           0       -2.434973   -3.465785   -1.698119
     32          1           0       -1.339319   -1.227792   -4.133844
     33          1           0       -2.589269    0.825621   -1.475449
 ---------------------------------------------------------------------
 Rotational constants (GHZ):           0.2130344           0.1343019           0.1246707
 General basis read from cards:  (5D, 7F)
 ======================================================================================================
                                       Pseudopotential Parameters
 ======================================================================================================
  Center     Atomic      Valence      Angular      Power
  Number     Number     Electrons     Momentum     of R      Exponent        Coefficient   SO-Coeffient
 ======================================================================================================
    1         40           12
                                      G and up 
                                                     2        1.0000000        0.00000000    0.00000000
                                      S - G
                                                     2        8.6365280      150.24299400    0.00000000
                                                     2        3.7176390       18.78003600    0.00000000
                                      P - G
                                                     2        7.6267280       33.19279100    0.00000000
                                                     2        7.4532070       66.38903900    0.00000000
                                                     2        3.3583890        4.62072600    0.00000000
                                                     2        3.2297380        9.26027000    0.00000000
                                      D - G
                                                     2        5.9380860       13.99338300    0.00000000
                                                     2        5.8255440       20.99588200    0.00000000
                                                     2        2.2050190        2.28516600    0.00000000
                                                     2        2.2062920        3.44126000    0.00000000
                                      F - G
                                                     2        4.8002150       -5.23932000    0.00000000
                                                     2        4.7989920       -6.98742400    0.00000000
    2          8
                                   No pseudopotential on this center.
    3          8
                                   No pseudopotential on this center.
    4          8
                                   No pseudopotential on this center.
    5          8
                                   No pseudopotential on this center.
    6         14
                                   No pseudopotential on this center.
    7         14
                                   No pseudopotential on this center.
    8         14
                                   No pseudopotential on this center.
    9         14
                                   No pseudopotential on this center.
   10          8
                                   No pseudopotential on this center.
   11          8
                                   No pseudopotential on this center.
   12          8
                                   No pseudopotential on this center.
   13          8
                                   No pseudopotential on this center.
   14          8
                                   No pseudopotential on this center.
   15          8
                                   No pseudopotential on this center.
   16          8
                                   No pseudopotential on this center.
   17          8
                                   No pseudopotential on this center.
   18          8
                                   No pseudopotential on this center.
   19          8
                                   No pseudopotential on this center.
   20          8
                                   No pseudopotential on this center.
   21          8
                                   No pseudopotential on this center.
   22          1
                                   No pseudopotential on this center.
   23          1
                                   No pseudopotential on this center.
   24          1
                                   No pseudopotential on this center.
   25          1
                                   No pseudopotential on this center.
   26          1
                                   No pseudopotential on this center.
   27          1
                                   No pseudopotential on this center.
   28          1
                                   No pseudopotential on this center.
   29          1
                                   No pseudopotential on this center.
   30          1
                                   No pseudopotential on this center.
   31          1
                                   No pseudopotential on this center.
   32          1
                                   No pseudopotential on this center.
   33          1
                                   No pseudopotential on this center.
 ======================================================================================================
 There are   570 symmetry adapted cartesian basis functions of A   symmetry.
 There are   524 symmetry adapted basis functions of A   symmetry.
   524 basis functions,  1074 primitive gaussians,   570 cartesian basis functions
   104 alpha electrons      104 beta electrons
       nuclear repulsion energy      2835.5459859872 Hartrees.
 NAtoms=   33 NActive=   33 NUniq=   33 SFac= 1.00D+00 NAtFMM=   60 NAOKFM=F Big=F
 Integral buffers will be    131072 words long.
 Raffenetti 2 integral format.
 Two-electron integral symmetry is turned on.
 Nuclear repulsion after empirical dispersion term =     2835.5051384276 Hartrees.
 One-electron integrals computed using PRISM.
 PrsmSu:  requested number of processors reduced to:   4 ShMem   1 Linda.
   1 Symmetry operations used in ECPInt.
 ECPInt:  NShTT=   13203 NPrTT=   78401 LenC2=   11530 LenP2D=   44661.
 LDataN:  DoStor=T MaxTD1= 8 Len=  415
 Number of processors reduced to  13 by ecpmxn.
 NBasis=   524 RedAO= T EigKep=  3.13D-05  NBF=   524
 NBsUse=   524 1.00D-06 EigRej= -1.00D+00 NBFU=   524
 Defaulting to unpruned grid for atomic number  40.
 ExpMin= 1.01D-02 ExpMax= 1.61D+04 ExpMxC= 2.43D+03 IAcc=3 IRadAn=         5 AccDes= 0.00D+00
 Harris functional with IExCor=  402 and IRadAn=       5 diagonalized for initial guess.
 HarFok:  IExCor=  402 AccDes= 0.00D+00 IRadAn=         5 IDoV= 1 UseB2=F ITyADJ=14
 ICtDFT=  3500011 ScaDFX=  1.000000  1.000000  1.000000  1.000000
 Defaulting to unpruned grid for atomic number  40.
 FoFCou: FMM=F IPFlag=           0 FMFlag=      100000 FMFlg1=           0
         NFxFlg=           0 DoJE=T BraDBF=F KetDBF=T FulRan=T
         wScrn=  0.000000 ICntrl=       500 IOpCl=  0 I1Cent=   200000004 NGrid=           0
         NMat0=    1 NMatS0=      1 NMatT0=    0 NMatD0=    1 NMtDS0=    0 NMtDT0=    0
 Petite list used in FoFCou.
 Requested convergence on RMS density matrix=1.00D-08 within 128 cycles.
 Requested convergence on MAX density matrix=1.00D-06.
 Requested convergence on             energy=1.00D-06.
 No special actions if energy rises.
 Defaulting to unpruned grid for atomic number  40.
 Defaulting to unpruned grid for atomic number  40.
 Defaulting to unpruned grid for atomic number  40.
 Defaulting to unpruned grid for atomic number  40.
 Defaulting to unpruned grid for atomic number  40.
 Defaulting to unpruned grid for atomic number  40.
 Defaulting to unpruned grid for atomic number  40.
 Defaulting to unpruned grid for atomic number  40.
 Defaulting to unpruned grid for atomic number  40.
 Defaulting to unpruned grid for atomic number  40.
 Defaulting to unpruned grid for atomic number  40.
 Defaulting to unpruned grid for atomic number  40.
 Defaulting to unpruned grid for atomic number  40.
 Defaulting to unpruned grid for atomic number  40.
 Defaulting to unpruned grid for atomic number  40.
 Defaulting to unpruned grid for atomic number  40.
 SCF Done:  E(RB3LYP) =  -2416.94684187     A.U. after   14 cycles
            NFock= 14  Conv=0.25D-08     -V/T= 2.0185

 **********************************************************************

            Population analysis using the SCF Density.

 **********************************************************************

 Orbital symmetries:
       Occupied  (A) (A) (A) (A) (A) (A) (A) (A) (A) (A) (A) (A)
                 (A) (A) (A) (A) (A) (A) (A) (A) (A) (A) (A) (A)
                 (A) (A) (A) (A) (A) (A) (A) (A) (A) (A) (A) (A)
                 (A) (A) (A) (A) (A) (A) (A) (A) (A) (A) (A) (A)
                 (A) (A) (A) (A) (A) (A) (A) (A) (A) (A) (A) (A)
                 (A) (A) (A) (A) (A) (A) (A) (A) (A) (A) (A) (A)
                 (A) (A) (A) (A) (A) (A) (A) (A) (A) (A) (A) (A)
                 (A) (A) (A) (A) (A) (A) (A) (A) (A) (A) (A) (A)
                 (A) (A) (A) (A) (A) (A) (A) (A)
       Virtual   (A) (A) (A) (A) (A) (A) (A) (A) (A) (A) (A) (A)
                 (A) (A) (A) (A) (A) (A) (A) (A) (A) (A) (A) (A)
                 (A) (A) (A) (A) (A) (A) (A) (A) (A) (A) (A) (A)
                 (A) (A) (A) (A) (A) (A) (A) (A) (A) (A) (A) (A)
                 (A) (A) (A) (A) (A) (A) (A) (A) (A) (A) (A) (A)
                 (A) (A) (A) (A) (A) (A) (A) (A) (A) (A) (A) (A)
                 (A) (A) (A) (A) (A) (A) (A) (A) (A) (A) (A) (A)
                 (A) (A) (A) (A) (A) (A) (A) (A) (A) (A) (A) (A)
                 (A) (A) (A) (A) (A) (A) (A) (A) (A) (A) (A) (A)
                 (A) (A) (A) (A) (A) (A) (A) (A) (A) (A) (A) (A)
                 (A) (A) (A) (A) (A) (A) (A) (A) (A) (A) (A) (A)
                 (A) (A) (A) (A) (A) (A) (A) (A) (A) (A) (A) (A)
                 (A) (A) (A) (A) (A) (A) (A) (A) (A) (A) (A) (A)
                 (A) (A) (A) (A) (A) (A) (A) (A) (A) (A) (A) (A)
                 (A) (A) (A) (A) (A) (A) (A) (A) (A) (A) (A) (A)
                 (A) (A) (A) (A) (A) (A) (A) (A) (A) (A) (A) (A)
                 (A) (A) (A) (A) (A) (A) (A) (A) (A) (A) (A) (A)
                 (A) (A) (A) (A) (A) (A) (A) (A) (A) (A) (A) (A)
                 (A) (A) (A) (A) (A) (A) (A) (A) (A) (A) (A) (A)
                 (A) (A) (A) (A) (A) (A) (A) (A) (A) (A) (A) (A)
                 (A) (A) (A) (A) (A) (A) (A) (A) (A) (A) (A) (A)
                 (A) (A) (A) (A) (A) (A) (A) (A) (A) (A) (A) (A)
                 (A) (A) (A) (A) (A) (A) (A) (A) (A) (A) (A) (A)
                 (A) (A) (A) (A) (A) (A) (A) (A) (A) (A) (A) (A)
                 (A) (A) (A) (A) (A) (A) (A) (A) (A) (A) (A) (A)
                 (A) (A) (A) (A) (A) (A) (A) (A) (A) (A) (A) (A)
                 (A) (A) (A) (A) (A) (A) (A) (A) (A) (A) (A) (A)
                 (A) (A) (A) (A) (A) (A) (A) (A) (A) (A) (A) (A)
                 (A) (A) (A) (A) (A) (A) (A) (A) (A) (A) (A) (A)
                 (A) (A) (A) (A) (A) (A) (A) (A) (A) (A) (A) (A)
                 (A) (A) (A) (A) (A) (A) (A) (A) (A) (A) (A) (A)
                 (A) (A) (A) (A) (A) (A) (A) (A) (A) (A) (A) (A)
                 (A) (A) (A) (A) (A) (A) (A) (A) (A) (A) (A) (A)
                 (A) (A) (A) (A) (A) (A) (A) (A) (A) (A) (A) (A)
                 (A) (A) (A) (A) (A) (A) (A) (A) (A) (A) (A) (A)
 The electronic state is 1-A.
 Alpha  occ. eigenvalues --  -66.22781 -66.21735 -66.21498 -66.21012 -19.18567
 Alpha  occ. eigenvalues --  -19.18333 -19.17767 -19.17004 -19.16715 -19.16536
 Alpha  occ. eigenvalues --  -19.16449 -19.16281 -19.16161 -19.15983 -19.15976
 Alpha  occ. eigenvalues --  -19.15479 -19.15345 -19.15220 -19.14876 -19.14683
 Alpha  occ. eigenvalues --   -5.36841  -5.35816  -5.35577  -5.35072  -3.72825
 Alpha  occ. eigenvalues --   -3.72798  -3.72752  -3.71807  -3.71760  -3.71725
 Alpha  occ. eigenvalues --   -3.71546  -3.71537  -3.71499  -3.71037  -3.71028
 Alpha  occ. eigenvalues --   -3.71003  -2.13329  -1.29578  -1.29490  -1.29332
 Alpha  occ. eigenvalues --   -1.05659  -1.04757  -1.04173  -1.03474  -1.02543
 Alpha  occ. eigenvalues --   -1.02150  -1.01452  -1.00955  -1.00775  -1.00643
 Alpha  occ. eigenvalues --   -0.99811  -0.99282  -0.97360  -0.96257  -0.95712
 Alpha  occ. eigenvalues --   -0.95385  -0.60969  -0.59143  -0.58982  -0.58466
 Alpha  occ. eigenvalues --   -0.55520  -0.54512  -0.53887  -0.53022  -0.53016
 Alpha  occ. eigenvalues --   -0.52470  -0.52126  -0.51687  -0.48754  -0.47579
 Alpha  occ. eigenvalues --   -0.47178  -0.46685  -0.43354  -0.42629  -0.41840
 Alpha  occ. eigenvalues --   -0.41381  -0.41131  -0.40492  -0.39813  -0.39311
 Alpha  occ. eigenvalues --   -0.38804  -0.38667  -0.38640  -0.38131  -0.37994
 Alpha  occ. eigenvalues --   -0.37612  -0.37466  -0.37160  -0.36536  -0.36397
 Alpha  occ. eigenvalues --   -0.36096  -0.35626  -0.35457  -0.35081  -0.34912
 Alpha  occ. eigenvalues --   -0.34585  -0.33982  -0.33692  -0.33464  -0.33242
 Alpha  occ. eigenvalues --   -0.32807  -0.32196  -0.32034  -0.31277
 Alpha virt. eigenvalues --   -0.04307  -0.03128  -0.03017  -0.02758  -0.02073
 Alpha virt. eigenvalues --   -0.01151  -0.00527  -0.00101   0.00140   0.00267
 Alpha virt. eigenvalues --    0.00796   0.00931   0.01054   0.01973   0.02351
 Alpha virt. eigenvalues --    0.03198   0.03342   0.03858   0.03978   0.04074
 Alpha virt. eigenvalues --    0.04129   0.04767   0.05587   0.05866   0.06214
 Alpha virt. eigenvalues --    0.06509   0.07068   0.07445   0.07718   0.08669
 Alpha virt. eigenvalues --    0.08804   0.09082   0.09204   0.09731   0.09980
 Alpha virt. eigenvalues --    0.10383   0.10698   0.10817   0.11297   0.11709
 Alpha virt. eigenvalues --    0.11773   0.12584   0.13280   0.13346   0.13589
 Alpha virt. eigenvalues --    0.14082   0.14417   0.14927   0.15092   0.15290
 Alpha virt. eigenvalues --    0.15339   0.15757   0.16174   0.16700   0.17001
 Alpha virt. eigenvalues --    0.17395   0.17527   0.17705   0.18116   0.18358
 Alpha virt. eigenvalues --    0.18490   0.18819   0.19246   0.19663   0.19818
 Alpha virt. eigenvalues --    0.20095   0.20348   0.20706   0.20969   0.21210
 Alpha virt. eigenvalues --    0.21763   0.21986   0.22286   0.22500   0.22782
 Alpha virt. eigenvalues --    0.23407   0.23795   0.24067   0.24188   0.24585
 Alpha virt. eigenvalues --    0.24936   0.25141   0.25617   0.25945   0.26210
 Alpha virt. eigenvalues --    0.26554   0.26677   0.26895   0.27225   0.27431
 Alpha virt. eigenvalues --    0.28000   0.28262   0.28558   0.28876   0.29023
 Alpha virt. eigenvalues --    0.29527   0.29730   0.30069   0.30420   0.30761
 Alpha virt. eigenvalues --    0.30920   0.31387   0.31558   0.31669   0.32180
 Alpha virt. eigenvalues --    0.32262   0.32953   0.33053   0.33549   0.34030
 Alpha virt. eigenvalues --    0.34637   0.34679   0.35296   0.35797   0.36252
 Alpha virt. eigenvalues --    0.37086   0.37563   0.38188   0.38627   0.38700
 Alpha virt. eigenvalues --    0.39391   0.39956   0.40015   0.41120   0.41613
 Alpha virt. eigenvalues --    0.42697   0.43186   0.43934   0.44383   0.44931
 Alpha virt. eigenvalues --    0.45261   0.45483   0.46152   0.46567   0.47446
 Alpha virt. eigenvalues --    0.47964   0.48546   0.48931   0.49454   0.49565
 Alpha virt. eigenvalues --    0.50220   0.50948   0.51188   0.51391   0.53418
 Alpha virt. eigenvalues --    0.54076   0.54601   0.55156   0.56847   0.57335
 Alpha virt. eigenvalues --    0.58236   0.58526   0.58959   0.59338   0.60570
 Alpha virt. eigenvalues --    0.61134   0.61721   0.62104   0.64338   0.65918
 Alpha virt. eigenvalues --    0.66819   0.67839   0.68377   0.68830   0.69611
 Alpha virt. eigenvalues --    0.69992   0.70231   0.73056   0.74323   0.75085
 Alpha virt. eigenvalues --    0.75483   0.77428   0.78569   0.79144   0.80188
 Alpha virt. eigenvalues --    0.81218   0.81555   0.82553   0.84167   0.85381
 Alpha virt. eigenvalues --    0.86598   0.87647   0.89813   0.90848   0.91163
 Alpha virt. eigenvalues --    0.94547   0.95759   0.96197   0.96926   0.97526
 Alpha virt. eigenvalues --    0.98043   0.98733   0.99340   0.99768   1.00434
 Alpha virt. eigenvalues --    1.00653   1.01480   1.02023   1.03400   1.04027
 Alpha virt. eigenvalues --    1.04338   1.05567   1.06451   1.06679   1.07932
 Alpha virt. eigenvalues --    1.09750   1.12208   1.15231   1.16219   1.16517
 Alpha virt. eigenvalues --    1.18813   1.19118   1.19841   1.20589   1.21031
 Alpha virt. eigenvalues --    1.21267   1.21872   1.22496   1.22936   1.23051
 Alpha virt. eigenvalues --    1.23531   1.23980   1.24401   1.25276   1.25737
 Alpha virt. eigenvalues --    1.26059   1.27155   1.27598   1.28159   1.28693
 Alpha virt. eigenvalues --    1.29052   1.29851   1.30155   1.30954   1.31525
 Alpha virt. eigenvalues --    1.32555   1.32619   1.33137   1.33378   1.34418
 Alpha virt. eigenvalues --    1.35324   1.36105   1.36539   1.36932   1.37913
 Alpha virt. eigenvalues --    1.39116   1.39765   1.40282   1.41230   1.41511
 Alpha virt. eigenvalues --    1.42856   1.43869   1.44322   1.45286   1.46277
 Alpha virt. eigenvalues --    1.47135   1.48784   1.51019   1.51565   1.52476
 Alpha virt. eigenvalues --    1.56716   1.57279   1.57824   1.59202   1.59914
 Alpha virt. eigenvalues --    1.59998   1.61352   1.61949   1.62422   1.62986
 Alpha virt. eigenvalues --    1.63225   1.63857   1.65331   1.65456   1.66519
 Alpha virt. eigenvalues --    1.67131   1.67983   1.69354   1.69413   1.70202
 Alpha virt. eigenvalues --    1.71297   1.71577   1.71731   1.72644   1.73312
 Alpha virt. eigenvalues --    1.74080   1.74725   1.75653   1.76327   1.76943
 Alpha virt. eigenvalues --    1.77333   1.77683   1.78294   1.78673   1.79658
 Alpha virt. eigenvalues --    1.80541   1.81128   1.82218   1.82374   1.83245
 Alpha virt. eigenvalues --    1.83527   1.84491   1.85203   1.86005   1.86532
 Alpha virt. eigenvalues --    1.87195   1.88077   1.88476   1.89929   1.90381
 Alpha virt. eigenvalues --    1.91364   1.91463   1.92599   1.92899   1.93916
 Alpha virt. eigenvalues --    1.94447   1.95100   1.95642   1.97344   1.98303
 Alpha virt. eigenvalues --    1.99398   2.00542   2.01342   2.02659   2.03664
 Alpha virt. eigenvalues --    2.05906   2.06572   2.08105   2.09779   2.10499
 Alpha virt. eigenvalues --    2.11151   2.13056   2.14422   2.16031   2.16495
 Alpha virt. eigenvalues --    2.17790   2.18839   2.19521   2.21225   2.25330
 Alpha virt. eigenvalues --    2.32827   2.33409   2.35512   2.39489   2.40432
 Alpha virt. eigenvalues --    2.41142   2.41436   2.41729   2.42725   2.43799
 Alpha virt. eigenvalues --    2.44035   2.45493   2.46715   2.47656   2.49116
 Alpha virt. eigenvalues --    2.50186   2.50326   2.51702   2.52581   2.53438
 Alpha virt. eigenvalues --    2.55427   2.58429   2.59528   2.60115   2.60707
 Alpha virt. eigenvalues --    2.61174   2.61751   2.62069   2.62523   2.62823
 Alpha virt. eigenvalues --    2.63169   2.64065   2.64685   2.65018   2.65979
 Alpha virt. eigenvalues --    2.66423   2.66695   2.67415   2.67599   2.69400
 Alpha virt. eigenvalues --    2.70284   2.70499   2.71240   2.71668   2.72556
 Alpha virt. eigenvalues --    2.73427   2.74554   2.75582   2.76839   2.77558
 Alpha virt. eigenvalues --    2.78953   2.80540   2.81553   2.82501   2.83500
 Alpha virt. eigenvalues --    2.83794   2.84704   2.86711   2.87833   2.88147
 Alpha virt. eigenvalues --    3.15028   3.20601   3.35854   3.40972   3.46659
 Alpha virt. eigenvalues --    3.47832   3.48618   3.48815   3.51075   3.51108
 Alpha virt. eigenvalues --    3.52639   3.54268   3.60325   3.61100   3.62061
 Alpha virt. eigenvalues --    3.66212   4.35192   4.61333   7.83430  31.27323
          Condensed to atoms (all electrons):
               1          2          3          4          5          6
     1  Zr  15.249210  -0.141843   0.003035  -0.158903  -0.183129  -0.611347
     2  O   -0.141843   9.062766   0.017885  -0.042085  -0.054987   0.090849
     3  O    0.003035   0.017885   8.815411   0.013985  -0.044027  -0.006261
     4  O   -0.158903  -0.042085   0.013985   8.806170  -0.062612  -0.660226
     5  O   -0.183129  -0.054987  -0.044027  -0.062612   9.389926  -0.003965
     6  Si  -0.611347   0.090849  -0.006261  -0.660226  -0.003965  13.964858
     7  Si  -0.632401  -0.026648  -0.869542  -0.005637  -0.031570   0.088738
     8  Si  -0.604275  -0.985496  -0.023687   0.077187  -0.010606  -0.019572
     9  Si  -0.365751  -0.035108  -0.012040  -0.027080  -1.214252   0.044086
    10  O   -0.017779   0.000861  -0.002681   0.000649   0.125986  -0.002651
    11  O   -0.075708   0.003389   0.002993   0.001272   0.315420  -0.000652
    12  O    0.047555  -0.000198   0.005011   0.002014   0.157066  -0.003185
    13  O   -0.034506   0.188230   0.001568  -0.015246  -0.000824   0.033421
    14  O   -0.026317   0.260748  -0.018354  -0.009280   0.001384   0.031690
    15  O   -0.084267   0.290907  -0.000635   0.001195   0.000585   0.000433
    16  O   -0.121469   0.004679  -0.000479   0.343800   0.003109  -0.425880
    17  O   -0.099264  -0.039346   0.007268   0.216802   0.000950  -0.439586
    18  O   -0.034135  -0.014455   0.003647   0.200555  -0.000730  -0.448140
    19  O    0.000070   0.009007   0.266862   0.010868   0.002067  -0.008349
    20  O   -0.143792  -0.000589   0.158401  -0.000842   0.001216   0.009090
    21  O    0.038423   0.010436   0.149433   0.003525   0.000334  -0.013259
    22  H   -0.010209  -0.000017   0.000001  -0.000009   0.005301   0.000108
    23  H   -0.006889  -0.000012  -0.000007  -0.000057  -0.025133   0.000087
    24  H   -0.005533  -0.000159  -0.000006   0.000003  -0.004864   0.000057
    25  H    0.016570  -0.020015  -0.000107  -0.000413   0.000023   0.003089
    26  H    0.007887   0.000659   0.000014  -0.000011  -0.000003  -0.000214
    27  H    0.008046  -0.019300   0.000906  -0.001674   0.000017   0.007631
    28  H    0.004878  -0.000010  -0.018191  -0.000014  -0.000014  -0.000293
    29  H    0.004009  -0.007053  -0.020206  -0.000134  -0.000068   0.000054
    30  H    0.000788  -0.000012   0.000090  -0.000458  -0.000008  -0.000751
    31  H    0.000373   0.000167  -0.000020  -0.018430  -0.000009   0.063592
    32  H    0.002077  -0.000025   0.000039   0.010546   0.000002   0.022728
    33  H   -0.016611   0.001032  -0.010147  -0.009759  -0.000093   0.053898
               7          8          9         10         11         12
     1  Zr  -0.632401  -0.604275  -0.365751  -0.017779  -0.075708   0.047555
     2  O   -0.026648  -0.985496  -0.035108   0.000861   0.003389  -0.000198
     3  O   -0.869542  -0.023687  -0.012040  -0.002681   0.002993   0.005011
     4  O   -0.005637   0.077187  -0.027080   0.000649   0.001272   0.002014
     5  O   -0.031570  -0.010606  -1.214252   0.125986   0.315420   0.157066
     6  Si   0.088738  -0.019572   0.044086  -0.002651  -0.000652  -0.003185
     7  Si  13.790245   0.185331   0.022382  -0.000038  -0.000617   0.004255
     8  Si   0.185331  13.784094   0.028884  -0.001021   0.001393  -0.000949
     9  Si   0.022382   0.028884  14.235250  -0.051478  -0.180442  -0.234446
    10  O   -0.000038  -0.001021  -0.051478   8.526127   0.006668   0.035533
    11  O   -0.000617   0.001393  -0.180442   0.006668   8.534841  -0.051960
    12  O    0.004255  -0.000949  -0.234446   0.035533  -0.051960   8.611285
    13  O    0.007091  -0.096123   0.000086   0.000000   0.000017   0.000011
    14  O    0.012295  -0.359458  -0.001310  -0.000002   0.000003   0.000026
    15  O   -0.002332  -0.302655  -0.000452   0.000000  -0.000025  -0.000024
    16  O    0.003641  -0.010488  -0.001169   0.000007  -0.000003  -0.000000
    17  O    0.002322   0.100955   0.003033  -0.000001   0.000002  -0.000006
    18  O   -0.000814   0.076063   0.004221  -0.000001  -0.000001  -0.000001
    19  O   -0.410851  -0.016731   0.001035   0.000008  -0.000001  -0.000023
    20  O   -0.102171   0.009763   0.003397   0.000004  -0.000002  -0.000032
    21  O    0.019849  -0.041942  -0.002185   0.000001   0.000002   0.000032
    22  H   -0.000223   0.000111   0.049033  -0.006087  -0.005087   0.219413
    23  H    0.000055   0.000058   0.079183   0.229064  -0.005803   0.005806
    24  H    0.000057  -0.000082   0.038186   0.007540   0.240804  -0.007312
    25  H   -0.000435   0.057451  -0.000194   0.000000  -0.000000  -0.000000
    26  H   -0.000398   0.045573  -0.000054  -0.000000   0.000000  -0.000000
    27  H    0.000782   0.067006  -0.000041   0.000000  -0.000000  -0.000000
    28  H    0.056380  -0.000062  -0.000142  -0.000000  -0.000000  -0.000006
    29  H    0.048240   0.021968  -0.000070   0.000000  -0.000000  -0.000001
    30  H    0.040443   0.000133   0.000022  -0.000000  -0.000000   0.000000
    31  H    0.000152  -0.002126  -0.000052   0.000000  -0.000000  -0.000000
    32  H   -0.000682   0.000061  -0.000012  -0.000000   0.000000  -0.000000
    33  H    0.020698   0.000164   0.000089  -0.000000   0.000000   0.000000
              13         14         15         16         17         18
     1  Zr  -0.034506  -0.026317  -0.084267  -0.121469  -0.099264  -0.034135
     2  O    0.188230   0.260748   0.290907   0.004679  -0.039346  -0.014455
     3  O    0.001568  -0.018354  -0.000635  -0.000479   0.007268   0.003647
     4  O   -0.015246  -0.009280   0.001195   0.343800   0.216802   0.200555
     5  O   -0.000824   0.001384   0.000585   0.003109   0.000950  -0.000730
     6  Si   0.033421   0.031690   0.000433  -0.425880  -0.439586  -0.448140
     7  Si   0.007091   0.012295  -0.002332   0.003641   0.002322  -0.000814
     8  Si  -0.096123  -0.359458  -0.302655  -0.010488   0.100955   0.076063
     9  Si   0.000086  -0.001310  -0.000452  -0.001169   0.003033   0.004221
    10  O    0.000000  -0.000002   0.000000   0.000007  -0.000001  -0.000001
    11  O    0.000017   0.000003  -0.000025  -0.000003   0.000002  -0.000001
    12  O    0.000011   0.000026  -0.000024  -0.000000  -0.000006  -0.000001
    13  O    8.628605   0.086978  -0.091303   0.003736  -0.030951  -0.045547
    14  O    0.086978   8.673466   0.055454   0.003600  -0.035740  -0.027021
    15  O   -0.091303   0.055454   8.776405  -0.000174   0.003632   0.001669
    16  O    0.003736   0.003600  -0.000174   8.902031  -0.091882  -0.114695
    17  O   -0.030951  -0.035740   0.003632  -0.091882   8.934478   0.227466
    18  O   -0.045547  -0.027021   0.001669  -0.114695   0.227466   9.013176
    19  O    0.000196  -0.000381   0.000140  -0.001508  -0.029725   0.000179
    20  O    0.000008  -0.000349   0.000036   0.000061  -0.001053   0.000017
    21  O   -0.000246   0.016429  -0.000580  -0.000207  -0.005673   0.000471
    22  H   -0.000000   0.000000   0.000000   0.000000   0.000000  -0.000000
    23  H    0.000000   0.000000  -0.000000  -0.000000   0.000000  -0.000000
    24  H   -0.000000   0.000000   0.000001   0.000000  -0.000000  -0.000000
    25  H    0.218376  -0.011882   0.008933  -0.000057   0.000618   0.014821
    26  H   -0.005184  -0.010104   0.217083   0.000000  -0.000004   0.000005
    27  H   -0.009744   0.219009   0.004603   0.000194   0.017692  -0.000268
    28  H    0.000000  -0.000006  -0.000001  -0.000000   0.000004  -0.000000
    29  H    0.000790   0.017621  -0.002568  -0.000004  -0.000387   0.000007
    30  H    0.000001   0.000004   0.000000   0.000117  -0.000369  -0.000008
    31  H    0.002341   0.000168  -0.000018   0.003768  -0.000736   0.217976
    32  H   -0.000008  -0.000006   0.000000   0.233481  -0.003629   0.003876
    33  H    0.000237   0.002123  -0.000036  -0.000154   0.230989   0.002098
              19         20         21         22         23         24
     1  Zr   0.000070  -0.143792   0.038423  -0.010209  -0.006889  -0.005533
     2  O    0.009007  -0.000589   0.010436  -0.000017  -0.000012  -0.000159
     3  O    0.266862   0.158401   0.149433   0.000001  -0.000007  -0.000006
     4  O    0.010868  -0.000842   0.003525  -0.000009  -0.000057   0.000003
     5  O    0.002067   0.001216   0.000334   0.005301  -0.025133  -0.004864
     6  Si  -0.008349   0.009090  -0.013259   0.000108   0.000087   0.000057
     7  Si  -0.410851  -0.102171   0.019849  -0.000223   0.000055   0.000057
     8  Si  -0.016731   0.009763  -0.041942   0.000111   0.000058  -0.000082
     9  Si   0.001035   0.003397  -0.002185   0.049033   0.079183   0.038186
    10  O    0.000008   0.000004   0.000001  -0.006087   0.229064   0.007540
    11  O   -0.000001  -0.000002   0.000002  -0.005087  -0.005803   0.240804
    12  O   -0.000023  -0.000032   0.000032   0.219413   0.005806  -0.007312
    13  O    0.000196   0.000008  -0.000246  -0.000000   0.000000  -0.000000
    14  O   -0.000381  -0.000349   0.016429   0.000000   0.000000   0.000000
    15  O    0.000140   0.000036  -0.000580   0.000000  -0.000000   0.000001
    16  O   -0.001508   0.000061  -0.000207   0.000000  -0.000000   0.000000
    17  O   -0.029725  -0.001053  -0.005673   0.000000   0.000000  -0.000000
    18  O    0.000179   0.000017   0.000471  -0.000000  -0.000000  -0.000000
    19  O    8.874476   0.031694   0.024529  -0.000000   0.000000  -0.000000
    20  O    0.031694   8.654270  -0.050529   0.000001   0.000000  -0.000000
    21  O    0.024529  -0.050529   8.487570  -0.000000   0.000000   0.000000
    22  H   -0.000000   0.000001  -0.000000   0.359629   0.000053   0.000122
    23  H    0.000000   0.000000   0.000000   0.000053   0.350968   0.000015
    24  H   -0.000000  -0.000000   0.000000   0.000122   0.000015   0.365346
    25  H   -0.000024   0.000000  -0.000018   0.000000   0.000000   0.000000
    26  H    0.000001  -0.000000   0.000038  -0.000000  -0.000000  -0.000000
    27  H    0.000002   0.000194  -0.004052  -0.000000  -0.000000   0.000000
    28  H    0.004620   0.229617  -0.002006  -0.000000   0.000000  -0.000000
    29  H   -0.008559   0.007682   0.206554   0.000000   0.000000  -0.000000
    30  H    0.224081  -0.001486  -0.007185   0.000000  -0.000000  -0.000000
    31  H    0.000004  -0.000000  -0.000000  -0.000000  -0.000000   0.000000
    32  H    0.000093   0.000000   0.000001  -0.000000  -0.000000  -0.000000
    33  H    0.014728  -0.000063   0.001447  -0.000000  -0.000000  -0.000000
              25         26         27         28         29         30
     1  Zr   0.016570   0.007887   0.008046   0.004878   0.004009   0.000788
     2  O   -0.020015   0.000659  -0.019300  -0.000010  -0.007053  -0.000012
     3  O   -0.000107   0.000014   0.000906  -0.018191  -0.020206   0.000090
     4  O   -0.000413  -0.000011  -0.001674  -0.000014  -0.000134  -0.000458
     5  O    0.000023  -0.000003   0.000017  -0.000014  -0.000068  -0.000008
     6  Si   0.003089  -0.000214   0.007631  -0.000293   0.000054  -0.000751
     7  Si  -0.000435  -0.000398   0.000782   0.056380   0.048240   0.040443
     8  Si   0.057451   0.045573   0.067006  -0.000062   0.021968   0.000133
     9  Si  -0.000194  -0.000054  -0.000041  -0.000142  -0.000070   0.000022
    10  O    0.000000  -0.000000   0.000000  -0.000000   0.000000  -0.000000
    11  O   -0.000000   0.000000  -0.000000  -0.000000  -0.000000  -0.000000
    12  O   -0.000000  -0.000000  -0.000000  -0.000006  -0.000001   0.000000
    13  O    0.218376  -0.005184  -0.009744   0.000000   0.000790   0.000001
    14  O   -0.011882  -0.010104   0.219009  -0.000006   0.017621   0.000004
    15  O    0.008933   0.217083   0.004603  -0.000001  -0.002568   0.000000
    16  O   -0.000057   0.000000   0.000194  -0.000000  -0.000004   0.000117
    17  O    0.000618  -0.000004   0.017692   0.000004  -0.000387  -0.000369
    18  O    0.014821   0.000005  -0.000268  -0.000000   0.000007  -0.000008
    19  O   -0.000024   0.000001   0.000002   0.004620  -0.008559   0.224081
    20  O    0.000000  -0.000000   0.000194   0.229617   0.007682  -0.001486
    21  O   -0.000018   0.000038  -0.004052  -0.002006   0.206554  -0.007185
    22  H    0.000000  -0.000000  -0.000000  -0.000000   0.000000   0.000000
    23  H    0.000000  -0.000000  -0.000000   0.000000   0.000000  -0.000000
    24  H    0.000000  -0.000000   0.000000  -0.000000  -0.000000  -0.000000
    25  H    0.298968  -0.000011   0.000106   0.000000   0.000001   0.000000
    26  H   -0.000011   0.366164   0.000037   0.000000   0.000021  -0.000000
    27  H    0.000106   0.000037   0.283497  -0.000000  -0.001491   0.000009
    28  H    0.000000   0.000000  -0.000000   0.349331  -0.000017  -0.000015
    29  H    0.000001   0.000021  -0.001491  -0.000017   0.285862   0.000155
    30  H    0.000000  -0.000000   0.000009  -0.000015   0.000155   0.334344
    31  H   -0.000481   0.000000   0.000013  -0.000000   0.000000  -0.000000
    32  H   -0.000001   0.000000  -0.000000   0.000000  -0.000000  -0.000000
    33  H    0.000005  -0.000000  -0.002396  -0.000002   0.000103  -0.001155
              31         32         33
     1  Zr   0.000373   0.002077  -0.016611
     2  O    0.000167  -0.000025   0.001032
     3  O   -0.000020   0.000039  -0.010147
     4  O   -0.018430   0.010546  -0.009759
     5  O   -0.000009   0.000002  -0.000093
     6  Si   0.063592   0.022728   0.053898
     7  Si   0.000152  -0.000682   0.020698
     8  Si  -0.002126   0.000061   0.000164
     9  Si  -0.000052  -0.000012   0.000089
    10  O    0.000000  -0.000000  -0.000000
    11  O   -0.000000   0.000000   0.000000
    12  O   -0.000000  -0.000000   0.000000
    13  O    0.002341  -0.000008   0.000237
    14  O    0.000168  -0.000006   0.002123
    15  O   -0.000018   0.000000  -0.000036
    16  O    0.003768   0.233481  -0.000154
    17  O   -0.000736  -0.003629   0.230989
    18  O    0.217976   0.003876   0.002098
    19  O    0.000004   0.000093   0.014728
    20  O   -0.000000   0.000000  -0.000063
    21  O   -0.000000   0.000001   0.001447
    22  H   -0.000000  -0.000000  -0.000000
    23  H   -0.000000  -0.000000  -0.000000
    24  H    0.000000  -0.000000  -0.000000
    25  H   -0.000481  -0.000001   0.000005
    26  H    0.000000   0.000000  -0.000000
    27  H    0.000013  -0.000000  -0.002396
    28  H   -0.000000   0.000000  -0.000002
    29  H    0.000000  -0.000000   0.000103
    30  H   -0.000000  -0.000000  -0.001155
    31  H    0.331406   0.000000  -0.000038
    32  H    0.000000   0.349995   0.000157
    33  H   -0.000038   0.000157   0.269256
 Mulliken charges:
               1
     1  Zr  -0.008792
     2  O   -0.554256
     3  O   -0.420159
     4  O   -0.675701
     5  O   -0.366494
     6  Si   2.229918
     7  Si   1.781405
     8  Si   2.019078
     9  Si   1.617391
    10  O   -0.850709
    11  O   -0.786503
    12  O   -0.789863
    13  O   -0.842009
    14  O   -0.880790
    15  O   -0.876008
    16  O   -0.734056
    17  O   -0.967860
    18  O   -1.080432
    19  O   -0.988508
    20  O   -0.804544
    21  O   -0.831191
    22  H    0.387861
    23  H    0.372613
    24  H    0.365824
    25  H    0.414678
    26  H    0.378502
    27  H    0.429221
    28  H    0.375948
    29  H    0.447491
    30  H    0.411260
    31  H    0.401950
    32  H    0.381306
    33  H    0.443429
 Sum of Mulliken charges =  -0.00000
 Mulliken charges with hydrogens summed into heavy atoms:
               1
     1  Zr  -0.008792
     2  O   -0.554256
     3  O   -0.420159
     4  O   -0.675701
     5  O   -0.366494
     6  Si   2.229918
     7  Si   1.781405
     8  Si   2.019078
     9  Si   1.617391
    10  O   -0.478096
    11  O   -0.420678
    12  O   -0.402002
    13  O   -0.427332
    14  O   -0.451568
    15  O   -0.497507
    16  O   -0.352750
    17  O   -0.524431
    18  O   -0.678481
    19  O   -0.577248
    20  O   -0.428596
    21  O   -0.383700
 Electronic spatial extent (au):  <R**2>=           9830.6224
 Charge=             -0.0000 electrons
 Dipole moment (field-independent basis, Debye):
    X=              1.1327    Y=             -0.7213    Z=             -2.3945  Tot=              2.7453
 Quadrupole moment (field-independent basis, Debye-Ang):
   XX=           -160.2104   YY=           -154.2688   ZZ=           -157.7546
   XY=             -4.3545   XZ=              2.4629   YZ=              5.8063
 Traceless Quadrupole moment (field-independent basis, Debye-Ang):
   XX=             -2.7992   YY=              3.1425   ZZ=             -0.3433
   XY=             -4.3545   XZ=              2.4629   YZ=              5.8063
 Octapole moment (field-independent basis, Debye-Ang**2):
  XXX=             74.9135  YYY=              7.0840  ZZZ=            -18.6947  XYY=             -1.5010
  XXY=             18.5383  XXZ=             19.4519  XZZ=              5.4841  YZZ=            -17.4930
  YYZ=            -16.6744  XYZ=             26.8614
 Hexadecapole moment (field-independent basis, Debye-Ang**3):
 XXXX=          -6035.6979 YYYY=          -2821.5568 ZZZZ=          -2256.9326 XXXY=             56.2284
 XXXZ=            -41.9596 YYYX=             11.8078 YYYZ=            206.6281 ZZZX=           -184.6920
 ZZZY=            -49.0231 XXYY=          -1465.0026 XXZZ=          -1356.5858 YYZZ=           -920.4728
 XXYZ=              3.0687 YYXZ=            144.5706 ZZXY=            -58.7965
 N-N= 2.835505138428D+03 E-N=-1.138364287277D+04  KE= 2.373157698569D+03
 PrsmSu:  requested number of processors reduced to:   2 ShMem   1 Linda.
 PrsmSu:  requested number of processors reduced to:  10 ShMem   1 Linda.
   1 Symmetry operations used in ECPInt.
 ECPInt:  NShTT=   13203 NPrTT=   78401 LenC2=   11530 LenP2D=   44661.
 LDataN:  DoStor=T MaxTD1= 9 Len=  602
 Number of processors reduced to  14 by ecpmxn.
 Calling FoFJK, ICntrl=      2127 FMM=F ISym2X=0 I1Cent= 0 IOpClX= 0 NMat=1 NMatS=1 NMatT=0.
 CoulSu:  requested number of processors reduced to:  10 ShMem   1 Linda.
 Defaulting to unpruned grid for atomic number  40.
 Defaulting to unpruned grid for atomic number  40.
 Defaulting to unpruned grid for atomic number  40.
 Defaulting to unpruned grid for atomic number  40.
 Defaulting to unpruned grid for atomic number  40.
 Defaulting to unpruned grid for atomic number  40.
 Defaulting to unpruned grid for atomic number  40.
 Defaulting to unpruned grid for atomic number  40.
 Defaulting to unpruned grid for atomic number  40.
 Defaulting to unpruned grid for atomic number  40.
 Defaulting to unpruned grid for atomic number  40.
 Defaulting to unpruned grid for atomic number  40.
 Defaulting to unpruned grid for atomic number  40.
 Defaulting to unpruned grid for atomic number  40.
 Defaulting to unpruned grid for atomic number  40.
 Defaulting to unpruned grid for atomic number  40.
 ***** Axes restored to original set *****
 -------------------------------------------------------------------
 Center     Atomic                   Forces (Hartrees/Bohr)
 Number     Number              X              Y              Z
 -------------------------------------------------------------------
      1       40          -0.000750966    0.000199432    0.000017858
      2        8          -0.000027846   -0.000017559    0.000071942
      3        8          -0.000037064   -0.000153851   -0.000012733
      4        8          -0.000022856   -0.000018919   -0.000070019
      5        8           0.000460219    0.000329169    0.000091467
      6       14           0.000042973    0.000012425    0.000040164
      7       14           0.000060311   -0.000054511    0.000021425
      8       14           0.000073383   -0.000002119   -0.000047564
      9       14           0.000421008   -0.000784535   -0.000219488
     10        8           0.000006935    0.000115703    0.000058105
     11        8          -0.000007075    0.000145107    0.000015860
     12        8          -0.000059430    0.000162913    0.000077401
     13        8          -0.000026099   -0.000001978    0.000009593
     14        8          -0.000039009    0.000031041    0.000003100
     15        8          -0.000015919    0.000002806    0.000017264
     16        8          -0.000009086    0.000001146   -0.000019104
     17        8          -0.000011156    0.000003947   -0.000012310
     18        8          -0.000024750    0.000002139   -0.000003308
     19        8          -0.000009612    0.000015103   -0.000010953
     20        8          -0.000009431    0.000027675   -0.000005990
     21        8          -0.000017158    0.000010970   -0.000004589
     22        1          -0.000003285    0.000064170    0.000028383
     23        1          -0.000027415   -0.000017567   -0.000010949
     24        1          -0.000027034   -0.000026001   -0.000032884
     25        1           0.000008356   -0.000007311    0.000001509
     26        1           0.000003240    0.000002374   -0.000003341
     27        1           0.000008153   -0.000009005   -0.000000621
     28        1           0.000008184   -0.000017332   -0.000000462
     29        1           0.000035504   -0.000008630   -0.000008925
     30        1           0.000002072   -0.000000689    0.000003321
     31        1           0.000011037   -0.000000960   -0.000000303
     32        1          -0.000002027   -0.000002574    0.000008382
     33        1          -0.000014155   -0.000002581   -0.000002227
 -------------------------------------------------------------------
 Cartesian Forces:  Max     0.000784535 RMS     0.000139312

 GradGradGradGradGradGradGradGradGradGradGradGradGradGradGradGradGradGrad
 Berny optimization.
 FormGI is forming the generalized inverse of G from B-inverse, IUseBI=4.
 Internal  Forces:  Max     0.000754020 RMS     0.000098412
 Search for a local minimum.
 Step number   1 out of a maximum of  148
 All quantities printed in internal units (Hartrees-Bohrs-Radians)
 Mixed Optimization -- En-DIIS/RFO-DIIS
 Second derivative matrix not updated -- first step.
 ITU=  0
     Eigenvalues ---    0.00230   0.00230   0.00230   0.03240   0.03358
     Eigenvalues ---    0.03498   0.03580   0.03665   0.03665   0.03680
     Eigenvalues ---    0.03686   0.03693   0.03739   0.03789   0.03792
     Eigenvalues ---    0.03816   0.03834   0.03850   0.05521   0.09402
     Eigenvalues ---    0.09687   0.11077   0.11224   0.11833   0.11884
     Eigenvalues ---    0.11890   0.12177   0.12239   0.12299   0.12782
     Eigenvalues ---    0.12895   0.13099   0.13313   0.16000   0.16000
     Eigenvalues ---    0.16000   0.16000   0.16000   0.16000   0.16000
     Eigenvalues ---    0.16000   0.16000   0.16000   0.16000   0.16000
     Eigenvalues ---    0.19173   0.19314   0.19332   0.20013   0.20203
     Eigenvalues ---    0.20204   0.20208   0.20515   0.20653   0.20795
     Eigenvalues ---    0.20989   0.21175   0.21186   0.21227   0.25000
     Eigenvalues ---    0.25000   0.25000   0.38002   0.39187   0.40659
     Eigenvalues ---    0.41546   0.42502   0.42509   0.42671   0.42743
     Eigenvalues ---    0.42824   0.43363   0.43951   0.43980   0.44273
     Eigenvalues ---    0.44485   0.44689   0.44768   0.50655   0.51353
     Eigenvalues ---    0.52036   0.52548   0.54334   0.54624   0.54642
     Eigenvalues ---    0.54649   0.54689   0.54692   0.54713   0.54765
     Eigenvalues --- 1000.000001000.000001000.000001000.000001000.00000
     Eigenvalues --- 1000.000001000.000001000.000001000.000001000.00000
     Eigenvalues --- 1000.000001000.000001000.000001000.000001000.00000
     Eigenvalues --- 1000.000001000.000001000.000001000.000001000.00000
     Eigenvalues --- 1000.000001000.000001000.000001000.000001000.00000
     Eigenvalues --- 1000.000001000.000001000.000001000.000001000.00000
     Eigenvalues --- 1000.000001000.000001000.000001000.000001000.00000
     Eigenvalues --- 1000.000001000.000001000.000001000.000001000.00000
     Eigenvalues --- 1000.000001000.000001000.000001000.000001000.00000
     Eigenvalues --- 1000.000001000.000001000.00000
 RFO step:  Lambda=-5.20135078D-06 EMin= 2.30000000D-03
 Linear search not attempted -- first point.
 Iteration  1 RMS(Cart)=  0.00595139 RMS(Int)=  0.00001039
 Iteration  2 RMS(Cart)=  0.00001787 RMS(Int)=  0.00000010
 Iteration  3 RMS(Cart)=  0.00000000 RMS(Int)=  0.00000010
 Iteration  1 RMS(Cart)=  0.00000002 RMS(Int)=  0.00000001
 Variable       Old X    -DE/DX   Delta X   Delta X   Delta X     New X
                                 (Linear)    (Quad)   (Total)
    R1        3.67647   0.00005   0.00000   0.00024   0.00024   3.67671
    R2        3.69189  -0.00018   0.00000  -0.00089  -0.00089   3.69100
    R3        3.73835   0.00006   0.00000   0.00032   0.00032   3.73867
    R4        3.70232   0.00075   0.00000   0.00373   0.00373   3.70605
    R5        3.11688  -0.00002   0.00000  -0.00005  -0.00005   3.11682
    R6        3.09579  -0.00007   0.00000  -0.00015  -0.00015   3.09564
    R7        3.10213  -0.00000   0.00000  -0.00000  -0.00000   3.10213
    R8        3.09246   0.00023   0.00000   0.00052   0.00052   3.09299
    R9        3.11587   0.00001   0.00000   0.00003   0.00003   3.11590
   R10        3.11989   0.00001   0.00000   0.00002   0.00002   3.11991
   R11        3.14367   0.00000   0.00000   0.00001   0.00001   3.14368
   R12        3.18062   0.00001   0.00000   0.00003   0.00003   3.18065
   R13        3.10924   0.00001   0.00000   0.00002   0.00002   3.10926
   R14        3.09339  -0.00002   0.00000  -0.00005  -0.00005   3.09334
   R15        3.10179   0.00001   0.00000   0.00003   0.00003   3.10182
   R16        3.16373   0.00003   0.00000   0.00008   0.00008   3.16382
   R17        3.09830   0.00001   0.00000   0.00003   0.00003   3.09833
   R18        3.11981  -0.00004   0.00000  -0.00009  -0.00009   3.11972
   R19        3.13205  -0.00012   0.00000  -0.00029  -0.00029   3.13176
   R20        3.11778   0.00025   0.00000   0.00058   0.00058   3.11836
   R21        1.82152   0.00001   0.00000   0.00001   0.00001   1.82153
   R22        1.82107  -0.00000   0.00000  -0.00001  -0.00001   1.82106
   R23        1.82088   0.00003   0.00000   0.00005   0.00005   1.82093
   R24        1.84078  -0.00000   0.00000  -0.00000  -0.00000   1.84078
   R25        1.84565  -0.00000   0.00000  -0.00000  -0.00000   1.84565
   R26        1.82041  -0.00001   0.00000  -0.00001  -0.00001   1.82040
   R27        1.82109  -0.00001   0.00000  -0.00001  -0.00001   1.82108
   R28        1.85910  -0.00001   0.00000  -0.00001  -0.00001   1.85909
   R29        1.82145   0.00000   0.00000   0.00000   0.00000   1.82146
   R30        1.82428  -0.00000   0.00000  -0.00001  -0.00001   1.82428
   R31        1.82168  -0.00001   0.00000  -0.00002  -0.00002   1.82166
   R32        1.85224  -0.00000   0.00000  -0.00001  -0.00001   1.85223
    A1        1.85172  -0.00004   0.00000  -0.00048  -0.00048   1.85125
    A2        1.80155   0.00004   0.00000   0.00017   0.00017   1.80172
    A3        1.96889  -0.00000   0.00000  -0.00018  -0.00018   1.96871
    A4        1.83430  -0.00002   0.00000   0.00019   0.00019   1.83449
    A5        2.01802   0.00007   0.00000   0.00037   0.00037   2.01839
    A6        1.97057  -0.00005   0.00000  -0.00009  -0.00009   1.97048
    A7        2.46524  -0.00005   0.00000  -0.00018  -0.00018   2.46506
    A8        2.58826  -0.00001   0.00000  -0.00004  -0.00004   2.58822
    A9        2.35483   0.00004   0.00000   0.00018   0.00018   2.35500
   A10        2.79253   0.00063   0.00000   0.00000   0.00000   2.79253
   A11        1.91978  -0.00001   0.00000  -0.00006  -0.00006   1.91972
   A12        1.91546   0.00005   0.00000   0.00029   0.00029   1.91575
   A13        1.95201  -0.00000   0.00000  -0.00000  -0.00000   1.95201
   A14        2.00708  -0.00002   0.00000  -0.00011  -0.00011   2.00697
   A15        1.88610  -0.00000   0.00000  -0.00008  -0.00008   1.88603
[...]
     6  Si  -0.613411   0.090409  -0.005962  -0.659278  -0.003875  13.965210
     7  Si  -0.630864  -0.026993  -0.870547  -0.005807  -0.031544   0.088569
     8  Si  -0.605368  -0.985742  -0.023922   0.077019  -0.010458  -0.018818
     9  Si  -0.369626  -0.035447  -0.012088  -0.027223  -1.220419   0.044439
    10  O   -0.016812   0.000852  -0.002686   0.000661   0.127748  -0.002710
    11  O   -0.076169   0.003407   0.003002   0.001304   0.319732  -0.000659
    12  O    0.048841  -0.000141   0.005084   0.002027   0.159578  -0.003190
    13  O   -0.034481   0.188460   0.001582  -0.015184  -0.000818   0.033188
    14  O   -0.025662   0.260387  -0.018152  -0.009308   0.001378   0.031709
    15  O   -0.084010   0.290583  -0.000652   0.001193   0.000583   0.000438
    16  O   -0.121138   0.004672  -0.000488   0.344351   0.003099  -0.426726
    17  O   -0.098669  -0.039298   0.007385   0.216349   0.000951  -0.439467
    18  O   -0.034101  -0.014452   0.003678   0.200347  -0.000711  -0.447269
    19  O    0.000346   0.009016   0.267138   0.010815   0.002059  -0.008428
    20  O   -0.143466  -0.000582   0.158542  -0.000851   0.001203   0.009120
    21  O    0.038263   0.010367   0.150692   0.003526   0.000333  -0.013291
    22  H   -0.010244  -0.000017   0.000001  -0.000009   0.005161   0.000108
    23  H   -0.006915  -0.000012  -0.000006  -0.000058  -0.025148   0.000087
    24  H   -0.005434  -0.000164  -0.000007   0.000002  -0.004442   0.000057
    25  H    0.016558  -0.020003  -0.000107  -0.000414   0.000023   0.003088
    26  H    0.007861   0.000661   0.000014  -0.000011  -0.000003  -0.000212
    27  H    0.008036  -0.019292   0.000898  -0.001666   0.000016   0.007644
    28  H    0.004850  -0.000011  -0.018257  -0.000015  -0.000014  -0.000289
    29  H    0.004110  -0.007050  -0.020249  -0.000133  -0.000067   0.000049
    30  H    0.000743  -0.000012   0.000113  -0.000458  -0.000007  -0.000733
    31  H    0.000285   0.000168  -0.000020  -0.018438  -0.000009   0.063713
    32  H    0.002072  -0.000025   0.000039   0.010561   0.000002   0.022781
    33  H   -0.016659   0.001028  -0.010157  -0.009728  -0.000092   0.053873
               7          8          9         10         11         12
     1  Zr  -0.630864  -0.605368  -0.369626  -0.016812  -0.076169   0.048841
     2  O   -0.026993  -0.985742  -0.035447   0.000852   0.003407  -0.000141
     3  O   -0.870547  -0.023922  -0.012088  -0.002686   0.003002   0.005084
     4  O   -0.005807   0.077019  -0.027223   0.000661   0.001304   0.002027
     5  O   -0.031544  -0.010458  -1.220419   0.127748   0.319732   0.159578
     6  Si   0.088569  -0.018818   0.044439  -0.002710  -0.000659  -0.003190
     7  Si  13.791465   0.185486   0.022395  -0.000033  -0.000627   0.004233
     8  Si   0.185486  13.784401   0.028792  -0.001031   0.001406  -0.000956
     9  Si   0.022395   0.028792  14.255396  -0.053854  -0.187220  -0.241728
    10  O   -0.000033  -0.001031  -0.053854   8.526001   0.004863   0.037421
    11  O   -0.000627   0.001406  -0.187220   0.004863   8.537731  -0.050240
    12  O    0.004233  -0.000956  -0.241728   0.037421  -0.050240   8.613208
    13  O    0.007083  -0.096749   0.000082   0.000000   0.000017   0.000011
    14  O    0.012044  -0.359226  -0.001309  -0.000002   0.000003   0.000026
    15  O   -0.002317  -0.301965  -0.000456   0.000000  -0.000025  -0.000024
    16  O    0.003588  -0.010580  -0.001178   0.000007  -0.000003  -0.000000
    17  O    0.002306   0.100916   0.003037  -0.000001   0.000002  -0.000006
    18  O   -0.000814   0.076121   0.004218  -0.000001  -0.000001  -0.000001
    19  O   -0.411504  -0.016757   0.001009   0.000008  -0.000001  -0.000023
    20  O   -0.101491   0.009725   0.003378   0.000003  -0.000003  -0.000032
    21  O    0.018470  -0.041825  -0.002180   0.000001   0.000002   0.000031
    22  H   -0.000221   0.000112   0.049220  -0.006095  -0.005023   0.219262
    23  H    0.000055   0.000058   0.079034   0.229208  -0.005811   0.005885
    24  H    0.000056  -0.000082   0.037631   0.007446   0.240500  -0.007204
    25  H   -0.000435   0.057453  -0.000194   0.000000  -0.000000  -0.000000
    26  H   -0.000398   0.045594  -0.000054  -0.000000   0.000000  -0.000000
    27  H    0.000784   0.066956  -0.000040   0.000000  -0.000000  -0.000000
    28  H    0.056432  -0.000060  -0.000142  -0.000000  -0.000000  -0.000006
    29  H    0.048224   0.021918  -0.000070   0.000000   0.000000  -0.000001
    30  H    0.040401   0.000133   0.000022  -0.000000  -0.000000   0.000000
    31  H    0.000153  -0.002137  -0.000052   0.000000  -0.000000  -0.000000
    32  H   -0.000681   0.000060  -0.000011  -0.000000   0.000000  -0.000000
    33  H    0.020719   0.000169   0.000088  -0.000000   0.000000   0.000000
              13         14         15         16         17         18
     1  Zr  -0.034481  -0.025662  -0.084010  -0.121138  -0.098669  -0.034101
     2  O    0.188460   0.260387   0.290583   0.004672  -0.039298  -0.014452
     3  O    0.001582  -0.018152  -0.000652  -0.000488   0.007385   0.003678
     4  O   -0.015184  -0.009308   0.001193   0.344351   0.216349   0.200347
     5  O   -0.000818   0.001378   0.000583   0.003099   0.000951  -0.000711
     6  Si   0.033188   0.031709   0.000438  -0.426726  -0.439467  -0.447269
     7  Si   0.007083   0.012044  -0.002317   0.003588   0.002306  -0.000814
     8  Si  -0.096749  -0.359226  -0.301965  -0.010580   0.100916   0.076121
     9  Si   0.000082  -0.001309  -0.000456  -0.001178   0.003037   0.004218
    10  O    0.000000  -0.000002   0.000000   0.000007  -0.000001  -0.000001
    11  O    0.000017   0.000003  -0.000025  -0.000003   0.000002  -0.000001
    12  O    0.000011   0.000026  -0.000024  -0.000000  -0.000006  -0.000001
    13  O    8.628903   0.087054  -0.091368   0.003732  -0.030894  -0.045491
    14  O    0.087054   8.673003   0.055504   0.003596  -0.035756  -0.027052
    15  O   -0.091368   0.055504   8.775823  -0.000174   0.003633   0.001670
    16  O    0.003732   0.003596  -0.000174   8.902500  -0.092187  -0.114822
    17  O   -0.030894  -0.035756   0.003633  -0.092187   8.934160   0.227554
    18  O   -0.045491  -0.027052   0.001670  -0.114822   0.227554   9.011991
    19  O    0.000194  -0.000330   0.000140  -0.001508  -0.029665   0.000181
    20  O    0.000008  -0.000353   0.000037   0.000060  -0.001054   0.000016
    21  O   -0.000243   0.016302  -0.000596  -0.000208  -0.005617   0.000472
    22  H   -0.000000   0.000000   0.000000   0.000000   0.000000  -0.000000
    23  H    0.000000   0.000000  -0.000000  -0.000000   0.000000  -0.000000
    24  H   -0.000000   0.000000   0.000001   0.000000  -0.000000  -0.000000
    25  H    0.218416  -0.011890   0.008925  -0.000053   0.000610   0.014780
    26  H   -0.005180  -0.010123   0.217133   0.000000  -0.000004   0.000005
    27  H   -0.009732   0.219028   0.004607   0.000194   0.017729  -0.000265
    28  H    0.000000  -0.000005  -0.000001  -0.000000   0.000003  -0.000000
    29  H    0.000790   0.017631  -0.002561  -0.000004  -0.000391   0.000007
    30  H    0.000001   0.000003   0.000000   0.000116  -0.000364  -0.000008
    31  H    0.002341   0.000169  -0.000018   0.003712  -0.000707   0.218011
    32  H   -0.000008  -0.000006   0.000000   0.233376  -0.003609   0.003853
    33  H    0.000237   0.002119  -0.000036  -0.000143   0.231056   0.002085
              19         20         21         22         23         24
     1  Zr   0.000346  -0.143466   0.038263  -0.010244  -0.006915  -0.005434
     2  O    0.009016  -0.000582   0.010367  -0.000017  -0.000012  -0.000164
     3  O    0.267138   0.158542   0.150692   0.000001  -0.000006  -0.000007
     4  O    0.010815  -0.000851   0.003526  -0.000009  -0.000058   0.000002
     5  O    0.002059   0.001203   0.000333   0.005161  -0.025148  -0.004442
     6  Si  -0.008428   0.009120  -0.013291   0.000108   0.000087   0.000057
     7  Si  -0.411504  -0.101491   0.018470  -0.000221   0.000055   0.000056
     8  Si  -0.016757   0.009725  -0.041825   0.000112   0.000058  -0.000082
     9  Si   0.001009   0.003378  -0.002180   0.049220   0.079034   0.037631
    10  O    0.000008   0.000003   0.000001  -0.006095   0.229208   0.007446
    11  O   -0.000001  -0.000003   0.000002  -0.005023  -0.005811   0.240500
    12  O   -0.000023  -0.000032   0.000031   0.219262   0.005885  -0.007204
    13  O    0.000194   0.000008  -0.000243  -0.000000   0.000000  -0.000000
    14  O   -0.000330  -0.000353   0.016302   0.000000   0.000000   0.000000
    15  O    0.000140   0.000037  -0.000596   0.000000  -0.000000   0.000001
    16  O   -0.001508   0.000060  -0.000208   0.000000  -0.000000   0.000000
    17  O   -0.029665  -0.001054  -0.005617   0.000000   0.000000  -0.000000
    18  O    0.000181   0.000016   0.000472  -0.000000  -0.000000  -0.000000
    19  O    8.873923   0.032041   0.024668  -0.000000   0.000000  -0.000000
    20  O    0.032041   8.653021  -0.050928   0.000001   0.000000  -0.000000
    21  O    0.024668  -0.050928   8.487888  -0.000000   0.000000   0.000000
    22  H   -0.000000   0.000001  -0.000000   0.359762   0.000050   0.000116
    23  H    0.000000   0.000000   0.000000   0.000050   0.351240   0.000017
    24  H   -0.000000  -0.000000   0.000000   0.000116   0.000017   0.365455
    25  H   -0.000024   0.000000  -0.000018   0.000000   0.000000   0.000000
    26  H    0.000001  -0.000000   0.000038  -0.000000  -0.000000  -0.000000
    27  H    0.000003   0.000194  -0.004048  -0.000000  -0.000000   0.000000
    28  H    0.004659   0.229727  -0.002064  -0.000000   0.000000  -0.000000
    29  H   -0.008579   0.007675   0.206516   0.000000   0.000000  -0.000000
    30  H    0.224128  -0.001506  -0.007183   0.000000  -0.000000  -0.000000
    31  H    0.000004  -0.000000  -0.000000  -0.000000  -0.000000   0.000000
    32  H    0.000093   0.000000   0.000001  -0.000000  -0.000000  -0.000000
    33  H    0.014746  -0.000065   0.001441  -0.000000  -0.000000  -0.000000
              25         26         27         28         29         30
     1  Zr   0.016558   0.007861   0.008036   0.004850   0.004110   0.000743
     2  O   -0.020003   0.000661  -0.019292  -0.000011  -0.007050  -0.000012
     3  O   -0.000107   0.000014   0.000898  -0.018257  -0.020249   0.000113
     4  O   -0.000414  -0.000011  -0.001666  -0.000015  -0.000133  -0.000458
     5  O    0.000023  -0.000003   0.000016  -0.000014  -0.000067  -0.000007
     6  Si   0.003088  -0.000212   0.007644  -0.000289   0.000049  -0.000733
     7  Si  -0.000435  -0.000398   0.000784   0.056432   0.048224   0.040401
     8  Si   0.057453   0.045594   0.066956  -0.000060   0.021918   0.000133
     9  Si  -0.000194  -0.000054  -0.000040  -0.000142  -0.000070   0.000022
    10  O    0.000000  -0.000000   0.000000  -0.000000   0.000000  -0.000000
    11  O   -0.000000   0.000000  -0.000000  -0.000000   0.000000  -0.000000
    12  O   -0.000000  -0.000000  -0.000000  -0.000006  -0.000001   0.000000
    13  O    0.218416  -0.005180  -0.009732   0.000000   0.000790   0.000001
    14  O   -0.011890  -0.010123   0.219028  -0.000005   0.017631   0.000003
    15  O    0.008925   0.217133   0.004607  -0.000001  -0.002561   0.000000
    16  O   -0.000053   0.000000   0.000194  -0.000000  -0.000004   0.000116
    17  O    0.000610  -0.000004   0.017729   0.000003  -0.000391  -0.000364
    18  O    0.014780   0.000005  -0.000265  -0.000000   0.000007  -0.000008
    19  O   -0.000024   0.000001   0.000003   0.004659  -0.008579   0.224128
    20  O    0.000000  -0.000000   0.000194   0.229727   0.007675  -0.001506
    21  O   -0.000018   0.000038  -0.004048  -0.002064   0.206516  -0.007183
    22  H    0.000000  -0.000000  -0.000000  -0.000000   0.000000   0.000000
    23  H    0.000000  -0.000000  -0.000000   0.000000   0.000000  -0.000000
    24  H    0.000000  -0.000000   0.000000  -0.000000  -0.000000  -0.000000
    25  H    0.299048  -0.000011   0.000106   0.000000   0.000001   0.000000
    26  H   -0.000011   0.366131   0.000037   0.000000   0.000021  -0.000000
    27  H    0.000106   0.000037   0.283521  -0.000000  -0.001488   0.000009
    28  H    0.000000   0.000000  -0.000000   0.349311  -0.000017  -0.000016
    29  H    0.000001   0.000021  -0.001488  -0.000017   0.285914   0.000154
    30  H    0.000000  -0.000000   0.000009  -0.000016   0.000154   0.334315
    31  H   -0.000491   0.000000   0.000013  -0.000000   0.000000  -0.000000
    32  H   -0.000001   0.000000  -0.000000   0.000000  -0.000000  -0.000000
    33  H    0.000005  -0.000000  -0.002404  -0.000002   0.000104  -0.001151
              31         32         33
     1  Zr   0.000285   0.002072  -0.016659
     2  O    0.000168  -0.000025   0.001028
     3  O   -0.000020   0.000039  -0.010157
     4  O   -0.018438   0.010561  -0.009728
     5  O   -0.000009   0.000002  -0.000092
     6  Si   0.063713   0.022781   0.053873
     7  Si   0.000153  -0.000681   0.020719
     8  Si  -0.002137   0.000060   0.000169
     9  Si  -0.000052  -0.000011   0.000088
    10  O    0.000000  -0.000000  -0.000000
    11  O   -0.000000   0.000000   0.000000
    12  O   -0.000000  -0.000000   0.000000
    13  O    0.002341  -0.000008   0.000237
    14  O    0.000169  -0.000006   0.002119
    15  O   -0.000018   0.000000  -0.000036
    16  O    0.003712   0.233376  -0.000143
    17  O   -0.000707  -0.003609   0.231056
    18  O    0.218011   0.003853   0.002085
    19  O    0.000004   0.000093   0.014746
    20  O   -0.000000   0.000000  -0.000065
    21  O   -0.000000   0.000001   0.001441
    22  H   -0.000000  -0.000000  -0.000000
    23  H   -0.000000  -0.000000  -0.000000
    24  H    0.000000  -0.000000  -0.000000
    25  H   -0.000491  -0.000001   0.000005
    26  H    0.000000   0.000000  -0.000000
    27  H    0.000013  -0.000000  -0.002404
    28  H   -0.000000   0.000000  -0.000002
    29  H    0.000000  -0.000000   0.000104
    30  H   -0.000000  -0.000000  -0.001151
    31  H    0.331598   0.000001  -0.000038
    32  H    0.000001   0.350042   0.000157
    33  H   -0.000038   0.000157   0.269282
 Mulliken charges:
               1
     1  Zr  -0.007652
     2  O   -0.554230
     3  O   -0.420642
     4  O   -0.676027
     5  O   -0.373184
     6  Si   2.229836
     7  Si   1.781815
     8  Si   2.019355
     9  Si   1.624550
    10  O   -0.850995
    11  O   -0.786187
    12  O   -0.792054
    13  O   -0.841949
    14  O   -0.880783
    15  O   -0.876066
    16  O   -0.733791
    17  O   -0.968002
    18  O   -1.080000
    19  O   -0.988353
    20  O   -0.804422
    21  O   -0.830808
    22  H    0.387817
    23  H    0.372314
    24  H    0.366051
    25  H    0.414628
    26  H    0.378498
    27  H    0.429160
    28  H    0.375915
    29  H    0.447498
    30  H    0.411298
    31  H    0.401742
    32  H    0.381303
    33  H    0.443366
 Sum of Mulliken charges =  -0.00000
 Mulliken charges with hydrogens summed into heavy atoms:
               1
     1  Zr  -0.007652
     2  O   -0.554230
     3  O   -0.420642
     4  O   -0.676027
     5  O   -0.373184
     6  Si   2.229836
     7  Si   1.781815
     8  Si   2.019355
     9  Si   1.624550
    10  O   -0.478680
    11  O   -0.420136
    12  O   -0.404237
    13  O   -0.427321
    14  O   -0.451623
    15  O   -0.497567
    16  O   -0.352488
    17  O   -0.524636
    18  O   -0.678257
    19  O   -0.577056
    20  O   -0.428507
    21  O   -0.383311
 Electronic spatial extent (au):  <R**2>=           9833.5982
 Charge=             -0.0000 electrons
 Dipole moment (field-independent basis, Debye):
    X=              1.1137    Y=             -0.7320    Z=             -2.4185  Tot=              2.7614
 Quadrupole moment (field-independent basis, Debye-Ang):
   XX=           -160.5306   YY=           -154.1884   ZZ=           -157.7781
   XY=             -4.3925   XZ=              2.3064   YZ=              5.8239
 Traceless Quadrupole moment (field-independent basis, Debye-Ang):
   XX=             -3.0316   YY=              3.3106   ZZ=             -0.2791
   XY=             -4.3925   XZ=              2.3064   YZ=              5.8239
 Octapole moment (field-independent basis, Debye-Ang**2):
  XXX=             72.9779  YYY=              6.7750  ZZZ=            -18.9220  XYY=             -0.9757
  XXY=             18.7940  XXZ=             18.8437  XZZ=              5.4217  YZZ=            -17.3368
  YYZ=            -16.5943  XYZ=             27.1520
 Hexadecapole moment (field-independent basis, Debye-Ang**3):
 XXXX=          -6052.6898 YYYY=          -2821.0188 ZZZZ=          -2256.9094 XXXY=             56.8594
 XXXZ=            -44.6152 YYYX=             11.5531 YYYZ=            206.4301 ZZZX=           -186.3539
 ZZZY=            -48.7224 XXYY=          -1465.7972 XXZZ=          -1357.9010 YYZZ=           -920.8836
 XXYZ=              3.2879 YYXZ=            144.6047 ZZXY=            -58.8991
 N-N= 2.835296542233D+03 E-N=-1.138321615991D+04  KE= 2.373154821855D+03
 1\1\GINC-GRA630\FOpt\RB3LYP\Gen\H12O16Si4Zr1\SARASHS\12-Aug-2020\0\\#n
  B3LYP/Gen Pseudo=cards EmpiricalDispersion=GD3 Opt=modredundant\\Titl
 e\\0,1\Zr,0.6580858149,-0.1238438228,-0.0709549479\O,-0.2226260373,-0.
 9056865789,1.4776230603\O,0.0998947269,1.7470054332,-0.1215045216\O,-0
 .2676894799,-0.9770795848,-1.59685023\O,2.5939655712,-0.4365234575,-0.
 0822755201\Si,-1.8302674595,-1.3324771838,-1.953063581\Si,-1.117863776
 1,2.8420824113,-0.0829675178\Si,-1.7235314583,-1.1517384212,2.11566452
 26\Si,4.1998674084,-0.1448033487,0.0407832513\O,4.9524914074,0.0716018
 339,-1.4125298163\O,4.9647614739,-1.4373421541,0.7409734207\O,4.313509
 6992,1.2603299837,0.8986505794\O,-2.3191842314,-2.6231236514,1.6979844
 03\O,-2.7242314609,0.0657567315,1.550567053\O,-1.5971884393,-1.0169220
 628,3.7447884016\O,-1.9998600274,-1.5612166624,-3.5771744019\O,-2.8256
 667361,-0.1874862474,-1.3021164018\O,-2.3423581856,-2.7143759259,-1.18
 1239332\O,-2.0419677268,2.4396968863,-1.4308620687\O,-0.6372690468,4.4
 005216126,-0.3007954535\O,-1.9686540936,2.7620398428,1.3131924537\H,5.
 1701581218,1.7014735773,0.9021748583\H,5.3588764276,-0.7134634011,-1.7
 967607758\H,4.5355205842,-1.8469954297,1.5003033537\H,-2.4048318762,-2
 .8094041415,0.7457059013\H,-2.3814122955,-1.2206203558,4.2658306142\H,
 -3.0603029592,-0.083018233,0.6456883396\H,-0.5260774927,4.9268093552,0
 .4991610671\H,-2.2705139545,1.8700658068,1.585217289\H,-2.6496859923,3
 .1268477374,-1.7315653187\H,-2.2983859427,-3.5302076279,-1.6926687584\
 H,-1.2692391911,-1.2650863238,-4.1314067678\H,-2.6115133725,0.75400340
 23,-1.4906231555\\Version=ES64L-G16RevB.01\State=1-A\HF=-2416.9468452\
 RMSD=3.664e-09\RMSF=4.413e-05\Dipole=0.4541866,-0.2762,-0.9474951\Quad
 rupole=-2.0466405,2.2637879,-0.2171474,-3.4431408,1.5655906,4.3540478\
 PG=C01 [X(H12O16Si4Zr1)]\\@


          EVOLUTION
 IN THE BEGINNING GOD MADE MAN.
 HE WORKED THE DIRT WITH HIS HANDS.
 THEN GOD DECIDED TO GIVE MAN SCIENCE,
 MAN SHOULD BE USEFUL (LIKE AN APPLIANCE.)
 BUT SOON MAN'S KNOWLEDGE GREW TOO GREAT,
 TO THE HEADING SCIENCE HE COULDN'T RELATE
 SO GOD SAID "LETS HAVE DIFFERENT FIELDS,
 WE'LL DIVIDE THEM UP, SEE WHAT IT YIELDS."
 ENTER PHYSICS, CHEMISTRY, BIO
 THEY SPRANG UP AROUND THE NILE.
 BUT CHEMISTRY SURPASSED THE REST
 FAR AND AWAY IT WAS THE BEST.
 EXPERIMENT WAS GOD'S DECREE
 EXPERIMENT DID CHEMISTS WITH LOTS OF GLEE
 BUT SOON THEIR TESTS BEGAN TO BOG,
 THEY FOUND THEMSELVES DEEP IN A FOG.
 "GIVE US SOME HELP" THEY CRIED TO GOD.
 GOD LOOKED AROUND, THEN GAVE THE NOD.
 ENTER EINSTEIN, HEISENBERG, BOHR,
 REACTION PATHS WERE CLEAR ONCE MORE.
 WITH THEORISTS GOD SEND DIRECTION
 AND THEN HE STOPPED, HE'D MADE PERFECTION.
          -- THOMAS A. HOLME, 1981
 Job cpu time:       0 days 14 hours 36 minutes 20.0 seconds.
 Elapsed time:       0 days  1 hours  5 minutes 52.6 seconds.
 File lengths (MBytes):  RWF=    167 Int=      0 D2E=      0 Chk=     21 Scr=      1
 Normal termination of Gaussian 16 at Wed Aug 12 20:48:59 2020.
