 Entering Gaussian System, Link 0=g16
 Initial command:
 /opt/software/gaussian/g16.b01/l1.exe "/localscratch/sarashs.37192502.0/Gau-13159.inp" -scrdir="/localscratch/sarashs.37192502.0/"
 Entering Link 1 = /opt/software/gaussian/g16.b01/l1.exe PID=     13160.
  
 Copyright (c) 1988-2017, Gaussian, Inc.  All Rights Reserved.
  
 This is part of the Gaussian(R) 16 program.  It is based on
 the Gaussian(R) 09 system (copyright 2009, Gaussian, Inc.),
 the Gaussian(R) 03 system (copyright 2003, Gaussian, Inc.),
 the Gaussian(R) 98 system (copyright 1998, Gaussian, Inc.),
 the Gaussian(R) 94 system (copyright 1995, Gaussian, Inc.),
 the Gaussian 92(TM) system (copyright 1992, Gaussian, Inc.),
 the Gaussian 90(TM) system (copyright 1990, Gaussian, Inc.),
 the Gaussian 88(TM) system (copyright 1988, Gaussian, Inc.),
 the Gaussian 86(TM) system (copyright 1986, Carnegie Mellon
 University), and the Gaussian 82(TM) system (copyright 1983,
 Carnegie Mellon University). Gaussian is a federally registered
 trademark of Gaussian, Inc.
  
 This software contains proprietary and confidential information,
 including trade secrets, belonging to Gaussian, Inc.
  
 This software is provided under written license and may be
 used, copied, transmitted, or stored only in accord with that
 written license.
  
 The following legend is applicable only to US Government
 contracts under FAR:
  
                    RESTRICTED RIGHTS LEGEND
  
 Use, reproduction and disclosure by the US Government is
 subject to restrictions as set forth in subparagraphs (a)
 and (c) of the Commercial Computer Software - Restricted
 Rights clause in FAR 52.227-19.
  
 Gaussian, Inc.
 340 Quinnipiac St., Bldg. 40, Wallingford CT 06492
  
  
 ---------------------------------------------------------------
 Warning -- This program may not be used in any manner that
 competes with the business of Gaussian, Inc. or will provide
 assistance to any competitor of Gaussian, Inc.  The licensee
 of this program is prohibited from giving any competitor of
 Gaussian, Inc. access to this program.  By using this program,
 the user acknowledges that Gaussian, Inc. is engaged in the
 business of creating and licensing software in the field of
 computational chemistry and represents and warrants to the
 licensee that it is not a competitor of Gaussian, Inc. and that
 it will not use this program in any manner prohibited above.
 ---------------------------------------------------------------
  

 Cite this work as:
 Gaussian 16, Revision B.01,
 M. J. Frisch, G. W. Trucks, H. B. Schlegel, G. E. Scuseria, 
 M. A. Robb, J. R. Cheeseman, G. Scalmani, V. Barone, 
 G. A. Petersson, H. Nakatsuji, X. Li, M. Caricato, A. V. Marenich, 
 J. Bloino, B. G. Janesko, R. Gomperts, B. Mennucci, H. P. Hratchian, 
 J. V. Ortiz, A. F. Izmaylov, J. L. Sonnenberg, D. Williams-Young, 
 F. Ding, F. Lipparini, F. Egidi, J. Goings, B. Peng, A. Petrone, 
 T. Henderson, D. Ranasinghe, V. G. Zakrzewski, J. Gao, N. Rega, 
 G. Zheng, W. Liang, M. Hada, M. Ehara, K. Toyota, R. Fukuda, 
 J. Hasegawa, M. Ishida, T. Nakajima, Y. Honda, O. Kitao, H. Nakai, 
 T. Vreven, K. Throssell, J. A. Montgomery, Jr., J. E. Peralta, 
 F. Ogliaro, M. J. Bearpark, J. J. Heyd, E. N. Brothers, K. N. Kudin, 
 V. N. Staroverov, T. A. Keith, R. Kobayashi, J. Normand, 
 K. Raghavachari, A. P. Rendell, J. C. Burant, S. S. Iyengar, 
 J. Tomasi, M. Cossi, J. M. Millam, M. Klene, C. Adamo, R. Cammi, 
 J. W. Ochterski, R. L. Martin, K. Morokuma, O. Farkas, 
 J. B. Foresman, and D. J. Fox, Gaussian, Inc., Wallingford CT, 2016.
 
 ******************************************
 Gaussian 16:  ES64L-G16RevB.01 20-Dec-2017
                12-Aug-2020 
 ******************************************
 %NProcShared=16
 Will use up to   16 processors via shared memory.
 ------------------------------------------------------------------
 #n B3LYP/Gen Pseudo=cards EmpiricalDispersion=GD3 Opt=modredundant
 ------------------------------------------------------------------
 1/18=120,19=15,26=3,38=1/1,3;
 2/9=110,12=2,17=6,18=5,40=1/2;
 3/5=7,11=2,16=1,17=8,25=1,30=1,71=1,74=-5,124=31/1,2,3;
 4//1;
 5/5=2,38=5/2;
 6/7=2,8=2,9=2,10=2,28=1/1;
 7//1,2,3,16;
 1/18=20,19=15,26=3/3(2);
 2/9=110/2;
 99//99;
 2/9=110/2;
 3/5=7,6=1,11=2,16=1,17=8,25=1,30=1,71=1,74=-5,82=7,124=31/1,2,3;
 4/5=5,16=3,69=1/1;
 5/5=2,38=5/2;
 7//1,2,3,16;
 1/18=20,19=15,26=3/3(-5);
 2/9=110/2;
 6/7=2,8=2,9=2,10=2,19=2,28=1/1;
 99/9=1/99;
 -----
 Title
 -----
 Symbolic Z-matrix:
 Charge =  0 Multiplicity = 1
 Zr                    0.65779  -0.12506  -0.07164 
 O                    -0.22285  -0.90624   1.4773 
 O                     0.10302   1.74748  -0.12299 
 O                    -0.2683   -0.97885  -1.59705 
 O                     2.59206  -0.4363   -0.08284 
 Si                   -1.83119  -1.33244  -1.9536 
 Si                   -1.1155    2.84172  -0.08279 
 Si                   -1.72376  -1.15291   2.11517 
 Si                    4.22745  -0.47525  -0.03851 
 O                     4.9356   -0.40253  -1.52808 
 O                     4.74908  -1.90315   0.62178 
 O                     4.66521   0.86764   0.81416 
 O                    -2.31924  -2.624     1.69627 
 O                    -2.72422   0.06508   1.55086 
 O                    -1.59734  -1.01957   3.74439 
 O                    -2.00144  -1.55965  -3.57782 
 O                    -2.82509  -0.18676  -1.30145 
 O                    -2.34448  -2.71439  -1.18277 
 O                    -2.04046   2.43957  -1.43023 
 O                    -0.63565   4.40049  -0.29987 
 O                    -1.96551   2.76086   1.31383 
 H                     5.59317   1.12435   0.77574 
 H                     5.16292  -1.25002  -1.92709 
 H                     4.2936   -2.21899   1.4101 
 H                    -2.40577  -2.80951   0.74392 
 H                    -2.38137  -1.22423   4.26535 
 H                    -3.06034  -0.08306   0.64589 
 H                    -0.52731   4.92728   0.50015 
 H                    -2.26909   1.86932   1.58533 
 H                    -2.64854   3.12676  -1.73014 
 H                    -2.30452  -3.52952  -1.69562 
 H                    -1.27114  -1.26305  -4.13223 
 H                    -2.61026   0.75461  -1.48993 
 
 The following ModRedundant input section has been read:
 A       1       5       9 F                                                   
 D       1       5       9      12 F                                           
 D       3       1       5       9 F                                           
 

 GradGradGradGradGradGradGradGradGradGradGradGradGradGradGradGradGradGrad
 Berny optimization.
 Initialization pass.
                           ----------------------------
                           !    Initial Parameters    !
                           ! (Angstroms and Degrees)  !
 --------------------------                            --------------------------
 ! Name  Definition              Value          Derivative Info.                !
 --------------------------------------------------------------------------------
 ! R1    R(1,2)                  1.9455         estimate D2E/DX2                !
 ! R2    R(1,3)                  1.9537         estimate D2E/DX2                !
 ! R3    R(1,4)                  1.9783         estimate D2E/DX2                !
 ! R4    R(1,5)                  1.9592         estimate D2E/DX2                !
 ! R5    R(2,8)                  1.6494         estimate D2E/DX2                !
 ! R6    R(3,7)                  1.6382         estimate D2E/DX2                !
 ! R7    R(4,6)                  1.6416         estimate D2E/DX2                !
 ! R8    R(5,9)                  1.6365         estimate D2E/DX2                !
 ! R9    R(6,16)                 1.6488         estimate D2E/DX2                !
 ! R10   R(6,17)                 1.651          estimate D2E/DX2                !
 ! R11   R(6,18)                 1.6636         estimate D2E/DX2                !
 ! R12   R(7,19)                 1.6831         estimate D2E/DX2                !
 ! R13   R(7,20)                 1.6453         estimate D2E/DX2                !
 ! R14   R(7,21)                 1.6369         estimate D2E/DX2                !
 ! R15   R(8,13)                 1.6414         estimate D2E/DX2                !
 ! R16   R(8,14)                 1.6742         estimate D2E/DX2                !
 ! R17   R(8,15)                 1.6395         estimate D2E/DX2                !
 ! R18   R(9,10)                 1.6509         estimate D2E/DX2                !
 ! R19   R(9,11)                 1.6574         estimate D2E/DX2                !
 ! R20   R(9,12)                 1.6499         estimate D2E/DX2                !
 ! R21   R(10,23)                0.9639         estimate D2E/DX2                !
 ! R22   R(11,24)                0.9637         estimate D2E/DX2                !
 ! R23   R(12,22)                0.9636         estimate D2E/DX2                !
 ! R24   R(13,25)                0.9741         estimate D2E/DX2                !
 ! R25   R(14,27)                0.9767         estimate D2E/DX2                !
 ! R26   R(15,26)                0.9633         estimate D2E/DX2                !
 ! R27   R(16,32)                0.9637         estimate D2E/DX2                !
 ! R28   R(17,33)                0.9838         estimate D2E/DX2                !
 ! R29   R(18,31)                0.9639         estimate D2E/DX2                !
 ! R30   R(19,30)                0.9654         estimate D2E/DX2                !
 ! R31   R(20,28)                0.964          estimate D2E/DX2                !
 ! R32   R(21,29)                0.9802         estimate D2E/DX2                !
 ! A1    A(2,1,3)              106.0959         estimate D2E/DX2                !
 ! A2    A(2,1,4)              103.2214         estimate D2E/DX2                !
 ! A3    A(2,1,5)              112.8091         estimate D2E/DX2                !
 ! A4    A(3,1,4)              105.0977         estimate D2E/DX2                !
 ! A5    A(3,1,5)              115.6243         estimate D2E/DX2                !
 ! A6    A(4,1,5)              112.9055         estimate D2E/DX2                !
 ! A7    A(1,2,8)              141.2479         estimate D2E/DX2                !
 ! A8    A(1,3,7)              148.2962         estimate D2E/DX2                !
 ! A9    A(1,4,6)              134.9216         estimate D2E/DX2                !
 ! A10   A(1,5,9)              172.0001         Frozen                          !
 ! A11   A(4,6,16)             109.9952         estimate D2E/DX2                !
 ! A12   A(4,6,17)             109.7479         estimate D2E/DX2                !
 ! A13   A(4,6,18)             111.8422         estimate D2E/DX2                !
 ! A14   A(16,6,17)            114.9972         estimate D2E/DX2                !
 ! A15   A(16,6,18)            108.0658         estimate D2E/DX2                !
 ! A16   A(17,6,18)            101.9869         estimate D2E/DX2                !
 ! A17   A(3,7,19)             103.269          estimate D2E/DX2                !
 ! A18   A(3,7,20)             114.3706         estimate D2E/DX2                !
 ! A19   A(3,7,21)             111.9733         estimate D2E/DX2                !
 ! A20   A(19,7,20)            106.3205         estimate D2E/DX2                !
 ! A21   A(19,7,21)            112.6973         estimate D2E/DX2                !
 ! A22   A(20,7,21)            108.1076         estimate D2E/DX2                !
 ! A23   A(2,8,13)             111.4365         estimate D2E/DX2                !
 ! A24   A(2,8,14)             107.7362         estimate D2E/DX2                !
 ! A25   A(2,8,15)             107.5759         estimate D2E/DX2                !
 ! A26   A(13,8,14)            110.4391         estimate D2E/DX2                !
 ! A27   A(13,8,15)            110.7606         estimate D2E/DX2                !
 ! A28   A(14,8,15)            108.7751         estimate D2E/DX2                !
 ! A29   A(5,9,10)             113.7765         estimate D2E/DX2                !
 ! A30   A(5,9,11)             110.2319         estimate D2E/DX2                !
 ! A31   A(5,9,12)             105.0574         estimate D2E/DX2                !
 ! A32   A(10,9,11)            105.2125         estimate D2E/DX2                !
 ! A33   A(10,9,12)            108.4596         estimate D2E/DX2                !
 ! A34   A(11,9,12)            114.3202         estimate D2E/DX2                !
 ! A35   A(9,10,23)            115.8438         estimate D2E/DX2                !
 ! A36   A(9,11,24)            117.3551         estimate D2E/DX2                !
 ! A37   A(9,12,22)            116.8568         estimate D2E/DX2                !
 ! A38   A(8,13,25)            116.8991         estimate D2E/DX2                !
 ! A39   A(8,14,27)            114.056          estimate D2E/DX2                !
 ! A40   A(8,15,26)            117.2166         estimate D2E/DX2                !
 ! A41   A(6,16,32)            116.4907         estimate D2E/DX2                !
 ! A42   A(6,17,33)            117.1859         estimate D2E/DX2                !
 ! A43   A(6,18,31)            116.3076         estimate D2E/DX2                !
 ! A44   A(7,19,30)            115.1373         estimate D2E/DX2                !
 ! A45   A(7,20,28)            116.1676         estimate D2E/DX2                !
 ! A46   A(7,21,29)            116.2372         estimate D2E/DX2                !
 ! D1    D(3,1,2,8)             57.7292         estimate D2E/DX2                !
 ! D2    D(4,1,2,8)            -52.5301         estimate D2E/DX2                !
 ! D3    D(5,1,2,8)           -174.7067         estimate D2E/DX2                !
 ! D4    D(2,1,3,7)            -50.098          estimate D2E/DX2                !
 ! D5    D(4,1,3,7)             58.8315         estimate D2E/DX2                !
 ! D6    D(5,1,3,7)           -175.9641         estimate D2E/DX2                !
 ! D7    D(2,1,4,6)             42.7683         estimate D2E/DX2                !
 ! D8    D(3,1,4,6)            -68.2312         estimate D2E/DX2                !
 ! D9    D(5,1,4,6)            164.8802         estimate D2E/DX2                !
 ! D10   D(3,1,5,9)             15.4386         Frozen                          !
 ! D11   D(2,1,9,10)           156.382          estimate D2E/DX2                !
 ! D12   D(2,1,9,11)            35.456          estimate D2E/DX2                !
 ! D13   D(2,1,9,12)           -87.382          estimate D2E/DX2                !
 ! D14   D(3,1,9,10)           -83.1854         estimate D2E/DX2                !
 ! D15   D(3,1,9,11)           155.8885         estimate D2E/DX2                !
 ! D16   D(3,1,9,12)            33.0505         estimate D2E/DX2                !
 ! D17   D(4,1,9,10)            37.1814         estimate D2E/DX2                !
 ! D18   D(4,1,9,11)           -83.7447         estimate D2E/DX2                !
 ! D19   D(4,1,9,12)           153.4173         estimate D2E/DX2                !
 ! D20   D(1,2,8,13)            93.5308         estimate D2E/DX2                !
 ! D21   D(1,2,8,14)           -27.7655         estimate D2E/DX2                !
 ! D22   D(1,2,8,15)          -144.8802         estimate D2E/DX2                !
 ! D23   D(1,3,7,19)           -61.1012         estimate D2E/DX2                !
 ! D24   D(1,3,7,20)          -176.1751         estimate D2E/DX2                !
 ! D25   D(1,3,7,21)            60.409          estimate D2E/DX2                !
 ! D26   D(1,4,6,16)           160.167          estimate D2E/DX2                !
 ! D27   D(1,4,6,17)            32.6925         estimate D2E/DX2                !
 ! D28   D(1,4,6,18)           -79.742          estimate D2E/DX2                !
 ! D29   D(1,5,9,12)            18.3492         Frozen                          !
 ! D30   D(4,6,16,32)          -14.1998         estimate D2E/DX2                !
 ! D31   D(17,6,16,32)         110.2979         estimate D2E/DX2                !
 ! D32   D(18,6,16,32)        -136.5531         estimate D2E/DX2                !
 ! D33   D(4,6,17,33)           51.0095         estimate D2E/DX2                !
 ! D34   D(16,6,17,33)         -73.6179         estimate D2E/DX2                !
 ! D35   D(18,6,17,33)         169.7166         estimate D2E/DX2                !
 ! D36   D(4,6,18,31)          -96.4424         estimate D2E/DX2                !
 ! D37   D(16,6,18,31)          24.7715         estimate D2E/DX2                !
 ! D38   D(17,6,18,31)         146.349          estimate D2E/DX2                !
 ! D39   D(3,7,19,30)         -162.1837         estimate D2E/DX2                !
 ! D40   D(20,7,19,30)         -41.4662         estimate D2E/DX2                !
 ! D41   D(21,7,19,30)          76.796          estimate D2E/DX2                !
 ! D42   D(3,7,20,28)          -98.427          estimate D2E/DX2                !
 ! D43   D(19,7,20,28)         148.2947         estimate D2E/DX2                !
 ! D44   D(21,7,20,28)          27.0455         estimate D2E/DX2                !
 ! D45   D(3,7,21,29)          -49.8995         estimate D2E/DX2                !
 ! D46   D(19,7,21,29)          66.0156         estimate D2E/DX2                !
 ! D47   D(20,7,21,29)        -176.7753         estimate D2E/DX2                !
 ! D48   D(2,8,13,25)          -58.468          estimate D2E/DX2                !
 ! D49   D(14,8,13,25)          61.2404         estimate D2E/DX2                !
 ! D50   D(15,8,13,25)        -178.1888         estimate D2E/DX2                !
 ! D51   D(2,8,14,27)           80.2918         estimate D2E/DX2                !
 ! D52   D(13,8,14,27)         -41.6247         estimate D2E/DX2                !
 ! D53   D(15,8,14,27)        -163.3756         estimate D2E/DX2                !
 ! D54   D(2,8,15,26)         -174.1994         estimate D2E/DX2                !
 ! D55   D(13,8,15,26)         -52.1897         estimate D2E/DX2                !
 ! D56   D(14,8,15,26)          69.3652         estimate D2E/DX2                !
 ! D57   D(5,9,10,23)          -94.8506         estimate D2E/DX2                !
 ! D58   D(11,9,10,23)          25.9078         estimate D2E/DX2                !
 ! D59   D(12,9,10,23)         148.64           estimate D2E/DX2                !
 ! D60   D(5,9,11,24)          -43.8209         estimate D2E/DX2                !
 ! D61   D(10,9,11,24)        -166.8801         estimate D2E/DX2                !
 ! D62   D(12,9,11,24)          74.2394         estimate D2E/DX2                !
 ! D63   D(5,9,12,22)         -166.4774         estimate D2E/DX2                !
 ! D64   D(10,9,12,22)         -44.475          estimate D2E/DX2                !
 ! D65   D(11,9,12,22)          72.5537         estimate D2E/DX2                !
 --------------------------------------------------------------------------------
 Trust Radius=3.00D-01 FncErr=1.00D-07 GrdErr=1.00D-06 EigMax=2.50D+02 EigMin=1.00D-04
 Number of steps in this run=    153 maximum allowed number of steps=    198.
 GradGradGradGradGradGradGradGradGradGradGradGradGradGradGradGradGradGrad

                          Input orientation:                          
 ---------------------------------------------------------------------
 Center     Atomic      Atomic             Coordinates (Angstroms)
 Number     Number       Type             X           Y           Z
 ---------------------------------------------------------------------
      1         40           0        0.657790   -0.125060   -0.071640
      2          8           0       -0.222850   -0.906240    1.477300
      3          8           0        0.103020    1.747480   -0.122990
      4          8           0       -0.268300   -0.978850   -1.597050
      5          8           0        2.592060   -0.436300   -0.082840
      6         14           0       -1.831190   -1.332440   -1.953600
      7         14           0       -1.115500    2.841720   -0.082790
      8         14           0       -1.723760   -1.152910    2.115170
      9         14           0        4.227450   -0.475250   -0.038510
     10          8           0        4.935600   -0.402530   -1.528080
     11          8           0        4.749080   -1.903150    0.621780
     12          8           0        4.665210    0.867640    0.814160
     13          8           0       -2.319240   -2.624000    1.696270
     14          8           0       -2.724220    0.065080    1.550860
     15          8           0       -1.597340   -1.019570    3.744390
     16          8           0       -2.001440   -1.559650   -3.577820
     17          8           0       -2.825090   -0.186760   -1.301450
     18          8           0       -2.344480   -2.714390   -1.182770
     19          8           0       -2.040460    2.439570   -1.430230
     20          8           0       -0.635650    4.400490   -0.299870
     21          8           0       -1.965510    2.760860    1.313830
     22          1           0        5.593170    1.124350    0.775740
     23          1           0        5.162920   -1.250020   -1.927090
     24          1           0        4.293600   -2.218990    1.410100
     25          1           0       -2.405770   -2.809510    0.743920
     26          1           0       -2.381370   -1.224230    4.265350
     27          1           0       -3.060340   -0.083060    0.645890
     28          1           0       -0.527310    4.927280    0.500150
     29          1           0       -2.269090    1.869320    1.585330
     30          1           0       -2.648540    3.126760   -1.730140
     31          1           0       -2.304520   -3.529520   -1.695620
     32          1           0       -1.271140   -1.263050   -4.132230
     33          1           0       -2.610260    0.754610   -1.489930
 ---------------------------------------------------------------------
                    Distance matrix (angstroms):
                    1          2          3          4          5
     1  Zr   0.000000
     2  O    1.945504   0.000000
     3  O    1.953666   3.115983   0.000000
     4  O    1.978251   3.075543   3.121475   0.000000
     5  O    1.959183   3.252476   3.311469   3.281593   0.000000
     6  Si   3.345827   3.813067   4.071635   1.641578   4.885484
     7  Si   3.456366   4.156670   1.638221   4.196128   4.948880
     8  Si   3.392697   1.649380   4.093745   3.991145   4.896027
     9  Si   3.586949   4.721081   4.685999   4.784812   1.636454
    10  O    4.527457   5.991297   5.472719   5.236170   2.753550
    11  O    4.514542   5.142551   5.955473   5.563420   2.702013
    12  O    4.222500   5.242093   4.739826   5.793357   2.608222
    13  O    4.270002   2.719099   5.318542   4.214123   5.663226
    14  O    3.755882   2.684348   3.691278   4.126823   5.584191
    15  O    4.521929   2.653632   5.050190   5.504452   5.704294
    16  O    4.628483   5.398571   5.225104   2.695283   5.880225
    17  O    3.694143   3.874372   3.701875   2.692947   5.558129
    18  O    4.117386   3.853141   5.198238   2.737563   5.546978
    19  O    3.962783   4.790812   2.604299   3.854086   5.616612
    20  O    4.712290   5.611606   2.759598   5.545712   5.818913
    21  O    4.138812   4.063399   2.714813   5.033803   5.739683
    22  H    5.161110   6.200127   5.598013   6.664114   3.489907
    23  H    5.000443   6.380797   6.151615   5.447991   3.266913
    24  H    4.449630   4.703844   5.970277   5.602841   2.881335
    25  H    4.154132   2.987545   5.273682   3.660633   5.594101
    26  H    5.408711   3.540275   5.853271   6.236426   6.653014
    27  H    3.786965   3.069237   3.734823   3.691708   5.710118
    28  H    5.220876   5.922624   3.301022   6.272775   6.232041
    29  H    3.910208   3.450000   2.925766   4.716225   5.632890
    30  H    4.925117   5.695325   3.472237   4.747556   6.547739
    31  H    4.796138   4.613282   6.009671   3.265245   6.012118
    32  H    4.637260   5.717784   5.198616   2.741094   5.657331
    33  H    3.669539   4.154829   3.196280   2.915671   5.519266
                    6          7          8          9         10
     6  Si   0.000000
     7  Si   4.629876   0.000000
     8  Si   4.074145   4.599791   0.000000
     9  Si   6.411666   6.288988   6.365097   0.000000
    10  O    6.843628   7.016397   7.627805   1.650934   0.000000
    11  O    7.089305   7.576510   6.685113   1.657401   2.628412
    12  O    7.396219   6.173987   6.825993   1.649859   2.678158
    13  O    3.902290   5.872660   1.641396   7.105332   8.244032
    14  O    3.877087   3.600906   1.674176   7.151487   8.268698
    15  O    5.711363   5.457933   1.639549   6.966692   8.417778
    16  O    1.648848   5.689656   5.714252   7.245806   7.325496
    17  O    1.650975   3.685040   3.717481   7.170534   7.766996
    18  O    1.663560   5.795749   3.701340   7.036572   7.646143
    19  O    3.813892   1.683113   5.057279   7.051224   7.533427
    20  O    6.085279   1.645340   6.152776   6.891364   7.457636
    21  O    5.239203   1.636949   4.002272   7.117161   8.106097
    22  H    8.282888   6.978015   7.779296   2.255419   2.841012
    23  H    6.994646   7.717664   7.985966   2.245464   0.963910
    24  H    7.043685   7.556313   6.151607   2.267923   3.513487
    25  H    3.128657   5.855309   2.256056   7.075350   8.053027
    26  H    6.244177   6.086107   2.249625   7.922164   9.368942
    27  H    3.135141   3.587160   2.256060   7.330355   8.292362
    28  H    6.848729   2.243958   6.403787   7.217010   7.897087
    29  H    4.792395   2.249212   3.116406   7.094991   8.170813
    30  H    4.538993   2.268308   5.827281   7.944516   8.367550
    31  H    2.262246   6.678899   4.528540   7.398730   7.888312
    32  H    2.250533   5.768130   6.264743   6.900266   6.785699
    33  H    2.275460   2.927521   4.173878   7.097426   7.634162
                   11         12         13         14         15
    11  O    0.000000
    12  O    2.778727   0.000000
    13  O    7.185771   7.858257   0.000000
    14  O    7.783786   7.469304   2.723289   0.000000
    15  O    7.128005   7.167101   2.700024   2.694049   0.000000
    16  O    7.957647   8.344186   5.389792   5.428215   7.353213
    17  O    8.000804   7.854436   3.896453   2.865182   5.259415
    18  O    7.364313   8.121233   2.880569   3.916936   5.263795
    19  O    8.316719   7.243912   5.957555   3.872032   6.240088
    20  O    8.341501   6.466932   7.494165   5.155881   6.830662
    21  O    8.204733   6.913783   5.410000   2.810526   4.509415
    22  H    3.146736   0.963580   8.803621   8.420323   8.069245
    23  H    2.663565   3.499521   8.426107   8.719668   8.827225
    24  H    0.963673   3.165521   6.631409   7.381503   6.449085
    25  H    7.213064   7.970265   0.974101   3.002637   3.586121
    26  H    8.036159   8.120402   2.926327   3.024619   0.963321
    27  H    8.018750   7.785645   2.847614   0.976674   3.552200
    28  H    8.631909   6.598602   7.852614   5.437959   6.858213
    29  H    8.025875   7.048587   4.494969   1.861079   3.668579
    30  H    9.249665   8.066475   6.702236   4.488271   6.947485
    31  H    7.600572   8.614589   3.510712   4.861783   6.032716
    32  H    7.697622   8.015414   6.076357   6.014390   7.887131
    33  H    8.104498   7.632435   4.653125   3.120071   5.618881
                   16         17         18         19         20
    16  O    0.000000
    17  O    2.783000   0.000000
    18  O    2.680926   2.575652   0.000000
    19  O    4.539540   2.744055   5.168846   0.000000
    20  O    6.937839   5.180702   7.370287   2.663909   0.000000
    21  O    6.526587   4.033241   6.029510   2.763822   2.657243
    22  H    9.156170   8.769312   9.032053   8.054093   7.119567
    23  H    7.358589   8.082713   7.685014   8.108553   8.258300
    24  H    8.058635   7.884048   7.143704   8.360022   8.428465
    25  H    4.516976   3.352340   1.930010   5.693261   7.497128
    26  H    7.859527   5.680008   5.648358   6.780802   7.451594
    27  H    4.597968   1.964238   3.283344   3.422586   5.184188
    28  H    7.802766   5.888884   8.033022   3.493521   0.963990
    29  H    6.203837   3.587492   5.355227   3.077509   3.553720
    30  H    5.078888   3.345797   5.874615   0.965369   2.778450
    31  H    2.741336   3.405937   0.963872   5.980819   8.223035
    32  H    0.963680   3.403891   3.458000   4.647801   6.867788
    33  H    3.175806   0.983796   3.492699   1.779698   4.313672
                   21         22         23         24         25
    21  O    0.000000
    22  H    7.752506   0.000000
    23  H    8.798024   3.623263   0.000000
    24  H    7.999039   3.642694   3.582102   0.000000
    25  H    5.616729   8.913995   8.176269   6.758259   0.000000
    26  H    4.976480   9.015902   9.760291   7.327839   3.861888
    27  H    3.119724   8.738303   8.695058   7.695885   2.805637
    28  H    2.724678   7.210999   8.742382   8.668238   7.965297
    29  H    0.980162   7.938863   8.792164   7.733944   4.755849
    30  H    3.141045   8.843917   8.956221   9.307602   6.435776
    31  H    6.981447   9.494189   7.811041   7.409330   2.545589
    32  H    6.806877   8.769641   6.801466   7.911863   5.239825
    33  H    3.507394   8.518582   8.039402   8.057031   4.211277
                   26         27         28         29         30
    26  H    0.000000
    27  H    3.855355   0.000000
    28  H    7.446835   5.616136   0.000000
    29  H    4.094529   2.306602   3.682734   0.000000
    30  H    7.412718   4.014728   3.565906   3.566157   0.000000
    31  H    6.391669   4.234622   8.916129   6.317702   6.665254
    32  H    8.470742   5.236797   7.767394   6.595312   5.190154
    33  H    6.090275   2.337946   5.070530   3.288799   2.384588
                   31         32         33
    31  H    0.000000
    32  H    3.484513   0.000000
    33  H    4.299948   3.584124   0.000000
 Stoichiometry    H12O16Si4Zr
 Framework group  C1[X(H12O16Si4Zr)]
 Deg. of freedom    93
 Full point group                 C1      NOp   1
 Largest Abelian subgroup         C1      NOp   1
 Largest concise Abelian subgroup C1      NOp   1
                         Standard orientation:                         
 ---------------------------------------------------------------------
 Center     Atomic      Atomic             Coordinates (Angstroms)
 Number     Number       Type             X           Y           Z
 ---------------------------------------------------------------------
      1         40           0        0.660131   -0.037660   -0.052367
      2          8           0       -0.188411   -0.866858    1.489512
      3          8           0       -0.011337    1.795768   -0.119344
      4          8           0       -0.191135   -0.954463   -1.584782
      5          8           0        2.610209   -0.225821   -0.038689
      6         14           0       -1.723988   -1.407740   -1.958520
      7         14           0       -1.297058    2.810795   -0.099099
      8         14           0       -1.678482   -1.205538    2.110350
      9         14           0        4.244112   -0.160947    0.025603
     10          8           0        4.964617   -0.049469   -1.455622
     11          8           0        4.846839   -1.550301    0.698949
     12          8           0        4.585439    1.210361    0.877098
     13          8           0       -2.174455   -2.713046    1.691292
     14          8           0       -2.746948   -0.055612    1.528184
     15          8           0       -1.580919   -1.057962    3.740326
     16          8           0       -1.859412   -1.651753   -3.583580
     17          8           0       -2.796383   -0.324711   -1.323905
     18          8           0       -2.158303   -2.816337   -1.187380
     19          8           0       -2.177976    2.345503   -1.455697
     20          8           0       -0.914153    4.395946   -0.317783
     21          8           0       -2.157462    2.681838    1.287507
     22          1           0        5.495700    1.525168    0.848682
     23          1           0        5.250026   -0.882446   -1.847811
     24          1           0        4.402539   -1.891205    1.483199
     25          1           0       -2.237284   -2.907461    0.738859
     26          1           0       -2.356814   -1.309783    4.252734
     27          1           0       -3.061798   -0.228350    0.619931
     28          1           0       -0.849270    4.931727    0.480970
     29          1           0       -2.407357    1.773952    1.559560
     30          1           0       -2.824563    2.991602   -1.766210
     31          1           0       -2.060503   -3.629339   -1.695819
     32          1           0       -1.142539   -1.311713   -4.130523
     33          1           0       -2.639234    0.627615   -1.514256
 ---------------------------------------------------------------------
 Rotational constants (GHZ):           0.2115380           0.1333704           0.1233739
 General basis read from cards:  (5D, 7F)
 ======================================================================================================
                                       Pseudopotential Parameters
 ======================================================================================================
  Center     Atomic      Valence      Angular      Power
  Number     Number     Electrons     Momentum     of R      Exponent        Coefficient   SO-Coeffient
 ======================================================================================================
    1         40           12
                                      G and up 
                                                     2        1.0000000        0.00000000    0.00000000
                                      S - G
                                                     2        8.6365280      150.24299400    0.00000000
                                                     2        3.7176390       18.78003600    0.00000000
                                      P - G
                                                     2        7.6267280       33.19279100    0.00000000
                                                     2        7.4532070       66.38903900    0.00000000
                                                     2        3.3583890        4.62072600    0.00000000
                                                     2        3.2297380        9.26027000    0.00000000
                                      D - G
                                                     2        5.9380860       13.99338300    0.00000000
                                                     2        5.8255440       20.99588200    0.00000000
                                                     2        2.2050190        2.28516600    0.00000000
                                                     2        2.2062920        3.44126000    0.00000000
                                      F - G
                                                     2        4.8002150       -5.23932000    0.00000000
                                                     2        4.7989920       -6.98742400    0.00000000
    2          8
                                   No pseudopotential on this center.
    3          8
                                   No pseudopotential on this center.
    4          8
                                   No pseudopotential on this center.
    5          8
                                   No pseudopotential on this center.
    6         14
                                   No pseudopotential on this center.
    7         14
                                   No pseudopotential on this center.
    8         14
                                   No pseudopotential on this center.
    9         14
                                   No pseudopotential on this center.
   10          8
                                   No pseudopotential on this center.
   11          8
                                   No pseudopotential on this center.
   12          8
                                   No pseudopotential on this center.
   13          8
                                   No pseudopotential on this center.
   14          8
                                   No pseudopotential on this center.
   15          8
                                   No pseudopotential on this center.
   16          8
                                   No pseudopotential on this center.
   17          8
                                   No pseudopotential on this center.
   18          8
                                   No pseudopotential on this center.
   19          8
                                   No pseudopotential on this center.
   20          8
                                   No pseudopotential on this center.
   21          8
                                   No pseudopotential on this center.
   22          1
                                   No pseudopotential on this center.
   23          1
                                   No pseudopotential on this center.
   24          1
                                   No pseudopotential on this center.
   25          1
                                   No pseudopotential on this center.
   26          1
                                   No pseudopotential on this center.
   27          1
                                   No pseudopotential on this center.
   28          1
                                   No pseudopotential on this center.
   29          1
                                   No pseudopotential on this center.
   30          1
                                   No pseudopotential on this center.
   31          1
                                   No pseudopotential on this center.
   32          1
                                   No pseudopotential on this center.
   33          1
                                   No pseudopotential on this center.
 ======================================================================================================
 There are   570 symmetry adapted cartesian basis functions of A   symmetry.
 There are   524 symmetry adapted basis functions of A   symmetry.
   524 basis functions,  1074 primitive gaussians,   570 cartesian basis functions
   104 alpha electrons      104 beta electrons
       nuclear repulsion energy      2829.8717022847 Hartrees.
 NAtoms=   33 NActive=   33 NUniq=   33 SFac= 1.00D+00 NAtFMM=   60 NAOKFM=F Big=F
 Integral buffers will be    131072 words long.
 Raffenetti 2 integral format.
 Two-electron integral symmetry is turned on.
 Nuclear repulsion after empirical dispersion term =     2829.8309405569 Hartrees.
 One-electron integrals computed using PRISM.
 PrsmSu:  requested number of processors reduced to:   4 ShMem   1 Linda.
   1 Symmetry operations used in ECPInt.
 ECPInt:  NShTT=   13203 NPrTT=   78401 LenC2=   11520 LenP2D=   44608.
 LDataN:  DoStor=T MaxTD1= 8 Len=  415
 Number of processors reduced to  13 by ecpmxn.
 NBasis=   524 RedAO= T EigKep=  3.22D-05  NBF=   524
 NBsUse=   524 1.00D-06 EigRej= -1.00D+00 NBFU=   524
 Defaulting to unpruned grid for atomic number  40.
 ExpMin= 1.01D-02 ExpMax= 1.61D+04 ExpMxC= 2.43D+03 IAcc=3 IRadAn=         5 AccDes= 0.00D+00
 Harris functional with IExCor=  402 and IRadAn=       5 diagonalized for initial guess.
 HarFok:  IExCor=  402 AccDes= 0.00D+00 IRadAn=         5 IDoV= 1 UseB2=F ITyADJ=14
 ICtDFT=  3500011 ScaDFX=  1.000000  1.000000  1.000000  1.000000
 Defaulting to unpruned grid for atomic number  40.
 FoFCou: FMM=F IPFlag=           0 FMFlag=      100000 FMFlg1=           0
         NFxFlg=           0 DoJE=T BraDBF=F KetDBF=T FulRan=T
         wScrn=  0.000000 ICntrl=       500 IOpCl=  0 I1Cent=   200000004 NGrid=           0
         NMat0=    1 NMatS0=      1 NMatT0=    0 NMatD0=    1 NMtDS0=    0 NMtDT0=    0
 Petite list used in FoFCou.
 Requested convergence on RMS density matrix=1.00D-08 within 128 cycles.
 Requested convergence on MAX density matrix=1.00D-06.
 Requested convergence on             energy=1.00D-06.
 No special actions if energy rises.
 Defaulting to unpruned grid for atomic number  40.
 Defaulting to unpruned grid for atomic number  40.
 Defaulting to unpruned grid for atomic number  40.
 Defaulting to unpruned grid for atomic number  40.
 Defaulting to unpruned grid for atomic number  40.
 Defaulting to unpruned grid for atomic number  40.
 Defaulting to unpruned grid for atomic number  40.
 Defaulting to unpruned grid for atomic number  40.
 Defaulting to unpruned grid for atomic number  40.
 Defaulting to unpruned grid for atomic number  40.
 Defaulting to unpruned grid for atomic number  40.
 Defaulting to unpruned grid for atomic number  40.
 Defaulting to unpruned grid for atomic number  40.
 Defaulting to unpruned grid for atomic number  40.
 Defaulting to unpruned grid for atomic number  40.
 Defaulting to unpruned grid for atomic number  40.
 SCF Done:  E(RB3LYP) =  -2416.94679536     A.U. after   14 cycles
            NFock= 14  Conv=0.28D-08     -V/T= 2.0185

 **********************************************************************

            Population analysis using the SCF Density.

 **********************************************************************

 Orbital symmetries:
       Occupied  (A) (A) (A) (A) (A) (A) (A) (A) (A) (A) (A) (A)
                 (A) (A) (A) (A) (A) (A) (A) (A) (A) (A) (A) (A)
                 (A) (A) (A) (A) (A) (A) (A) (A) (A) (A) (A) (A)
                 (A) (A) (A) (A) (A) (A) (A) (A) (A) (A) (A) (A)
                 (A) (A) (A) (A) (A) (A) (A) (A) (A) (A) (A) (A)
                 (A) (A) (A) (A) (A) (A) (A) (A) (A) (A) (A) (A)
                 (A) (A) (A) (A) (A) (A) (A) (A) (A) (A) (A) (A)
                 (A) (A) (A) (A) (A) (A) (A) (A) (A) (A) (A) (A)
                 (A) (A) (A) (A) (A) (A) (A) (A)
       Virtual   (A) (A) (A) (A) (A) (A) (A) (A) (A) (A) (A) (A)
                 (A) (A) (A) (A) (A) (A) (A) (A) (A) (A) (A) (A)
                 (A) (A) (A) (A) (A) (A) (A) (A) (A) (A) (A) (A)
                 (A) (A) (A) (A) (A) (A) (A) (A) (A) (A) (A) (A)
                 (A) (A) (A) (A) (A) (A) (A) (A) (A) (A) (A) (A)
                 (A) (A) (A) (A) (A) (A) (A) (A) (A) (A) (A) (A)
                 (A) (A) (A) (A) (A) (A) (A) (A) (A) (A) (A) (A)
                 (A) (A) (A) (A) (A) (A) (A) (A) (A) (A) (A) (A)
                 (A) (A) (A) (A) (A) (A) (A) (A) (A) (A) (A) (A)
                 (A) (A) (A) (A) (A) (A) (A) (A) (A) (A) (A) (A)
                 (A) (A) (A) (A) (A) (A) (A) (A) (A) (A) (A) (A)
                 (A) (A) (A) (A) (A) (A) (A) (A) (A) (A) (A) (A)
                 (A) (A) (A) (A) (A) (A) (A) (A) (A) (A) (A) (A)
                 (A) (A) (A) (A) (A) (A) (A) (A) (A) (A) (A) (A)
                 (A) (A) (A) (A) (A) (A) (A) (A) (A) (A) (A) (A)
                 (A) (A) (A) (A) (A) (A) (A) (A) (A) (A) (A) (A)
                 (A) (A) (A) (A) (A) (A) (A) (A) (A) (A) (A) (A)
                 (A) (A) (A) (A) (A) (A) (A) (A) (A) (A) (A) (A)
                 (A) (A) (A) (A) (A) (A) (A) (A) (A) (A) (A) (A)
                 (A) (A) (A) (A) (A) (A) (A) (A) (A) (A) (A) (A)
                 (A) (A) (A) (A) (A) (A) (A) (A) (A) (A) (A) (A)
                 (A) (A) (A) (A) (A) (A) (A) (A) (A) (A) (A) (A)
                 (A) (A) (A) (A) (A) (A) (A) (A) (A) (A) (A) (A)
                 (A) (A) (A) (A) (A) (A) (A) (A) (A) (A) (A) (A)
                 (A) (A) (A) (A) (A) (A) (A) (A) (A) (A) (A) (A)
                 (A) (A) (A) (A) (A) (A) (A) (A) (A) (A) (A) (A)
                 (A) (A) (A) (A) (A) (A) (A) (A) (A) (A) (A) (A)
                 (A) (A) (A) (A) (A) (A) (A) (A) (A) (A) (A) (A)
                 (A) (A) (A) (A) (A) (A) (A) (A) (A) (A) (A) (A)
                 (A) (A) (A) (A) (A) (A) (A) (A) (A) (A) (A) (A)
                 (A) (A) (A) (A) (A) (A) (A) (A) (A) (A) (A) (A)
                 (A) (A) (A) (A) (A) (A) (A) (A) (A) (A) (A) (A)
                 (A) (A) (A) (A) (A) (A) (A) (A) (A) (A) (A) (A)
                 (A) (A) (A) (A) (A) (A) (A) (A) (A) (A) (A) (A)
                 (A) (A) (A) (A) (A) (A) (A) (A) (A) (A) (A) (A)
 The electronic state is 1-A.
 Alpha  occ. eigenvalues --  -66.22850 -66.21789 -66.21485 -66.21084 -19.18634
 Alpha  occ. eigenvalues --  -19.18383 -19.17828 -19.17066 -19.16764 -19.16551
 Alpha  occ. eigenvalues --  -19.16438 -19.16226 -19.16137 -19.16070 -19.16037
 Alpha  occ. eigenvalues --  -19.15536 -19.15327 -19.15316 -19.14930 -19.14753
 Alpha  occ. eigenvalues --   -5.36910  -5.35869  -5.35556  -5.35144  -3.72894
 Alpha  occ. eigenvalues --   -3.72868  -3.72821  -3.71861  -3.71814  -3.71779
 Alpha  occ. eigenvalues --   -3.71526  -3.71518  -3.71476  -3.71109  -3.71100
 Alpha  occ. eigenvalues --   -3.71075  -2.13423  -1.29657  -1.29577  -1.29424
 Alpha  occ. eigenvalues --   -1.05723  -1.04809  -1.04132  -1.03539  -1.02607
 Alpha  occ. eigenvalues --   -1.02206  -1.01508  -1.00886  -1.00744  -1.00703
 Alpha  occ. eigenvalues --   -0.99870  -0.99347  -0.97400  -0.96330  -0.95753
 Alpha  occ. eigenvalues --   -0.95437  -0.61033  -0.59190  -0.58971  -0.58533
 Alpha  occ. eigenvalues --   -0.55581  -0.54566  -0.53849  -0.53076  -0.52957
 Alpha  occ. eigenvalues --   -0.52534  -0.52189  -0.51748  -0.48827  -0.47627
 Alpha  occ. eigenvalues --   -0.47237  -0.46779  -0.43415  -0.42694  -0.41902
 Alpha  occ. eigenvalues --   -0.41424  -0.41096  -0.40592  -0.39864  -0.39375
 Alpha  occ. eigenvalues --   -0.38832  -0.38731  -0.38645  -0.38169  -0.38062
 Alpha  occ. eigenvalues --   -0.37654  -0.37524  -0.37233  -0.36544  -0.36440
 Alpha  occ. eigenvalues --   -0.36071  -0.35652  -0.35494  -0.35120  -0.34877
 Alpha  occ. eigenvalues --   -0.34642  -0.34028  -0.33712  -0.33508  -0.33301
 Alpha  occ. eigenvalues --   -0.32831  -0.32159  -0.32083  -0.31347
 Alpha virt. eigenvalues --   -0.04370  -0.03216  -0.03076  -0.02746  -0.02130
 Alpha virt. eigenvalues --   -0.01213  -0.00603  -0.00195   0.00097   0.00316
 Alpha virt. eigenvalues --    0.00710   0.00929   0.00986   0.01915   0.02332
 Alpha virt. eigenvalues --    0.03261   0.03361   0.03839   0.03863   0.04057
 Alpha virt. eigenvalues --    0.04203   0.04637   0.05537   0.05807   0.06123
 Alpha virt. eigenvalues --    0.06433   0.07110   0.07499   0.07710   0.08652
 Alpha virt. eigenvalues --    0.08783   0.08986   0.09155   0.09592   0.09913
 Alpha virt. eigenvalues --    0.10344   0.10570   0.10927   0.11166   0.11651
 Alpha virt. eigenvalues --    0.11924   0.12514   0.13183   0.13361   0.13764
 Alpha virt. eigenvalues --    0.13906   0.14440   0.14806   0.15028   0.15280
 Alpha virt. eigenvalues --    0.15419   0.15737   0.16171   0.16746   0.16837
 Alpha virt. eigenvalues --    0.17349   0.17506   0.17684   0.18123   0.18493
 Alpha virt. eigenvalues --    0.18541   0.18626   0.19157   0.19673   0.19750
 Alpha virt. eigenvalues --    0.20151   0.20314   0.20596   0.20951   0.21188
 Alpha virt. eigenvalues --    0.21715   0.21937   0.22330   0.22350   0.22735
 Alpha virt. eigenvalues --    0.23100   0.23674   0.23997   0.24169   0.24413
 Alpha virt. eigenvalues --    0.24647   0.25074   0.25548   0.25585   0.26058
 Alpha virt. eigenvalues --    0.26536   0.26733   0.26950   0.27263   0.27503
 Alpha virt. eigenvalues --    0.27887   0.28233   0.28459   0.28766   0.29061
 Alpha virt. eigenvalues --    0.29392   0.29698   0.29941   0.30311   0.30435
 Alpha virt. eigenvalues --    0.30741   0.31121   0.31398   0.31574   0.32054
 Alpha virt. eigenvalues --    0.32511   0.32660   0.33179   0.33611   0.34003
 Alpha virt. eigenvalues --    0.34271   0.34563   0.35392   0.35660   0.36378
 Alpha virt. eigenvalues --    0.36788   0.37452   0.37709   0.38132   0.38939
 Alpha virt. eigenvalues --    0.39194   0.39915   0.40209   0.41116   0.41770
 Alpha virt. eigenvalues --    0.42709   0.43114   0.43786   0.44167   0.44579
 Alpha virt. eigenvalues --    0.45240   0.45782   0.46102   0.46817   0.47482
 Alpha virt. eigenvalues --    0.47660   0.48362   0.48719   0.49210   0.49502
 Alpha virt. eigenvalues --    0.49944   0.50955   0.51152   0.51263   0.52640
 Alpha virt. eigenvalues --    0.53852   0.54525   0.55199   0.56667   0.57280
 Alpha virt. eigenvalues --    0.58004   0.58774   0.59390   0.59583   0.60097
 Alpha virt. eigenvalues --    0.61434   0.61814   0.62134   0.63675   0.65830
 Alpha virt. eigenvalues --    0.66995   0.67680   0.68345   0.69121   0.69339
 Alpha virt. eigenvalues --    0.70158   0.71013   0.72913   0.74366   0.75330
 Alpha virt. eigenvalues --    0.75524   0.77244   0.78402   0.78824   0.80747
 Alpha virt. eigenvalues --    0.80893   0.81532   0.82798   0.84083   0.85439
 Alpha virt. eigenvalues --    0.86606   0.88038   0.89642   0.90216   0.91294
 Alpha virt. eigenvalues --    0.93861   0.95647   0.96403   0.96815   0.97430
 Alpha virt. eigenvalues --    0.98193   0.98805   0.98994   0.99720   1.00304
 Alpha virt. eigenvalues --    1.00975   1.01434   1.02259   1.02957   1.04126
 Alpha virt. eigenvalues --    1.04232   1.05522   1.06331   1.06733   1.07848
 Alpha virt. eigenvalues --    1.09692   1.12508   1.15250   1.16134   1.16383
 Alpha virt. eigenvalues --    1.18592   1.19009   1.19989   1.20522   1.20766
 Alpha virt. eigenvalues --    1.21669   1.21681   1.22260   1.22698   1.22874
 Alpha virt. eigenvalues --    1.23386   1.23937   1.24159   1.25070   1.25762
 Alpha virt. eigenvalues --    1.26032   1.27129   1.27405   1.28008   1.28154
 Alpha virt. eigenvalues --    1.28918   1.29675   1.30121   1.30786   1.31289
 Alpha virt. eigenvalues --    1.32166   1.32736   1.32908   1.33569   1.34690
 Alpha virt. eigenvalues --    1.35192   1.35952   1.36646   1.36800   1.37623
 Alpha virt. eigenvalues --    1.39211   1.39759   1.40161   1.41137   1.41503
 Alpha virt. eigenvalues --    1.42619   1.43150   1.44060   1.45269   1.46485
 Alpha virt. eigenvalues --    1.46853   1.48820   1.50348   1.51852   1.53308
 Alpha virt. eigenvalues --    1.56667   1.57295   1.57605   1.59292   1.59412
 Alpha virt. eigenvalues --    1.60163   1.60977   1.61871   1.62649   1.63164
 Alpha virt. eigenvalues --    1.63233   1.63809   1.64966   1.65278   1.66680
 Alpha virt. eigenvalues --    1.67606   1.68057   1.69216   1.69828   1.70037
 Alpha virt. eigenvalues --    1.70825   1.71430   1.71709   1.72319   1.73327
 Alpha virt. eigenvalues --    1.74238   1.75007   1.75334   1.75763   1.76333
 Alpha virt. eigenvalues --    1.77108   1.77288   1.78717   1.78793   1.79741
 Alpha virt. eigenvalues --    1.80559   1.81603   1.82136   1.82612   1.82760
 Alpha virt. eigenvalues --    1.83795   1.84851   1.85153   1.85972   1.86768
 Alpha virt. eigenvalues --    1.87289   1.88125   1.88717   1.89497   1.90408
 Alpha virt. eigenvalues --    1.91245   1.91471   1.92382   1.92766   1.93490
 Alpha virt. eigenvalues --    1.94242   1.96265   1.96428   1.97256   1.97689
 Alpha virt. eigenvalues --    1.98461   2.00334   2.01069   2.02977   2.03612
 Alpha virt. eigenvalues --    2.05757   2.06538   2.07321   2.09733   2.10552
 Alpha virt. eigenvalues --    2.11403   2.12945   2.14174   2.15645   2.16234
 Alpha virt. eigenvalues --    2.17783   2.18377   2.18890   2.20308   2.28582
 Alpha virt. eigenvalues --    2.32129   2.33597   2.35330   2.39474   2.40454
 Alpha virt. eigenvalues --    2.41160   2.41206   2.41718   2.42802   2.43648
 Alpha virt. eigenvalues --    2.43990   2.45996   2.46715   2.47400   2.49000
 Alpha virt. eigenvalues --    2.50225   2.50357   2.51638   2.53004   2.53357
 Alpha virt. eigenvalues --    2.55482   2.57584   2.58742   2.60015   2.60695
 Alpha virt. eigenvalues --    2.61009   2.61848   2.62124   2.62348   2.62759
 Alpha virt. eigenvalues --    2.63168   2.63919   2.64416   2.64925   2.65907
 Alpha virt. eigenvalues --    2.65964   2.66383   2.67119   2.67533   2.68579
 Alpha virt. eigenvalues --    2.69345   2.70248   2.71190   2.71635   2.72162
 Alpha virt. eigenvalues --    2.72629   2.74210   2.75528   2.76658   2.77367
 Alpha virt. eigenvalues --    2.78959   2.80587   2.81396   2.82410   2.83416
 Alpha virt. eigenvalues --    2.83644   2.84716   2.86616   2.87719   2.88126
 Alpha virt. eigenvalues --    3.14184   3.20278   3.35851   3.41043   3.47012
 Alpha virt. eigenvalues --    3.47877   3.48377   3.48594   3.51062   3.51132
 Alpha virt. eigenvalues --    3.53122   3.54186   3.60278   3.61042   3.62063
 Alpha virt. eigenvalues --    3.66169   4.28301   4.58161   7.98530  31.32395
          Condensed to atoms (all electrons):
               1          2          3          4          5          6
     1  Zr  14.837002  -0.098162  -0.015813  -0.085924  -0.188798  -0.597057
     2  O   -0.098162   9.070602   0.022624  -0.043998  -0.060217   0.084745
     3  O   -0.015813   0.022624   8.862586   0.017748  -0.050402  -0.000206
     4  O   -0.085924  -0.043998   0.017748   8.825507  -0.054487  -0.716977
     5  O   -0.188798  -0.060217  -0.050402  -0.054487   9.492290  -0.012827
     6  Si  -0.597057   0.084745  -0.000206  -0.716977  -0.012827  14.067740
     7  Si  -0.577066  -0.031755  -0.894552  -0.010630  -0.038446   0.076352
     8  Si  -0.568044  -1.029367  -0.013781   0.059237  -0.021271  -0.007173
     9  Si  -0.284969  -0.048519  -0.044486  -0.041002  -1.273603   0.031012
    10  O   -0.008133   0.001338  -0.001005   0.001510   0.137381  -0.001889
    11  O   -0.045499   0.003257   0.002778   0.001000   0.303716  -0.001190
    12  O    0.032452   0.000277   0.004128   0.002156   0.160443  -0.002668
    13  O   -0.036576   0.184495   0.001829  -0.016116  -0.000265   0.038731
    14  O   -0.004526   0.269865  -0.016073  -0.007625   0.002984   0.023863
    15  O   -0.083585   0.295410  -0.000786   0.001326   0.000497  -0.000811
    16  O   -0.129102   0.004722  -0.000529   0.345766   0.003210  -0.419340
    17  O   -0.042483  -0.040908   0.009057   0.222588   0.001792  -0.483269
    18  O   -0.013121  -0.014650   0.003860   0.196540  -0.000346  -0.458850
    19  O    0.002514   0.008906   0.262460   0.009278   0.002329  -0.005495
    20  O   -0.150202  -0.000540   0.173989  -0.000872   0.002001   0.008847
    21  O    0.033262   0.010111   0.143911   0.003216   0.000122  -0.009488
    22  H   -0.005901  -0.000016  -0.000023  -0.000008   0.006098   0.000052
    23  H   -0.008676  -0.000013  -0.000003  -0.000044  -0.025346   0.000068
    24  H   -0.004805  -0.000263  -0.000019   0.000003  -0.005914   0.000103
    25  H    0.017288  -0.020009  -0.000117  -0.000158   0.000008   0.001845
    26  H    0.006306   0.000543   0.000015  -0.000012  -0.000004  -0.000040
    27  H   -0.002358  -0.019031   0.000716  -0.001798  -0.000002   0.011054
    28  H    0.005382  -0.000011  -0.018813  -0.000014  -0.000017  -0.000263
    29  H    0.004797  -0.007136  -0.020518  -0.000155  -0.000088   0.000239
    30  H    0.001156  -0.000014   0.000030  -0.000452  -0.000010  -0.000744
    31  H   -0.001102   0.000192  -0.000018  -0.018514  -0.000009   0.064210
    32  H    0.002000  -0.000022   0.000042   0.010276   0.000002   0.023016
    33  H   -0.015843   0.000996  -0.010126  -0.009163  -0.000112   0.052409
               7          8          9         10         11         12
     1  Zr  -0.577066  -0.568044  -0.284969  -0.008133  -0.045499   0.032452
     2  O   -0.031755  -1.029367  -0.048519   0.001338   0.003257   0.000277
     3  O   -0.894552  -0.013781  -0.044486  -0.001005   0.002778   0.004128
     4  O   -0.010630   0.059237  -0.041002   0.001510   0.001000   0.002156
     5  O   -0.038446  -0.021271  -1.273603   0.137381   0.303716   0.160443
     6  Si   0.076352  -0.007173   0.031012  -0.001889  -0.001190  -0.002668
     7  Si  13.810008   0.176893   0.018909  -0.000637  -0.001260   0.003282
     8  Si   0.176893  13.853402   0.023297  -0.000941   0.000747  -0.000683
     9  Si   0.018909   0.023297  14.330773  -0.097573  -0.175956  -0.191185
    10  O   -0.000637  -0.000941  -0.097573   8.525594   0.027299   0.023605
    11  O   -0.001260   0.000747  -0.175956   0.027299   8.484425  -0.047316
    12  O    0.003282  -0.000683  -0.191185   0.023605  -0.047316   8.596476
    13  O    0.007395  -0.096797   0.000425   0.000001   0.000025   0.000004
    14  O    0.004409  -0.385926  -0.001790  -0.000003  -0.000001   0.000009
    15  O   -0.002959  -0.306489  -0.000930  -0.000000  -0.000023  -0.000004
    16  O    0.004154  -0.010117  -0.000809  -0.000000  -0.000001  -0.000002
    17  O   -0.006001   0.088186   0.001719  -0.000003   0.000002  -0.000005
    18  O   -0.000789   0.072458   0.004097  -0.000005   0.000002  -0.000001
    19  O   -0.407271  -0.014629   0.001000   0.000004  -0.000003  -0.000015
    20  O   -0.120927   0.009493   0.002707   0.000001  -0.000003  -0.000024
    21  O    0.027991  -0.037255  -0.001392   0.000001  -0.000000   0.000011
    22  H   -0.000127   0.000056   0.043781  -0.006968  -0.005011   0.220473
    23  H    0.000067   0.000072   0.083679   0.227969  -0.006820   0.005984
    24  H    0.000048  -0.000125   0.034953   0.007050   0.245550  -0.007583
    25  H   -0.000484   0.057515  -0.000239  -0.000000  -0.000000  -0.000000
    26  H   -0.000354   0.046969  -0.000028   0.000000   0.000000  -0.000000
    27  H    0.002192   0.071129   0.000044   0.000000  -0.000000  -0.000000
    28  H    0.057118  -0.000080  -0.000118  -0.000000  -0.000000  -0.000001
    29  H    0.047960   0.021712  -0.000037   0.000000   0.000000  -0.000000
    30  H    0.039904   0.000035   0.000021   0.000000   0.000000   0.000000
    31  H    0.000161  -0.001721  -0.000050   0.000000  -0.000000   0.000000
    32  H   -0.000617   0.000043   0.000047  -0.000000   0.000000   0.000000
    33  H    0.020680   0.000138   0.000070  -0.000000   0.000000   0.000000
              13         14         15         16         17         18
     1  Zr  -0.036576  -0.004526  -0.083585  -0.129102  -0.042483  -0.013121
     2  O    0.184495   0.269865   0.295410   0.004722  -0.040908  -0.014650
     3  O    0.001829  -0.016073  -0.000786  -0.000529   0.009057   0.003860
     4  O   -0.016116  -0.007625   0.001326   0.345766   0.222588   0.196540
     5  O   -0.000265   0.002984   0.000497   0.003210   0.001792  -0.000346
     6  Si   0.038731   0.023863  -0.000811  -0.419340  -0.483269  -0.458850
     7  Si   0.007395   0.004409  -0.002959   0.004154  -0.006001  -0.000789
     8  Si  -0.096797  -0.385926  -0.306489  -0.010117   0.088186   0.072458
     9  Si   0.000425  -0.001790  -0.000930  -0.000809   0.001719   0.004097
    10  O    0.000001  -0.000003  -0.000000  -0.000000  -0.000003  -0.000005
    11  O    0.000025  -0.000001  -0.000023  -0.000001   0.000002   0.000002
    12  O    0.000004   0.000009  -0.000004  -0.000002  -0.000005  -0.000001
    13  O    8.626801   0.087726  -0.089353   0.003761  -0.030832  -0.045832
    14  O    0.087726   8.678393   0.055551   0.003777  -0.035937  -0.026565
    15  O   -0.089353   0.055551   8.778113  -0.000177   0.003514   0.001724
    16  O    0.003761   0.003777  -0.000177   8.900867  -0.091244  -0.114744
    17  O   -0.030832  -0.035937   0.003514  -0.091244   8.937203   0.228055
    18  O   -0.045832  -0.026565   0.001724  -0.114744   0.228055   9.012597
    19  O    0.000155  -0.000427   0.000144  -0.001543  -0.030559   0.000116
    20  O    0.000008  -0.000034   0.000041   0.000070  -0.000862   0.000012
    21  O   -0.000259   0.015113  -0.000625  -0.000220  -0.005384   0.000486
    22  H    0.000000  -0.000000  -0.000000   0.000000   0.000000  -0.000000
    23  H    0.000000   0.000000  -0.000000  -0.000000   0.000000  -0.000000
    24  H   -0.000001   0.000000   0.000003   0.000000  -0.000000  -0.000000
    25  H    0.218594  -0.012092   0.008857  -0.000053   0.000668   0.015172
    26  H   -0.005025  -0.010061   0.216896   0.000000  -0.000001   0.000007
    27  H   -0.009726   0.219643   0.004688   0.000166   0.018316  -0.000252
    28  H    0.000000  -0.000005  -0.000001  -0.000000   0.000004  -0.000000
    29  H    0.000803   0.017507  -0.002574  -0.000004  -0.000412   0.000005
    30  H    0.000001  -0.000013   0.000000   0.000114  -0.000470  -0.000007
    31  H    0.002386   0.000164  -0.000018   0.003808  -0.000798   0.218422
    32  H   -0.000008  -0.000006   0.000000   0.233355  -0.003658   0.003889
    33  H    0.000213   0.002045  -0.000033   0.000009   0.231387   0.002079
              19         20         21         22         23         24
     1  Zr   0.002514  -0.150202   0.033262  -0.005901  -0.008676  -0.004805
     2  O    0.008906  -0.000540   0.010111  -0.000016  -0.000013  -0.000263
     3  O    0.262460   0.173989   0.143911  -0.000023  -0.000003  -0.000019
     4  O    0.009278  -0.000872   0.003216  -0.000008  -0.000044   0.000003
     5  O    0.002329   0.002001   0.000122   0.006098  -0.025346  -0.005914
     6  Si  -0.005495   0.008847  -0.009488   0.000052   0.000068   0.000103
     7  Si  -0.407271  -0.120927   0.027991  -0.000127   0.000067   0.000048
     8  Si  -0.014629   0.009493  -0.037255   0.000056   0.000072  -0.000125
     9  Si   0.001000   0.002707  -0.001392   0.043781   0.083679   0.034953
    10  O    0.000004   0.000001   0.000001  -0.006968   0.227969   0.007050
    11  O   -0.000003  -0.000003  -0.000000  -0.005011  -0.006820   0.245550
    12  O   -0.000015  -0.000024   0.000011   0.220473   0.005984  -0.007583
    13  O    0.000155   0.000008  -0.000259   0.000000   0.000000  -0.000001
    14  O   -0.000427  -0.000034   0.015113  -0.000000   0.000000   0.000000
    15  O    0.000144   0.000041  -0.000625  -0.000000  -0.000000   0.000003
    16  O   -0.001543   0.000070  -0.000220   0.000000  -0.000000   0.000000
    17  O   -0.030559  -0.000862  -0.005384   0.000000   0.000000  -0.000000
    18  O    0.000116   0.000012   0.000486  -0.000000  -0.000000  -0.000000
    19  O    8.869455   0.033466   0.021579  -0.000000   0.000000  -0.000000
    20  O    0.033466   8.662367  -0.050010   0.000000   0.000000  -0.000000
    21  O    0.021579  -0.050010   8.481384  -0.000000   0.000000   0.000000
    22  H   -0.000000   0.000000  -0.000000   0.364120   0.000063   0.000122
    23  H    0.000000   0.000000   0.000000   0.000063   0.351154   0.000016
    24  H   -0.000000  -0.000000   0.000000   0.000122   0.000016   0.364743
    25  H   -0.000024   0.000000  -0.000021   0.000000   0.000000   0.000000
    26  H    0.000001  -0.000000   0.000041  -0.000000  -0.000000  -0.000000
    27  H    0.000087   0.000186  -0.003923  -0.000000  -0.000000   0.000000
    28  H    0.004577   0.229600  -0.002154  -0.000000   0.000000   0.000000
    29  H   -0.008576   0.007628   0.206470   0.000000   0.000000  -0.000000
    30  H    0.224314  -0.001516  -0.007084   0.000000   0.000000  -0.000000
    31  H    0.000004  -0.000000  -0.000000  -0.000000  -0.000000   0.000000
    32  H    0.000103  -0.000000   0.000001  -0.000000  -0.000000  -0.000000
    33  H    0.015025  -0.000110   0.001513  -0.000000  -0.000000  -0.000000
              25         26         27         28         29         30
     1  Zr   0.017288   0.006306  -0.002358   0.005382   0.004797   0.001156
     2  O   -0.020009   0.000543  -0.019031  -0.000011  -0.007136  -0.000014
     3  O   -0.000117   0.000015   0.000716  -0.018813  -0.020518   0.000030
     4  O   -0.000158  -0.000012  -0.001798  -0.000014  -0.000155  -0.000452
     5  O    0.000008  -0.000004  -0.000002  -0.000017  -0.000088  -0.000010
     6  Si   0.001845  -0.000040   0.011054  -0.000263   0.000239  -0.000744
     7  Si  -0.000484  -0.000354   0.002192   0.057118   0.047960   0.039904
     8  Si   0.057515   0.046969   0.071129  -0.000080   0.021712   0.000035
     9  Si  -0.000239  -0.000028   0.000044  -0.000118  -0.000037   0.000021
    10  O   -0.000000   0.000000   0.000000  -0.000000   0.000000   0.000000
    11  O   -0.000000   0.000000  -0.000000  -0.000000   0.000000   0.000000
    12  O   -0.000000  -0.000000  -0.000000  -0.000001  -0.000000   0.000000
    13  O    0.218594  -0.005025  -0.009726   0.000000   0.000803   0.000001
    14  O   -0.012092  -0.010061   0.219643  -0.000005   0.017507  -0.000013
    15  O    0.008857   0.216896   0.004688  -0.000001  -0.002574   0.000000
    16  O   -0.000053   0.000000   0.000166  -0.000000  -0.000004   0.000114
    17  O    0.000668  -0.000001   0.018316   0.000004  -0.000412  -0.000470
    18  O    0.015172   0.000007  -0.000252  -0.000000   0.000005  -0.000007
    19  O   -0.000024   0.000001   0.000087   0.004577  -0.008576   0.224314
    20  O    0.000000  -0.000000   0.000186   0.229600   0.007628  -0.001516
    21  O   -0.000021   0.000041  -0.003923  -0.002154   0.206470  -0.007084
    22  H    0.000000  -0.000000  -0.000000  -0.000000   0.000000   0.000000
    23  H    0.000000  -0.000000  -0.000000   0.000000   0.000000   0.000000
    24  H    0.000000  -0.000000   0.000000   0.000000  -0.000000  -0.000000
    25  H    0.298697  -0.000013   0.000126   0.000000   0.000001   0.000000
    26  H   -0.000013   0.365754   0.000034   0.000000   0.000022  -0.000000
    27  H    0.000126   0.000034   0.283106  -0.000000  -0.001505   0.000011
    28  H    0.000000   0.000000  -0.000000   0.348900  -0.000016  -0.000016
    29  H    0.000001   0.000022  -0.001505  -0.000016   0.286048   0.000156
    30  H    0.000000  -0.000000   0.000011  -0.000016   0.000156   0.334077
    31  H   -0.000515   0.000000   0.000013  -0.000000   0.000000  -0.000000
    32  H   -0.000001   0.000000  -0.000000   0.000000  -0.000000  -0.000000
    33  H    0.000007  -0.000000  -0.002444  -0.000002   0.000094  -0.001152
              31         32         33
     1  Zr  -0.001102   0.002000  -0.015843
     2  O    0.000192  -0.000022   0.000996
     3  O   -0.000018   0.000042  -0.010126
     4  O   -0.018514   0.010276  -0.009163
     5  O   -0.000009   0.000002  -0.000112
     6  Si   0.064210   0.023016   0.052409
     7  Si   0.000161  -0.000617   0.020680
     8  Si  -0.001721   0.000043   0.000138
     9  Si  -0.000050   0.000047   0.000070
    10  O    0.000000  -0.000000  -0.000000
    11  O   -0.000000   0.000000   0.000000
    12  O    0.000000   0.000000   0.000000
    13  O    0.002386  -0.000008   0.000213
    14  O    0.000164  -0.000006   0.002045
    15  O   -0.000018   0.000000  -0.000033
    16  O    0.003808   0.233355   0.000009
    17  O   -0.000798  -0.003658   0.231387
    18  O    0.218422   0.003889   0.002079
    19  O    0.000004   0.000103   0.015025
    20  O   -0.000000  -0.000000  -0.000110
    21  O   -0.000000   0.000001   0.001513
    22  H   -0.000000  -0.000000  -0.000000
    23  H   -0.000000  -0.000000  -0.000000
    24  H    0.000000  -0.000000  -0.000000
    25  H   -0.000515  -0.000001   0.000007
    26  H    0.000000   0.000000  -0.000000
    27  H    0.000013  -0.000000  -0.002444
    28  H   -0.000000   0.000000  -0.000002
    29  H    0.000000  -0.000000   0.000094
    30  H   -0.000000  -0.000000  -0.001152
    31  H    0.331373   0.000002  -0.000038
    32  H    0.000002   0.349924   0.000155
    33  H   -0.000038   0.000155   0.269127
 Mulliken charges:
               1
     1  Zr   0.025585
     2  O   -0.543453
     3  O   -0.418503
     4  O   -0.688203
     5  O   -0.380709
     6  Si   2.234000
     7  Si   1.796352
     8  Si   2.013015
     9  Si   1.586155
    10  O   -0.834595
    11  O   -0.785719
    12  O   -0.799809
    13  O   -0.842562
    14  O   -0.879962
    15  O   -0.878397
    16  O   -0.735896
    17  O   -0.969664
    18  O   -1.084358
    19  O   -0.986976
    20  O   -0.805317
    21  O   -0.827399
    22  H    0.383288
    23  H    0.371829
    24  H    0.366119
    25  H    0.414947
    26  H    0.378950
    27  H    0.429529
    28  H    0.375933
    29  H    0.447581
    30  H    0.411658
    31  H    0.402051
    32  H    0.381455
    33  H    0.443076
 Sum of Mulliken charges =  -0.00000
 Mulliken charges with hydrogens summed into heavy atoms:
               1
     1  Zr   0.025585
     2  O   -0.543453
     3  O   -0.418503
     4  O   -0.688203
     5  O   -0.380709
     6  Si   2.234000
     7  Si   1.796352
     8  Si   2.013015
     9  Si   1.586155
    10  O   -0.462766
    11  O   -0.419600
    12  O   -0.416521
    13  O   -0.427615
    14  O   -0.450434
    15  O   -0.499447
    16  O   -0.354441
    17  O   -0.526588
    18  O   -0.682307
    19  O   -0.575318
    20  O   -0.429384
    21  O   -0.379818
 Electronic spatial extent (au):  <R**2>=           9913.4477
 Charge=              0.0000 electrons
 Dipole moment (field-independent basis, Debye):
    X=              0.9794    Y=             -0.8709    Z=             -2.4351  Tot=              2.7654
 Quadrupole moment (field-independent basis, Debye-Ang):
   XX=           -160.1560   YY=           -155.5059   ZZ=           -157.8667
   XY=             -5.9386   XZ=              1.8037   YZ=              5.5513
 Traceless Quadrupole moment (field-independent basis, Debye-Ang):
   XX=             -2.3131   YY=              2.3369   ZZ=             -0.0238
   XY=             -5.9386   XZ=              1.8037   YZ=              5.5513
 Octapole moment (field-independent basis, Debye-Ang**2):
  XXX=             72.6890  YYY=              6.3033  ZZZ=            -18.4870  XYY=             -3.3986
  XXY=             22.4528  XXZ=             18.0913  XZZ=              4.9779  YZZ=            -16.7029
  YYZ=            -13.6397  XYZ=             29.9551
 Hexadecapole moment (field-independent basis, Debye-Ang**3):
 XXXX=          -6000.1352 YYYY=          -2857.7504 ZZZZ=          -2269.5516 XXXY=             57.6955
 XXXZ=              8.6937 YYYX=            -12.1398 YYYZ=            234.7511 ZZZX=           -181.3560
 ZZZY=            -66.5022 XXYY=          -1510.6303 XXZZ=          -1370.3956 YYZZ=           -930.2533
 XXYZ=            -24.4309 YYXZ=            101.4976 ZZXY=            -61.2206
 N-N= 2.829830940557D+03 E-N=-1.137220183314D+04  KE= 2.373151717305D+03
 PrsmSu:  requested number of processors reduced to:   2 ShMem   1 Linda.
 PrsmSu:  requested number of processors reduced to:  10 ShMem   1 Linda.
   1 Symmetry operations used in ECPInt.
 ECPInt:  NShTT=   13203 NPrTT=   78401 LenC2=   11520 LenP2D=   44608.
 LDataN:  DoStor=T MaxTD1= 9 Len=  602
 Number of processors reduced to  14 by ecpmxn.
 Calling FoFJK, ICntrl=      2127 FMM=F ISym2X=0 I1Cent= 0 IOpClX= 0 NMat=1 NMatS=1 NMatT=0.
 CoulSu:  requested number of processors reduced to:  10 ShMem   1 Linda.
 Defaulting to unpruned grid for atomic number  40.
 Defaulting to unpruned grid for atomic number  40.
 Defaulting to unpruned grid for atomic number  40.
 Defaulting to unpruned grid for atomic number  40.
 Defaulting to unpruned grid for atomic number  40.
 Defaulting to unpruned grid for atomic number  40.
 Defaulting to unpruned grid for atomic number  40.
 Defaulting to unpruned grid for atomic number  40.
 Defaulting to unpruned grid for atomic number  40.
 Defaulting to unpruned grid for atomic number  40.
 Defaulting to unpruned grid for atomic number  40.
 Defaulting to unpruned grid for atomic number  40.
 Defaulting to unpruned grid for atomic number  40.
 Defaulting to unpruned grid for atomic number  40.
 Defaulting to unpruned grid for atomic number  40.
 Defaulting to unpruned grid for atomic number  40.
 ***** Axes restored to original set *****
 -------------------------------------------------------------------
 Center     Atomic                   Forces (Hartrees/Bohr)
 Number     Number              X              Y              Z
 -------------------------------------------------------------------
      1       40           0.000948441   -0.000274971   -0.000045177
      2        8           0.000084631   -0.000024426   -0.000114141
      3        8          -0.000072381    0.000293892    0.000008913
      4        8           0.000088254   -0.000002230    0.000165095
      5        8          -0.000734799   -0.000571165   -0.000191714
      6       14          -0.000147272    0.000019548   -0.000067567
      7       14          -0.000013853    0.000027097   -0.000036019
      8       14          -0.000138953    0.000009758    0.000100681
      9       14          -0.000270397    0.001413595    0.000399605
     10        8          -0.000028129   -0.000183611   -0.000099195
     11        8          -0.000041994   -0.000326468   -0.000034859
     12        8           0.000017142   -0.000318532   -0.000124328
     13        8           0.000042714    0.000006573   -0.000012345
     14        8           0.000084126   -0.000055693   -0.000015879
     15        8           0.000023191   -0.000013767   -0.000056198
     16        8           0.000030442   -0.000007422    0.000031364
     17        8           0.000050808   -0.000028779   -0.000009320
     18        8           0.000034410    0.000006390    0.000017521
     19        8           0.000015662   -0.000012094    0.000019553
     20        8           0.000019445   -0.000029807    0.000017480
     21        8           0.000008590   -0.000006112    0.000008545
     22        1          -0.000023162   -0.000087868   -0.000047678
     23        1           0.000034524    0.000008839    0.000007187
     24        1           0.000073820    0.000044339    0.000089471
     25        1          -0.000010265    0.000001689   -0.000001691
     26        1          -0.000005338    0.000006463    0.000013345
     27        1          -0.000001929    0.000018589   -0.000019599
     28        1          -0.000011328    0.000023203   -0.000001578
     29        1          -0.000035391    0.000042245    0.000029174
     30        1          -0.000000353    0.000003556   -0.000005379
     31        1          -0.000011167   -0.000008754   -0.000007163
     32        1          -0.000010456    0.000006530   -0.000013863
     33        1           0.000000966    0.000019392   -0.000004242
 -------------------------------------------------------------------
 Cartesian Forces:  Max     0.001413595 RMS     0.000216679

 GradGradGradGradGradGradGradGradGradGradGradGradGradGradGradGradGradGrad
 Berny optimization.
 FormGI is forming the generalized inverse of G from B-inverse, IUseBI=4.
 Internal  Forces:  Max     0.000955715 RMS     0.000137696
 Search for a local minimum.
 Step number   1 out of a maximum of  153
 All quantities printed in internal units (Hartrees-Bohrs-Radians)
 Mixed Optimization -- En-DIIS/RFO-DIIS
 Second derivative matrix not updated -- first step.
 ITU=  0
     Eigenvalues ---    0.00230   0.00230   0.00230   0.02246   0.03240
     Eigenvalues ---    0.03358   0.03498   0.03580   0.03665   0.03665
     Eigenvalues ---    0.03680   0.03686   0.03693   0.03739   0.03789
     Eigenvalues ---    0.03792   0.03816   0.03834   0.03850   0.05999
     Eigenvalues ---    0.06928   0.07085   0.11077   0.11224   0.11833
     Eigenvalues ---    0.11884   0.12177   0.12217   0.12239   0.12740
     Eigenvalues ---    0.12895   0.13099   0.13313   0.16000   0.16000
     Eigenvalues ---    0.16000   0.16000   0.16000   0.16000   0.16000
     Eigenvalues ---    0.16000   0.16000   0.16000   0.16000   0.16000
     Eigenvalues ---    0.18418   0.18964   0.19173   0.19628   0.20203
     Eigenvalues ---    0.20203   0.20208   0.20515   0.20653   0.20663
     Eigenvalues ---    0.20795   0.20989   0.21175   0.21186   0.25000
     Eigenvalues ---    0.25000   0.25000   0.38002   0.39187   0.40659
     Eigenvalues ---    0.41547   0.42502   0.42508   0.42671   0.42743
     Eigenvalues ---    0.42824   0.43363   0.43951   0.43980   0.44273
     Eigenvalues ---    0.44485   0.44689   0.44766   0.50655   0.51353
     Eigenvalues ---    0.52036   0.52548   0.54334   0.54624   0.54641
     Eigenvalues ---    0.54649   0.54689   0.54691   0.54711   0.54765
     Eigenvalues --- 1000.000001000.000001000.000001000.000001000.00000
     Eigenvalues --- 1000.000001000.000001000.000001000.000001000.00000
     Eigenvalues --- 1000.000001000.000001000.000001000.000001000.00000
     Eigenvalues --- 1000.000001000.000001000.000001000.000001000.00000
     Eigenvalues --- 1000.000001000.000001000.000001000.000001000.00000
     Eigenvalues --- 1000.000001000.000001000.000001000.000001000.00000
     Eigenvalues --- 1000.000001000.000001000.000001000.000001000.00000
     Eigenvalues --- 1000.000001000.000001000.000001000.000001000.00000
     Eigenvalues --- 1000.000001000.000001000.000001000.000001000.00000
     Eigenvalues --- 1000.000001000.000001000.000001000.000001000.00000
     Eigenvalues --- 1000.000001000.000001000.00000
 RFO step:  Lambda=-1.28037636D-05 EMin= 2.30000000D-03
 Linear search not attempted -- first point.
 Iteration  1 RMS(Cart)=  0.01474336 RMS(Int)=  0.00005585
 Iteration  2 RMS(Cart)=  0.00009457 RMS(Int)=  0.00000032
 Iteration  3 RMS(Cart)=  0.00000000 RMS(Int)=  0.00000032
 Iteration  1 RMS(Cart)=  0.00000012 RMS(Int)=  0.00000001
 Variable       Old X    -DE/DX   Delta X   Delta X   Delta X     New X
                                 (Linear)    (Quad)   (Total)
    R1        3.67647  -0.00010   0.00000  -0.00047  -0.00047   3.67600
    R2        3.69189   0.00035   0.00000   0.00172   0.00172   3.69361
    R3        3.73835  -0.00011   0.00000  -0.00055  -0.00055   3.73780
    R4        3.70232  -0.00096   0.00000  -0.00474  -0.00474   3.69758
    R5        3.11688   0.00001   0.00000   0.00003   0.00003   3.11691
    R6        3.09579   0.00004   0.00000   0.00010   0.00010   3.09589
    R7        3.10213   0.00006   0.00000   0.00014   0.00014   3.10227
    R8        3.09245  -0.00025   0.00000  -0.00055  -0.00055   3.09190
    R9        3.11587  -0.00002   0.00000  -0.00004  -0.00004   3.11583
   R10        3.11989  -0.00004   0.00000  -0.00010  -0.00010   3.11979
   R11        3.14367  -0.00000   0.00000  -0.00000  -0.00000   3.14367
   R12        3.18062  -0.00002   0.00000  -0.00005  -0.00005   3.18057
   R13        3.10924  -0.00001   0.00000  -0.00001  -0.00001   3.10923
   R14        3.09339   0.00005   0.00000   0.00010   0.00010   3.09349
   R15        3.10179  -0.00002   0.00000  -0.00003  -0.00003   3.10175
   R16        3.16373  -0.00006   0.00000  -0.00016  -0.00016   3.16357
   R17        3.09830  -0.00004   0.00000  -0.00010  -0.00010   3.09820
   R18        3.11981   0.00008   0.00000   0.00019   0.00019   3.12000
   R19        3.13203   0.00028   0.00000   0.00066   0.00066   3.13270
   R20        3.11778  -0.00042   0.00000  -0.00099  -0.00099   3.11679
   R21        1.82153  -0.00000   0.00000  -0.00000  -0.00000   1.82152
   R22        1.82108   0.00002   0.00000   0.00004   0.00004   1.82112
   R23        1.82090  -0.00004   0.00000  -0.00008  -0.00008   1.82082
   R24        1.84078   0.00000   0.00000   0.00001   0.00001   1.84079
   R25        1.84565   0.00002   0.00000   0.00003   0.00003   1.84568
   R26        1.82041   0.00001   0.00000   0.00002   0.00002   1.82043
   R27        1.82109   0.00000   0.00000   0.00000   0.00000   1.82110
   R28        1.85910   0.00002   0.00000   0.00004   0.00004   1.85914
   R29        1.82145   0.00001   0.00000   0.00002   0.00002   1.82147
   R30        1.82428   0.00000   0.00000   0.00001   0.00001   1.82429
   R31        1.82168   0.00001   0.00000   0.00002   0.00002   1.82170
   R32        1.85224  -0.00002   0.00000  -0.00004  -0.00004   1.85220
    A1        1.85172   0.00017   0.00000   0.00102   0.00102   1.85275
    A2        1.80155  -0.00018   0.00000  -0.00055  -0.00055   1.80101
    A3        1.96889  -0.00003   0.00000  -0.00006  -0.00006   1.96883
    A4        1.83430   0.00009   0.00000   0.00013   0.00013   1.83443
    A5        2.01802  -0.00010   0.00000  -0.00054  -0.00054   2.01749
    A6        1.97057   0.00005   0.00000   0.00004   0.00004   1.97062
    A7        2.46524  -0.00008   0.00000  -0.00033  -0.00033   2.46491
    A8        2.58826   0.00024   0.00000   0.00095   0.00095   2.58921
    A9        2.35483   0.00000   0.00000   0.00001   0.00001   2.35484
[...]
 Alpha virt. eigenvalues --    3.47846   3.48421   3.48610   3.51086   3.51122
 Alpha virt. eigenvalues --    3.53139   3.54127   3.60322   3.61051   3.62092
 Alpha virt. eigenvalues --    3.66140   4.28467   4.57771   7.99886  31.32603
          Condensed to atoms (all electrons):
               1          2          3          4          5          6
     1  Zr  14.840185  -0.101059  -0.015740  -0.087193  -0.195358  -0.589400
     2  O   -0.101059   9.068361   0.022640  -0.043362  -0.060799   0.084414
     3  O   -0.015740   0.022640   8.864475   0.017740  -0.050893  -0.000565
     4  O   -0.087193  -0.043362   0.017740   8.827270  -0.054510  -0.718832
     5  O   -0.195358  -0.060799  -0.050893  -0.054510   9.490133  -0.013065
     6  Si  -0.589400   0.084414  -0.000565  -0.718832  -0.013065  14.064010
     7  Si  -0.574978  -0.031449  -0.895191  -0.010733  -0.038592   0.076433
     8  Si  -0.567225  -1.023364  -0.013742   0.059620  -0.021158  -0.009925
     9  Si  -0.276949  -0.047923  -0.044417  -0.040902  -1.258339   0.030413
    10  O   -0.009008   0.001346  -0.001002   0.001481   0.134114  -0.001780
    11  O   -0.044406   0.003167   0.002716   0.000892   0.292643  -0.001182
    12  O    0.029339   0.000216   0.004097   0.002158   0.156060  -0.002653
    13  O   -0.037411   0.183193   0.001823  -0.016106  -0.000287   0.039171
    14  O   -0.006693   0.269860  -0.016015  -0.007691   0.003023   0.024343
    15  O   -0.083369   0.295491  -0.000830   0.001334   0.000480  -0.000899
    16  O   -0.128877   0.004680  -0.000546   0.344856   0.003212  -0.416759
    17  O   -0.043200  -0.040245   0.009042   0.222762   0.001830  -0.483448
    18  O   -0.015250  -0.014347   0.003856   0.196970  -0.000344  -0.459192
    19  O    0.001815   0.008918   0.261736   0.009260   0.002327  -0.005228
    20  O   -0.150275  -0.000538   0.173535  -0.000870   0.002014   0.008786
    21  O    0.032953   0.010158   0.144044   0.003210   0.000143  -0.009401
    22  H   -0.005784  -0.000016  -0.000023  -0.000008   0.006275   0.000052
    23  H   -0.008707  -0.000013  -0.000003  -0.000042  -0.025195   0.000069
    24  H   -0.005048  -0.000245  -0.000017   0.000006  -0.007021   0.000101
    25  H    0.017490  -0.020024  -0.000117  -0.000157   0.000009   0.001771
    26  H    0.006267   0.000559   0.000015  -0.000012  -0.000004  -0.000044
    27  H   -0.002096  -0.019020   0.000705  -0.001865  -0.000002   0.011161
    28  H    0.005403  -0.000011  -0.018757  -0.000014  -0.000017  -0.000266
    29  H    0.004697  -0.007099  -0.020460  -0.000154  -0.000088   0.000219
    30  H    0.001114  -0.000014   0.000045  -0.000451  -0.000010  -0.000751
    31  H   -0.000989   0.000194  -0.000018  -0.018531  -0.000009   0.064147
    32  H    0.001984  -0.000022   0.000042   0.010183   0.000002   0.023038
    33  H   -0.015737   0.000959  -0.010111  -0.009145  -0.000114   0.052343
               7          8          9         10         11         12
     1  Zr  -0.574978  -0.567225  -0.276949  -0.009008  -0.044406   0.029339
     2  O   -0.031449  -1.023364  -0.047923   0.001346   0.003167   0.000216
     3  O   -0.895191  -0.013742  -0.044417  -0.001002   0.002716   0.004097
     4  O   -0.010733   0.059620  -0.040902   0.001481   0.000892   0.002158
     5  O   -0.038592  -0.021158  -1.258339   0.134114   0.292643   0.156060
     6  Si   0.076433  -0.009925   0.030413  -0.001780  -0.001182  -0.002653
     7  Si  13.808631   0.176805   0.018733  -0.000637  -0.001230   0.003357
     8  Si   0.176805  13.842256   0.023674  -0.000924   0.000673  -0.000635
     9  Si   0.018733   0.023674  14.289414  -0.094985  -0.159492  -0.178178
    10  O   -0.000637  -0.000924  -0.094985   8.525893   0.030537   0.020990
    11  O   -0.001230   0.000673  -0.159492   0.030537   8.477665  -0.050454
    12  O    0.003357  -0.000635  -0.178178   0.020990  -0.050454   8.593259
    13  O    0.007513  -0.095321   0.000459   0.000001   0.000024   0.000004
    14  O    0.004063  -0.383753  -0.001820  -0.000003  -0.000000   0.000009
    15  O   -0.002958  -0.307554  -0.000953  -0.000000  -0.000023  -0.000004
    16  O    0.004110  -0.010062  -0.000810   0.000000  -0.000001  -0.000002
    17  O   -0.006385   0.088229   0.001697  -0.000003   0.000002  -0.000005
    18  O   -0.000679   0.072799   0.004122  -0.000005   0.000002  -0.000001
    19  O   -0.406283  -0.014454   0.001025   0.000004  -0.000003  -0.000015
    20  O   -0.119279   0.009529   0.002733   0.000001  -0.000002  -0.000023
    21  O    0.026669  -0.037226  -0.001401   0.000001  -0.000000   0.000011
    22  H   -0.000128   0.000055   0.043388  -0.006967  -0.005115   0.220918
    23  H    0.000068   0.000072   0.083674   0.228037  -0.006826   0.005868
    24  H    0.000049  -0.000119   0.036672   0.007242   0.245968  -0.007808
    25  H   -0.000488   0.057660  -0.000242  -0.000000  -0.000000  -0.000000
    26  H   -0.000352   0.047098  -0.000028   0.000000   0.000000  -0.000000
    27  H    0.002291   0.070959   0.000044   0.000000  -0.000000  -0.000000
    28  H    0.057037  -0.000083  -0.000118  -0.000000  -0.000000  -0.000001
    29  H    0.047935   0.021565  -0.000036   0.000000   0.000000  -0.000000
    30  H    0.040018   0.000032   0.000021  -0.000000   0.000000   0.000000
    31  H    0.000158  -0.001732  -0.000050   0.000000  -0.000000   0.000000
    32  H   -0.000615   0.000049   0.000047  -0.000000   0.000000   0.000000
    33  H    0.020635   0.000087   0.000071  -0.000000   0.000000   0.000000
              13         14         15         16         17         18
     1  Zr  -0.037411  -0.006693  -0.083369  -0.128877  -0.043200  -0.015250
     2  O    0.183193   0.269860   0.295491   0.004680  -0.040245  -0.014347
     3  O    0.001823  -0.016015  -0.000830  -0.000546   0.009042   0.003856
     4  O   -0.016106  -0.007691   0.001334   0.344856   0.222762   0.196970
     5  O   -0.000287   0.003023   0.000480   0.003212   0.001830  -0.000344
     6  Si   0.039171   0.024343  -0.000899  -0.416759  -0.483448  -0.459192
     7  Si   0.007513   0.004063  -0.002958   0.004110  -0.006385  -0.000679
     8  Si  -0.095321  -0.383753  -0.307554  -0.010062   0.088229   0.072799
     9  Si   0.000459  -0.001820  -0.000953  -0.000810   0.001697   0.004122
    10  O    0.000001  -0.000003  -0.000000   0.000000  -0.000003  -0.000005
    11  O    0.000024  -0.000000  -0.000023  -0.000001   0.000002   0.000002
    12  O    0.000004   0.000009  -0.000004  -0.000002  -0.000005  -0.000001
    13  O    8.628354   0.087627  -0.090318   0.003749  -0.030859  -0.045777
    14  O    0.087627   8.679725   0.055924   0.003783  -0.036013  -0.026689
    15  O   -0.090318   0.055924   8.779939  -0.000178   0.003555   0.001727
    16  O    0.003749   0.003783  -0.000178   8.898939  -0.091358  -0.114414
    17  O   -0.030859  -0.036013   0.003555  -0.091358   8.936321   0.228173
    18  O   -0.045777  -0.026689   0.001727  -0.114414   0.228173   9.013364
    19  O    0.000153  -0.000361   0.000142  -0.001556  -0.030639   0.000134
    20  O    0.000008  -0.000042   0.000040   0.000071  -0.000882   0.000011
    21  O   -0.000280   0.015639  -0.000601  -0.000217  -0.005328   0.000481
    22  H    0.000000  -0.000000  -0.000000   0.000000   0.000000  -0.000000
    23  H    0.000000   0.000000  -0.000000  -0.000000   0.000000  -0.000000
    24  H   -0.000001   0.000000   0.000003   0.000000  -0.000000  -0.000000
    25  H    0.218321  -0.012074   0.008891  -0.000050   0.000670   0.015129
    26  H   -0.005020  -0.010090   0.216802   0.000000  -0.000002   0.000007
    27  H   -0.009717   0.219370   0.004655   0.000173   0.018390  -0.000250
    28  H    0.000000  -0.000005  -0.000001  -0.000000   0.000004  -0.000000
    29  H    0.000801   0.017503  -0.002570  -0.000004  -0.000420   0.000005
    30  H    0.000001  -0.000015   0.000000   0.000114  -0.000479  -0.000006
    31  H    0.002394   0.000166  -0.000019   0.003817  -0.000834   0.218361
    32  H   -0.000008  -0.000006   0.000000   0.233487  -0.003700   0.003944
    33  H    0.000210   0.002036  -0.000033  -0.000007   0.231655   0.002096
              19         20         21         22         23         24
     1  Zr   0.001815  -0.150275   0.032953  -0.005784  -0.008707  -0.005048
     2  O    0.008918  -0.000538   0.010158  -0.000016  -0.000013  -0.000245
     3  O    0.261736   0.173535   0.144044  -0.000023  -0.000003  -0.000017
     4  O    0.009260  -0.000870   0.003210  -0.000008  -0.000042   0.000006
     5  O    0.002327   0.002014   0.000143   0.006275  -0.025195  -0.007021
     6  Si  -0.005228   0.008786  -0.009401   0.000052   0.000069   0.000101
     7  Si  -0.406283  -0.119279   0.026669  -0.000128   0.000068   0.000049
     8  Si  -0.014454   0.009529  -0.037226   0.000055   0.000072  -0.000119
     9  Si   0.001025   0.002733  -0.001401   0.043388   0.083674   0.036672
    10  O    0.000004   0.000001   0.000001  -0.006967   0.228037   0.007242
    11  O   -0.000003  -0.000002  -0.000000  -0.005115  -0.006826   0.245968
    12  O   -0.000015  -0.000023   0.000011   0.220918   0.005868  -0.007808
    13  O    0.000153   0.000008  -0.000280   0.000000   0.000000  -0.000001
    14  O   -0.000361  -0.000042   0.015639  -0.000000   0.000000   0.000000
    15  O    0.000142   0.000040  -0.000601  -0.000000  -0.000000   0.000003
    16  O   -0.001556   0.000071  -0.000217   0.000000  -0.000000   0.000000
    17  O   -0.030639  -0.000882  -0.005328   0.000000   0.000000  -0.000000
    18  O    0.000134   0.000011   0.000481  -0.000000  -0.000000  -0.000000
    19  O    8.869778   0.033040   0.021807   0.000000   0.000000  -0.000000
    20  O    0.033040   8.661825  -0.049749   0.000000   0.000000  -0.000000
    21  O    0.021807  -0.049749   8.481867  -0.000000   0.000000   0.000000
    22  H    0.000000   0.000000  -0.000000   0.363778   0.000068   0.000136
    23  H    0.000000   0.000000   0.000000   0.000068   0.350559   0.000010
    24  H   -0.000000  -0.000000   0.000000   0.000136   0.000010   0.364420
    25  H   -0.000024   0.000000  -0.000020   0.000000   0.000000   0.000000
    26  H    0.000001  -0.000000   0.000042  -0.000000  -0.000000  -0.000000
    27  H    0.000088   0.000188  -0.003975  -0.000000  -0.000000   0.000000
    28  H    0.004521   0.229492  -0.002085  -0.000000   0.000000   0.000000
    29  H   -0.008601   0.007640   0.206580   0.000000   0.000000  -0.000000
    30  H    0.224172  -0.001484  -0.007111   0.000000   0.000000  -0.000000
    31  H    0.000004  -0.000000  -0.000000  -0.000000  -0.000000   0.000000
    32  H    0.000103  -0.000000   0.000001  -0.000000  -0.000000  -0.000000
    33  H    0.015013  -0.000103   0.001504  -0.000000  -0.000000  -0.000000
              25         26         27         28         29         30
     1  Zr   0.017490   0.006267  -0.002096   0.005403   0.004697   0.001114
     2  O   -0.020024   0.000559  -0.019020  -0.000011  -0.007099  -0.000014
     3  O   -0.000117   0.000015   0.000705  -0.018757  -0.020460   0.000045
     4  O   -0.000157  -0.000012  -0.001865  -0.000014  -0.000154  -0.000451
     5  O    0.000009  -0.000004  -0.000002  -0.000017  -0.000088  -0.000010
     6  Si   0.001771  -0.000044   0.011161  -0.000266   0.000219  -0.000751
     7  Si  -0.000488  -0.000352   0.002291   0.057037   0.047935   0.040018
     8  Si   0.057660   0.047098   0.070959  -0.000083   0.021565   0.000032
     9  Si  -0.000242  -0.000028   0.000044  -0.000118  -0.000036   0.000021
    10  O   -0.000000   0.000000   0.000000  -0.000000   0.000000  -0.000000
    11  O   -0.000000   0.000000  -0.000000  -0.000000   0.000000   0.000000
    12  O   -0.000000  -0.000000  -0.000000  -0.000001  -0.000000   0.000000
    13  O    0.218321  -0.005020  -0.009717   0.000000   0.000801   0.000001
    14  O   -0.012074  -0.010090   0.219370  -0.000005   0.017503  -0.000015
    15  O    0.008891   0.216802   0.004655  -0.000001  -0.002570   0.000000
    16  O   -0.000050   0.000000   0.000173  -0.000000  -0.000004   0.000114
    17  O    0.000670  -0.000002   0.018390   0.000004  -0.000420  -0.000479
    18  O    0.015129   0.000007  -0.000250  -0.000000   0.000005  -0.000006
    19  O   -0.000024   0.000001   0.000088   0.004521  -0.008601   0.224172
    20  O    0.000000  -0.000000   0.000188   0.229492   0.007640  -0.001484
    21  O   -0.000020   0.000042  -0.003975  -0.002085   0.206580  -0.007111
    22  H    0.000000  -0.000000  -0.000000  -0.000000   0.000000   0.000000
    23  H    0.000000  -0.000000  -0.000000   0.000000   0.000000   0.000000
    24  H    0.000000  -0.000000   0.000000   0.000000  -0.000000  -0.000000
    25  H    0.298802  -0.000013   0.000126   0.000000   0.000001   0.000000
    26  H   -0.000013   0.365840   0.000035   0.000000   0.000022  -0.000000
    27  H    0.000126   0.000035   0.283000  -0.000000  -0.001476   0.000011
    28  H    0.000000   0.000000  -0.000000   0.348974  -0.000016  -0.000016
    29  H    0.000001   0.000022  -0.001476  -0.000016   0.286156   0.000156
    30  H    0.000000  -0.000000   0.000011  -0.000016   0.000156   0.334269
    31  H   -0.000516   0.000000   0.000013  -0.000000   0.000000  -0.000000
    32  H   -0.000001   0.000000  -0.000000   0.000000  -0.000000  -0.000000
    33  H    0.000007  -0.000000  -0.002467  -0.000002   0.000093  -0.001145
              31         32         33
     1  Zr  -0.000989   0.001984  -0.015737
     2  O    0.000194  -0.000022   0.000959
     3  O   -0.000018   0.000042  -0.010111
     4  O   -0.018531   0.010183  -0.009145
     5  O   -0.000009   0.000002  -0.000114
     6  Si   0.064147   0.023038   0.052343
     7  Si   0.000158  -0.000615   0.020635
     8  Si  -0.001732   0.000049   0.000087
     9  Si  -0.000050   0.000047   0.000071
    10  O    0.000000  -0.000000  -0.000000
    11  O   -0.000000   0.000000   0.000000
    12  O    0.000000   0.000000   0.000000
    13  O    0.002394  -0.000008   0.000210
    14  O    0.000166  -0.000006   0.002036
    15  O   -0.000019   0.000000  -0.000033
    16  O    0.003817   0.233487  -0.000007
    17  O   -0.000834  -0.003700   0.231655
    18  O    0.218361   0.003944   0.002096
    19  O    0.000004   0.000103   0.015013
    20  O   -0.000000  -0.000000  -0.000103
    21  O   -0.000000   0.000001   0.001504
    22  H   -0.000000  -0.000000  -0.000000
    23  H   -0.000000  -0.000000  -0.000000
    24  H    0.000000  -0.000000  -0.000000
    25  H   -0.000516  -0.000001   0.000007
    26  H    0.000000   0.000000  -0.000000
    27  H    0.000013  -0.000000  -0.002467
    28  H   -0.000000   0.000000  -0.000002
    29  H    0.000000  -0.000000   0.000093
    30  H   -0.000000  -0.000000  -0.001145
    31  H    0.331298   0.000000  -0.000038
    32  H    0.000000   0.349933   0.000157
    33  H   -0.000038   0.000157   0.268850
 Mulliken charges:
               1
     1  Zr   0.023503
     2  O   -0.544605
     3  O   -0.418063
     4  O   -0.687165
     5  O   -0.366461
     6  Si   2.232918
     7  Si   1.795473
     8  Si   2.016115
     9  Si   1.570458
    10  O   -0.834332
    11  O   -0.785555
    12  O   -0.796503
    13  O   -0.842700
    14  O   -0.881800
    15  O   -0.878675
    16  O   -0.736153
    17  O   -0.968531
    18  O   -1.084226
    19  O   -0.986877
    20  O   -0.805666
    21  O   -0.827716
    22  H    0.383372
    23  H    0.372361
    24  H    0.365650
    25  H    0.414850
    26  H    0.378878
    27  H    0.429660
    28  H    0.375960
    29  H    0.447552
    30  H    0.411527
    31  H    0.402182
    32  H    0.381383
    33  H    0.443187
 Sum of Mulliken charges =  -0.00000
 Mulliken charges with hydrogens summed into heavy atoms:
               1
     1  Zr   0.023503
     2  O   -0.544605
     3  O   -0.418063
     4  O   -0.687165
     5  O   -0.366461
     6  Si   2.232918
     7  Si   1.795473
     8  Si   2.016115
     9  Si   1.570458
    10  O   -0.461971
    11  O   -0.419905
    12  O   -0.413130
    13  O   -0.427851
    14  O   -0.452140
    15  O   -0.499797
    16  O   -0.354770
    17  O   -0.525345
    18  O   -0.682044
    19  O   -0.575350
    20  O   -0.429707
    21  O   -0.380165
 Electronic spatial extent (au):  <R**2>=           9910.6314
 Charge=             -0.0000 electrons
 Dipole moment (field-independent basis, Debye):
    X=              1.0397    Y=             -0.8334    Z=             -2.3912  Tot=              2.7374
 Quadrupole moment (field-independent basis, Debye-Ang):
   XX=           -159.5413   YY=           -155.6658   ZZ=           -157.7988
   XY=             -5.8542   XZ=              2.0716   YZ=              5.5438
 Traceless Quadrupole moment (field-independent basis, Debye-Ang):
   XX=             -1.8727   YY=              2.0028   ZZ=             -0.1301
   XY=             -5.8542   XZ=              2.0716   YZ=              5.5438
 Octapole moment (field-independent basis, Debye-Ang**2):
  XXX=             76.5821  YYY=              6.6985  ZZZ=            -18.0437  XYY=             -4.0874
  XXY=             22.1236  XXZ=             19.4845  XZZ=              5.3578  YZZ=            -16.7240
  YYZ=            -14.0018  XYZ=             29.4654
 Hexadecapole moment (field-independent basis, Debye-Ang**3):
 XXXX=          -5972.2926 YYYY=          -2859.9211 ZZZZ=          -2270.6193 XXXY=             55.8745
 XXXZ=             13.5508 YYYX=            -11.1151 YYYZ=            234.7567 ZZZX=           -178.6222
 ZZZY=            -66.2620 XXYY=          -1509.5268 XXZZ=          -1366.4866 YYZZ=           -930.5296
 XXYZ=            -25.9247 YYXZ=            102.0742 ZZXY=            -62.4424
 N-N= 2.829994165904D+03 E-N=-1.137255002440D+04  KE= 2.373155405620D+03
 1\1\GINC-GRA376\FOpt\RB3LYP\Gen\H12O16Si4Zr1\SARASHS\12-Aug-2020\0\\#n
  B3LYP/Gen Pseudo=cards EmpiricalDispersion=GD3 Opt=modredundant\\Titl
 e\\0,1\Zr,0.656661624,-0.1293484165,-0.0698587881\O,-0.2210999031,-0.9
 130033069,1.4795898431\O,0.1019837891,1.7442136418,-0.1214142935\O,-0.
 2700599717,-0.9836530372,-1.594329543\O,2.5891217026,-0.4368480023,-0.
 0830360403\Si,-1.8331741247,-1.3328598737,-1.9542538863\Si,-1.11389836
 75,2.8410776654,-0.0815319816\Si,-1.7238893241,-1.1562057687,2.1146048
 603\Si,4.2242084979,-0.4729205572,-0.0404869451\O,4.926618271,-0.40662
 79692,-1.5330742151\O,4.7496750959,-1.8998124614,0.6204124151\O,4.6641
 227139,0.8695571332,0.8104081872\O,-2.321711631,-2.626088017,1.6948087
 218\O,-2.7201091094,0.0640046853,1.5478621415\O,-1.6001771937,-1.02288
 48983,3.7440111962\O,-2.0012964657,-1.5591850086,-3.5787640327\O,-2.82
 49198549,-0.1846663315,-1.3032056189\O,-2.3512290218,-2.7136675444,-1.
 1846977302\O,-2.038773017,2.4409645089,-1.4296388699\O,-0.6302948304,4
 .3988900465,-0.2975392907\O,-1.9650937083,2.7624862566,1.3146656912\H,
 5.592313009,1.1248398424,0.7683256034\H,5.163660012,-1.255176326,-1.92
 40357308\H,4.3217333756,-2.1979563253,1.4307734816\H,-2.4103438772,-2.
 8103073293,0.7424137554\H,-2.3857835733,-1.2251830389,4.2635368453\H,-
 3.0556015424,-0.0827388236,0.6423662409\H,-0.5264800012,4.9264446765,0
 .5025852773\H,-2.2688465131,1.8713628146,1.5869334232\H,-2.6461376043,
 3.1288928231,-1.729302516\H,-2.3152519281,-3.5284201522,-1.6984430908\
 H,-1.2707096541,-1.2619061894,-4.1324242911\H,-2.6086868742,0.75640528
 36,-1.4916708194\\Version=ES64L-G16RevB.01\State=1-A\HF=-2416.9468062\
 RMSD=3.635e-09\RMSF=5.170e-05\Dipole=0.3763832,-0.3477278,-0.9472647\Q
 uadrupole=-1.8788891,1.9761682,-0.0972792,-4.0999685,1.7939399,4.07871
 68\PG=C01 [X(H12O16Si4Zr1)]\\@


 THE PROMISED LAND ALWAYS LIES ON THE OTHER SIDE OF A WILDERNESS.

                         -- HAVELOCK ELLIS
 Job cpu time:       0 days 19 hours 45 minutes 15.6 seconds.
 Elapsed time:       0 days  1 hours 28 minutes 48.2 seconds.
 File lengths (MBytes):  RWF=    167 Int=      0 D2E=      0 Chk=     21 Scr=      1
 Normal termination of Gaussian 16 at Wed Aug 12 21:11:58 2020.
