 Entering Gaussian System, Link 0=g16
 Initial command:
 /opt/software/gaussian/g16.b01/l1.exe "/localscratch/sarashs.35791952.0/Gau-16723.inp" -scrdir="/localscratch/sarashs.35791952.0/"
 Entering Link 1 = /opt/software/gaussian/g16.b01/l1.exe PID=     16724.
  
 Copyright (c) 1988-2017, Gaussian, Inc.  All Rights Reserved.
  
 This is part of the Gaussian(R) 16 program.  It is based on
 the Gaussian(R) 09 system (copyright 2009, Gaussian, Inc.),
 the Gaussian(R) 03 system (copyright 2003, Gaussian, Inc.),
 the Gaussian(R) 98 system (copyright 1998, Gaussian, Inc.),
 the Gaussian(R) 94 system (copyright 1995, Gaussian, Inc.),
 the Gaussian 92(TM) system (copyright 1992, Gaussian, Inc.),
 the Gaussian 90(TM) system (copyright 1990, Gaussian, Inc.),
 the Gaussian 88(TM) system (copyright 1988, Gaussian, Inc.),
 the Gaussian 86(TM) system (copyright 1986, Carnegie Mellon
 University), and the Gaussian 82(TM) system (copyright 1983,
 Carnegie Mellon University). Gaussian is a federally registered
 trademark of Gaussian, Inc.
  
 This software contains proprietary and confidential information,
 including trade secrets, belonging to Gaussian, Inc.
  
 This software is provided under written license and may be
 used, copied, transmitted, or stored only in accord with that
 written license.
  
 The following legend is applicable only to US Government
 contracts under FAR:
  
                    RESTRICTED RIGHTS LEGEND
  
 Use, reproduction and disclosure by the US Government is
 subject to restrictions as set forth in subparagraphs (a)
 and (c) of the Commercial Computer Software - Restricted
 Rights clause in FAR 52.227-19.
  
 Gaussian, Inc.
 340 Quinnipiac St., Bldg. 40, Wallingford CT 06492
  
  
 ---------------------------------------------------------------
 Warning -- This program may not be used in any manner that
 competes with the business of Gaussian, Inc. or will provide
 assistance to any competitor of Gaussian, Inc.  The licensee
 of this program is prohibited from giving any competitor of
 Gaussian, Inc. access to this program.  By using this program,
 the user acknowledges that Gaussian, Inc. is engaged in the
 business of creating and licensing software in the field of
 computational chemistry and represents and warrants to the
 licensee that it is not a competitor of Gaussian, Inc. and that
 it will not use this program in any manner prohibited above.
 ---------------------------------------------------------------
  

 Cite this work as:
 Gaussian 16, Revision B.01,
 M. J. Frisch, G. W. Trucks, H. B. Schlegel, G. E. Scuseria, 
 M. A. Robb, J. R. Cheeseman, G. Scalmani, V. Barone, 
 G. A. Petersson, H. Nakatsuji, X. Li, M. Caricato, A. V. Marenich, 
 J. Bloino, B. G. Janesko, R. Gomperts, B. Mennucci, H. P. Hratchian, 
 J. V. Ortiz, A. F. Izmaylov, J. L. Sonnenberg, D. Williams-Young, 
 F. Ding, F. Lipparini, F. Egidi, J. Goings, B. Peng, A. Petrone, 
 T. Henderson, D. Ranasinghe, V. G. Zakrzewski, J. Gao, N. Rega, 
 G. Zheng, W. Liang, M. Hada, M. Ehara, K. Toyota, R. Fukuda, 
 J. Hasegawa, M. Ishida, T. Nakajima, Y. Honda, O. Kitao, H. Nakai, 
 T. Vreven, K. Throssell, J. A. Montgomery, Jr., J. E. Peralta, 
 F. Ogliaro, M. J. Bearpark, J. J. Heyd, E. N. Brothers, K. N. Kudin, 
 V. N. Staroverov, T. A. Keith, R. Kobayashi, J. Normand, 
 K. Raghavachari, A. P. Rendell, J. C. Burant, S. S. Iyengar, 
 J. Tomasi, M. Cossi, J. M. Millam, M. Klene, C. Adamo, R. Cammi, 
 J. W. Ochterski, R. L. Martin, K. Morokuma, O. Farkas, 
 J. B. Foresman, and D. J. Fox, Gaussian, Inc., Wallingford CT, 2016.
 
 ******************************************
 Gaussian 16:  ES64L-G16RevB.01 20-Dec-2017
                20-Jul-2020 
 ******************************************
 %NProcShared=16
 Will use up to   16 processors via shared memory.
 ------------------------------------------------
 #n B3LYP/6-31+G(d,p) EmpiricalDispersion=GD3 Opt
 ------------------------------------------------
 1/18=20,19=15,26=3,38=1/1,3;
 2/9=110,12=2,17=6,18=5,40=1/2;
 3/5=1,6=6,7=111,11=2,25=1,30=1,71=1,74=-5,124=31/1,2,3;
 4//1;
 5/5=2,38=5/2;
 6/7=2,8=2,9=2,10=2,28=1/1;
 7//1,2,3,16;
 1/18=20,19=15,26=3/3(2);
 2/9=110/2;
 99//99;
 2/9=110/2;
 3/5=1,6=6,7=111,11=2,25=1,30=1,71=1,74=-5,124=31/1,2,3;
 4/5=5,16=3,69=1/1;
 5/5=2,38=5/2;
 7//1,2,3,16;
 1/18=20,19=15,26=3/3(-5);
 2/9=110/2;
 6/7=2,8=2,9=2,10=2,19=2,28=1/1;
 99/9=1/99;
 -----
 Title
 -----
 Symbolic Z-matrix:
 Charge =  0 Multiplicity = 1
 Si                   -7.61087   0.06639  -0.07659 
 O                    -5.95608   0.0691   -0.17028 
 O                    -8.1384    1.39801  -0.85259 
 O                    -8.08941   0.04681   1.4985 
 O                    -8.18371  -1.29667  -0.79867 
 Si                   -8.22369  -2.03077  -2.25419 
 Si                   -7.52334   0.21341   3.01833 
 Si                   -4.76389   1.20013  -0.19547 
 Si                   -9.36316   2.41391  -1.1462 
 O                    -5.89282   0.47559   3.00211 
 O                    -7.76509  -1.16717   3.87398 
 O                    -8.24867   1.48216   3.76122 
 O                    -10.45222   1.75453  -2.18432 
 O                    -8.74731   3.75449  -1.87346 
 O                    -10.13112   2.84243   0.23761 
 O                    -3.29494   0.47815  -0.04855 
 O                    -4.92044   2.24508   1.06237 
 O                    -4.78294   2.02984  -1.61324 
 O                    -9.19885  -3.35285  -2.19352 
 O                    -6.71993  -2.54706  -2.66673 
 O                    -8.81432  -1.01592  -3.40252 
 H                    -8.39054   2.25958   3.19992 
 H                    -8.09477  -1.91694   3.35749 
 H                    -11.09743   2.86351   0.15152 
 H                    -7.783     3.83253  -1.79126 
 H                    -10.25024   1.94927  -3.1132 
 H                    -5.40926  -0.25035   3.43055 
 H                    -5.17145   1.82182   1.90503 
 H                    -2.67879   0.97779   0.50894 
 H                    -4.23093   1.64203  -2.30775 
 H                    -5.99878  -1.98294  -2.34986 
 H                    -8.70883  -4.18858  -2.19929 
 H                    -9.78319  -0.97168  -3.40924 
 

 GradGradGradGradGradGradGradGradGradGradGradGradGradGradGradGradGradGrad
 Berny optimization.
 Initialization pass.
                           ----------------------------
                           !    Initial Parameters    !
                           ! (Angstroms and Degrees)  !
 --------------------------                            --------------------------
 ! Name  Definition              Value          Derivative Info.                !
 --------------------------------------------------------------------------------
 ! R1    R(1,2)                  1.6574         estimate D2E/DX2                !
 ! R2    R(1,3)                  1.629          estimate D2E/DX2                !
 ! R3    R(1,4)                  1.6463         estimate D2E/DX2                !
 ! R4    R(1,5)                  1.6454         estimate D2E/DX2                !
 ! R5    R(2,8)                  1.6435         estimate D2E/DX2                !
 ! R6    R(3,9)                  1.6181         estimate D2E/DX2                !
 ! R7    R(4,7)                  1.6304         estimate D2E/DX2                !
 ! R8    R(5,6)                  1.6307         estimate D2E/DX2                !
 ! R9    R(6,19)                 1.6439         estimate D2E/DX2                !
 ! R10   R(6,20)                 1.6426         estimate D2E/DX2                !
 ! R11   R(6,21)                 1.6424         estimate D2E/DX2                !
 ! R12   R(7,10)                 1.6515         estimate D2E/DX2                !
 ! R13   R(7,11)                 1.6421         estimate D2E/DX2                !
 ! R14   R(7,12)                 1.6394         estimate D2E/DX2                !
 ! R15   R(8,16)                 1.6434         estimate D2E/DX2                !
 ! R16   R(8,17)                 1.6427         estimate D2E/DX2                !
 ! R17   R(8,18)                 1.6428         estimate D2E/DX2                !
 ! R18   R(9,13)                 1.6427         estimate D2E/DX2                !
 ! R19   R(9,14)                 1.6448         estimate D2E/DX2                !
 ! R20   R(9,15)                 1.6396         estimate D2E/DX2                !
 ! R21   R(10,27)                0.9718         estimate D2E/DX2                !
 ! R22   R(11,23)                0.9683         estimate D2E/DX2                !
 ! R23   R(12,22)                0.9693         estimate D2E/DX2                !
 ! R24   R(13,26)                0.9703         estimate D2E/DX2                !
 ! R25   R(14,25)                0.9709         estimate D2E/DX2                !
 ! R26   R(15,24)                0.9704         estimate D2E/DX2                !
 ! R27   R(16,29)                0.9696         estimate D2E/DX2                !
 ! R28   R(17,28)                0.9758         estimate D2E/DX2                !
 ! R29   R(18,30)                0.9682         estimate D2E/DX2                !
 ! R30   R(19,32)                0.9688         estimate D2E/DX2                !
 ! R31   R(20,31)                0.9689         estimate D2E/DX2                !
 ! R32   R(21,33)                0.9699         estimate D2E/DX2                !
 ! A1    A(2,1,3)              107.1607         estimate D2E/DX2                !
 ! A2    A(2,1,4)              110.1399         estimate D2E/DX2                !
 ! A3    A(2,1,5)              108.9128         estimate D2E/DX2                !
 ! A4    A(3,1,4)              111.7989         estimate D2E/DX2                !
 ! A5    A(3,1,5)              110.8162         estimate D2E/DX2                !
 ! A6    A(4,1,5)              107.9874         estimate D2E/DX2                !
 ! A7    A(1,2,8)              136.5701         estimate D2E/DX2                !
 ! A8    A(1,3,9)              147.6465         estimate D2E/DX2                !
 ! A9    A(1,4,7)              142.1617         estimate D2E/DX2                !
 ! A10   A(1,5,6)              140.6393         estimate D2E/DX2                !
 ! A11   A(5,6,19)             110.0994         estimate D2E/DX2                !
 ! A12   A(5,6,20)             110.0742         estimate D2E/DX2                !
 ! A13   A(5,6,21)             110.777          estimate D2E/DX2                !
 ! A14   A(19,6,20)            107.4304         estimate D2E/DX2                !
 ! A15   A(19,6,21)            108.0243         estimate D2E/DX2                !
 ! A16   A(20,6,21)            110.3555         estimate D2E/DX2                !
 ! A17   A(4,7,10)             110.4783         estimate D2E/DX2                !
 ! A18   A(4,7,11)             110.4085         estimate D2E/DX2                !
 ! A19   A(4,7,12)             110.3582         estimate D2E/DX2                !
 ! A20   A(10,7,11)            106.4946         estimate D2E/DX2                !
 ! A21   A(10,7,12)            108.5657         estimate D2E/DX2                !
 ! A22   A(11,7,12)            110.45           estimate D2E/DX2                !
 ! A23   A(2,8,16)             110.163          estimate D2E/DX2                !
 ! A24   A(2,8,17)             110.909          estimate D2E/DX2                !
 ! A25   A(2,8,18)             110.6329         estimate D2E/DX2                !
 ! A26   A(16,8,17)            107.2288         estimate D2E/DX2                !
 ! A27   A(16,8,18)            108.0234         estimate D2E/DX2                !
 ! A28   A(17,8,18)            109.7815         estimate D2E/DX2                !
 ! A29   A(3,9,13)             111.3744         estimate D2E/DX2                !
 ! A30   A(3,9,14)             107.9711         estimate D2E/DX2                !
 ! A31   A(3,9,15)             111.436          estimate D2E/DX2                !
 ! A32   A(13,9,14)            107.2152         estimate D2E/DX2                !
 ! A33   A(13,9,15)            109.1322         estimate D2E/DX2                !
 ! A34   A(14,9,15)            109.605          estimate D2E/DX2                !
 ! A35   A(7,10,27)            111.6136         estimate D2E/DX2                !
 ! A36   A(7,11,23)            115.0354         estimate D2E/DX2                !
 ! A37   A(7,12,22)            115.0271         estimate D2E/DX2                !
 ! A38   A(9,13,26)            112.7307         estimate D2E/DX2                !
 ! A39   A(9,14,25)            113.5745         estimate D2E/DX2                !
 ! A40   A(9,15,24)            113.4046         estimate D2E/DX2                !
 ! A41   A(8,16,29)            113.1443         estimate D2E/DX2                !
 ! A42   A(8,17,28)            114.1932         estimate D2E/DX2                !
 ! A43   A(8,18,30)            114.2134         estimate D2E/DX2                !
 ! A44   A(6,19,32)            113.1721         estimate D2E/DX2                !
 ! A45   A(6,20,31)            114.5994         estimate D2E/DX2                !
 ! A46   A(6,21,33)            113.0954         estimate D2E/DX2                !
 ! D1    D(3,1,2,8)             33.2684         estimate D2E/DX2                !
 ! D2    D(4,1,2,8)            -88.5489         estimate D2E/DX2                !
 ! D3    D(5,1,2,8)            153.1995         estimate D2E/DX2                !
 ! D4    D(2,1,3,9)           -165.5585         estimate D2E/DX2                !
 ! D5    D(4,1,3,9)            -44.7872         estimate D2E/DX2                !
 ! D6    D(5,1,3,9)             75.735          estimate D2E/DX2                !
 ! D7    D(2,1,4,7)             10.6308         estimate D2E/DX2                !
 ! D8    D(3,1,4,7)           -108.3913         estimate D2E/DX2                !
 ! D9    D(5,1,4,7)            129.4502         estimate D2E/DX2                !
 ! D10   D(2,1,5,6)            -62.6274         estimate D2E/DX2                !
 ! D11   D(3,1,5,6)             55.0138         estimate D2E/DX2                !
 ! D12   D(4,1,5,6)            177.7748         estimate D2E/DX2                !
 ! D13   D(1,2,8,16)           170.4236         estimate D2E/DX2                !
 ! D14   D(1,2,8,17)            51.8654         estimate D2E/DX2                !
 ! D15   D(1,2,8,18)           -70.2059         estimate D2E/DX2                !
 ! D16   D(1,3,9,13)           -76.034          estimate D2E/DX2                !
 ! D17   D(1,3,9,14)           166.5098         estimate D2E/DX2                !
 ! D18   D(1,3,9,15)            46.0915         estimate D2E/DX2                !
 ! D19   D(1,4,7,10)            -1.1433         estimate D2E/DX2                !
 ! D20   D(1,4,7,11)          -118.6805         estimate D2E/DX2                !
 ! D21   D(1,4,7,12)           118.9289         estimate D2E/DX2                !
 ! D22   D(1,5,6,19)          -172.7528         estimate D2E/DX2                !
 ! D23   D(1,5,6,20)            68.9965         estimate D2E/DX2                !
 ! D24   D(1,5,6,21)           -53.3305         estimate D2E/DX2                !
 ! D25   D(5,6,19,32)         -106.5578         estimate D2E/DX2                !
 ! D26   D(20,6,19,32)          13.3084         estimate D2E/DX2                !
 ! D27   D(21,6,19,32)         132.3576         estimate D2E/DX2                !
 ! D28   D(5,6,20,31)          -33.1291         estimate D2E/DX2                !
 ! D29   D(19,6,20,31)        -153.0115         estimate D2E/DX2                !
 ! D30   D(21,6,20,31)          89.4466         estimate D2E/DX2                !
 ! D31   D(5,6,21,33)          -81.373          estimate D2E/DX2                !
 ! D32   D(19,6,21,33)          39.2892         estimate D2E/DX2                !
 ! D33   D(20,6,21,33)         156.4642         estimate D2E/DX2                !
 ! D34   D(4,7,10,27)         -115.7632         estimate D2E/DX2                !
 ! D35   D(11,7,10,27)           4.1571         estimate D2E/DX2                !
 ! D36   D(12,7,10,27)         123.094          estimate D2E/DX2                !
 ! D37   D(4,7,11,23)            7.379          estimate D2E/DX2                !
 ! D38   D(10,7,11,23)        -112.5865         estimate D2E/DX2                !
 ! D39   D(12,7,11,23)         129.7156         estimate D2E/DX2                !
 ! D40   D(4,7,12,22)          -39.4635         estimate D2E/DX2                !
 ! D41   D(10,7,12,22)          81.7533         estimate D2E/DX2                !
 ! D42   D(11,7,12,22)        -161.8297         estimate D2E/DX2                !
 ! D43   D(2,8,16,29)         -141.0527         estimate D2E/DX2                !
 ! D44   D(17,8,16,29)         -20.2614         estimate D2E/DX2                !
 ! D45   D(18,8,16,29)          98.0013         estimate D2E/DX2                !
 ! D46   D(2,8,17,28)           40.8475         estimate D2E/DX2                !
 ! D47   D(16,8,17,28)         -79.4704         estimate D2E/DX2                !
 ! D48   D(18,8,17,28)         163.4141         estimate D2E/DX2                !
 ! D49   D(2,8,18,30)          -90.2949         estimate D2E/DX2                !
 ! D50   D(16,8,18,30)          30.3579         estimate D2E/DX2                !
 ! D51   D(17,8,18,30)         146.9751         estimate D2E/DX2                !
 ! D52   D(3,9,13,26)          -90.0881         estimate D2E/DX2                !
 ! D53   D(14,9,13,26)          27.8249         estimate D2E/DX2                !
 ! D54   D(15,9,13,26)         146.4643         estimate D2E/DX2                !
 ! D55   D(3,9,14,25)          -15.5222         estimate D2E/DX2                !
 ! D56   D(13,9,14,25)        -135.6298         estimate D2E/DX2                !
 ! D57   D(15,9,14,25)         106.0372         estimate D2E/DX2                !
 ! D58   D(3,9,15,24)         -138.3505         estimate D2E/DX2                !
 ! D59   D(13,9,15,24)         -14.9395         estimate D2E/DX2                !
 ! D60   D(14,9,15,24)         102.1966         estimate D2E/DX2                !
 --------------------------------------------------------------------------------
 Trust Radius=3.00D-01 FncErr=1.00D-07 GrdErr=1.00D-06 EigMax=2.50D+02 EigMin=1.00D-04
 Number of steps in this run=    148 maximum allowed number of steps=    198.
 GradGradGradGradGradGradGradGradGradGradGradGradGradGradGradGradGradGrad

                          Input orientation:                          
 ---------------------------------------------------------------------
 Center     Atomic      Atomic             Coordinates (Angstroms)
 Number     Number       Type             X           Y           Z
 ---------------------------------------------------------------------
      1         14           0       -7.610870    0.066390   -0.076590
      2          8           0       -5.956080    0.069100   -0.170280
      3          8           0       -8.138400    1.398010   -0.852590
      4          8           0       -8.089410    0.046810    1.498500
      5          8           0       -8.183710   -1.296670   -0.798670
      6         14           0       -8.223690   -2.030770   -2.254190
      7         14           0       -7.523340    0.213410    3.018330
      8         14           0       -4.763890    1.200130   -0.195470
      9         14           0       -9.363160    2.413910   -1.146200
     10          8           0       -5.892820    0.475590    3.002110
     11          8           0       -7.765090   -1.167170    3.873980
     12          8           0       -8.248670    1.482160    3.761220
     13          8           0      -10.452220    1.754530   -2.184320
     14          8           0       -8.747310    3.754490   -1.873460
     15          8           0      -10.131120    2.842430    0.237610
     16          8           0       -3.294940    0.478150   -0.048550
     17          8           0       -4.920440    2.245080    1.062370
     18          8           0       -4.782940    2.029840   -1.613240
     19          8           0       -9.198850   -3.352850   -2.193520
     20          8           0       -6.719930   -2.547060   -2.666730
     21          8           0       -8.814320   -1.015920   -3.402520
     22          1           0       -8.390540    2.259580    3.199920
     23          1           0       -8.094770   -1.916940    3.357490
     24          1           0      -11.097430    2.863510    0.151520
     25          1           0       -7.783000    3.832530   -1.791260
     26          1           0      -10.250240    1.949270   -3.113200
     27          1           0       -5.409260   -0.250350    3.430550
     28          1           0       -5.171450    1.821820    1.905030
     29          1           0       -2.678790    0.977790    0.508940
     30          1           0       -4.230930    1.642030   -2.307750
     31          1           0       -5.998780   -1.982940   -2.349860
     32          1           0       -8.708830   -4.188580   -2.199290
     33          1           0       -9.783190   -0.971680   -3.409240
 ---------------------------------------------------------------------
                    Distance matrix (angstroms):
                    1          2          3          4          5
     1  Si   0.000000
     2  O    1.657442   0.000000
     3  O    1.629011   2.644630   0.000000
     4  O    1.646297   2.708583   2.712151   0.000000
     5  O    1.645442   2.687478   2.695600   2.662860   0.000000
     6  Si   3.084732   3.727491   3.705171   4.291509   1.630656
     7  Si   3.099646   3.555891   4.094581   1.630360   4.157634
     8  Si   3.066724   1.643527   3.443585   3.906247   4.277035
     9  Si   3.118563   4.249559   1.618115   3.770947   3.909000
    10  O    3.549301   3.198952   4.555458   2.696239   4.778599
    11  O    4.141553   4.599665   5.390730   2.687347   4.693151
    12  O    4.140046   4.765438   4.615895   2.684305   5.340291
    13  O    3.919900   5.206948   2.693395   4.697057   4.046725
    14  O    4.257032   4.926854   2.639308   5.054685   5.194905
    15  O    3.762550   5.028786   2.691806   3.684279   4.690248
    16  O    4.335618   2.695145   4.995170   5.056319   5.254782
    17  O    3.644494   2.706818   3.839253   3.881362   5.162983
    18  O    3.770095   2.702386   3.498129   4.954602   4.826430
    19  O    4.323688   5.130185   5.049091   5.139996   2.684025
    20  O    3.785858   3.695947   4.568013   5.094387   2.682494
    21  O    3.698851   4.449065   3.575761   5.067039   2.693794
    22  H    4.019140   4.699260   4.150749   2.807465   5.355223
    23  H    3.995080   4.578593   5.358691   2.704106   4.203131
    24  H    4.475714   5.860526   3.451345   4.335474   5.167177
    25  H    4.141682   4.486493   2.633306   5.024747   5.239704
    26  H    4.442129   5.534946   3.142310   5.436572   4.490403
    27  H    4.153004   3.656096   5.339530   3.317277   5.165139
    28  H    3.599878   2.827469   4.072699   3.439537   5.109666
    29  H    5.049644   3.468096   5.642490   5.578599   6.098127
    30  H    4.345654   3.165285   4.176764   5.649791   5.151480
    31  H    3.459240   2.993870   4.272074   4.827058   2.766058
    32  H    4.880178   5.460985   5.774857   5.656488   3.255861
    33  H    4.111340   5.120630   3.854507   5.290758   3.078803
                    6          7          8          9         10
     6  Si   0.000000
     7  Si   5.772894   0.000000
     8  Si   5.162098   4.349332   0.000000
     9  Si   4.720298   5.056723   4.850818   0.000000
    10  O    6.272439   1.651544   3.467558   5.745330   0.000000
    11  O    6.205690   1.642127   5.583165   6.370257   2.638979
    12  O    6.966094   1.639425   5.280022   5.117911   2.671977
    13  O    4.393145   6.166114   6.051445   1.642719   7.023024
    14  O    5.821372   6.161733   5.020761   1.644790   6.532265
    15  O    5.796157   4.630839   5.629553   1.639610   5.586374
    16  O    5.954167   5.230221   1.643367   6.463381   4.006933
    17  O    6.339868   3.837779   1.642739   4.964277   2.799859
    18  O    5.360796   5.679846   1.642819   4.619962   4.994896
    19  O    1.643932   6.533676   6.662635   5.863395   7.251300
    20  O    1.642571   6.370680   4.896392   5.823221   6.477366
    21  O    1.642384   6.663722   5.621568   4.141973   7.195766
    22  H    6.941344   2.229758   5.079734   4.456295   3.075769
    23  H    5.614315   2.231581   5.782250   6.375602   3.270945
    24  H    6.164398   5.292991   6.557512   2.212218   6.396561
    25  H    5.898033   6.024750   4.311740   2.219345   6.149652
    26  H    4.548134   6.931440   6.258945   2.207236   7.652180
    27  H    6.588413   2.203255   3.958335   6.608952   0.971792
    28  H    6.438768   3.059053   2.228162   5.218334   1.880504
    29  H    6.887107   5.509172   2.212074   7.034396   4.098547
    30  H    5.425354   6.422464   2.222847   5.318344   5.684811
    31  H    2.227480   5.997141   4.037113   5.665699   5.890601
    32  H    2.212356   6.928669   6.972520   6.717888   7.532527
    33  H    2.210849   6.915563   6.343378   4.093897   7.637734
                   11         12         13         14         15
    11  O    0.000000
    12  O    2.695462   0.000000
    13  O    7.242927   6.346595   0.000000
    14  O    7.630240   6.096043   2.646354   0.000000
    15  O    5.907468   4.220163   2.674393   2.683915   0.000000
    16  O    6.170540   6.329441   7.577421   6.617631   7.239134
    17  O    5.257436   4.352350   6.432902   5.053944   5.309260
    18  O    7.015959   6.418416   5.704618   4.331092   5.717428
    19  O    6.606619   7.729107   5.258931   7.128857   6.720195
    20  O    6.765896   7.738876   5.715451   6.667014   7.008424
    21  O    7.353313   7.607860   3.441238   5.009923   5.465471
    22  H    3.547980   0.969312   5.787542   5.301059   3.484912
    23  H    0.968301   3.426451   7.053291   7.742982   6.044169
    24  H    6.419313   4.801406   2.665011   3.227608   0.970366
    25  H    7.555942   6.047406   3.405483   0.970948   3.257342
    26  H    8.044181   7.175104   0.970329   2.656045   3.469849
    27  H    2.566539   3.342631   7.808825   7.437328   6.485069
    28  H    4.420158   3.609722   6.679359   5.549682   5.331066
    29  H    6.464889   6.469565   8.263364   7.086101   7.686854
    30  H    7.654781   7.280123   6.223531   5.004876   6.536976
    31  H    6.520852   7.376600   5.816289   6.379614   6.859696
    32  H    6.848662   8.239947   6.193560   7.949843   7.576047
    33  H    7.560174   7.732501   3.062720   5.076254   5.288479
                   16         17         18         19         20
    16  O    0.000000
    17  O    2.645456   0.000000
    18  O    2.658974   2.687773   0.000000
    19  O    7.357555   7.761600   6.986440   0.000000
    20  O    5.266623   6.333163   5.080333   2.649202   0.000000
    21  O    6.629096   6.762519   5.360056   2.659095   2.696710
    22  H    6.300094   4.075650   6.019474   7.825722   7.766100
    23  H    6.354206   5.715449   7.159151   5.839053   6.211156
    24  H    8.161423   6.274337   6.609249   6.909917   7.508616
    25  H    5.867843   4.342517   3.504532   7.334585   6.526541
    26  H    7.741607   6.777142   5.669898   5.483038   5.734057
    27  H    4.135843   3.474823   5.570580   7.457658   6.646018
    28  H    3.023775   0.975823   3.545763   7.732740   6.510445
    29  H    0.969575   2.633876   3.168265   8.280635   6.232195
    30  H    2.708261   3.492392   0.968223   7.045715   4.885945
    31  H    4.320155   5.539159   4.257144   3.484472   0.968863
    32  H    7.464198   8.147534   7.377318   0.968812   2.620842
    33  H    7.449405   7.347733   6.102232   2.736677   3.523735
                   21         22         23         24         25
    21  O    0.000000
    22  H    7.382459   0.000000
    23  H    6.857647   4.189944   0.000000
    24  H    5.735309   4.121253   6.492065   0.000000
    25  H    5.212221   5.268316   7.724198   3.962176   0.000000
    26  H    3.307253   6.588646   7.839864   3.494562   3.373643
    27  H    7.672769   3.903968   3.161459   7.266598   7.040728
    28  H    7.035152   3.497272   4.963242   6.267149   4.952344
    29  H    7.544477   6.442705   6.769530   8.634650   6.284379
    30  H    5.410239   6.929513   7.725961   7.395191   4.205027
    31  H    3.157608   7.383735   6.080409   7.466004   6.108614
    32  H    3.394799   8.416148   6.034503   7.807925   8.084668
    33  H    0.969903   7.487424   7.037962   5.395824   5.449684
                   26         27         28         29         30
    26  H    0.000000
    27  H    8.431731   0.000000
    28  H    7.140937   2.584116   0.000000
    29  H    8.449291   4.183252   2.979062   0.000000
    30  H    6.080727   6.156107   4.320234   3.283915   0.000000
    31  H    5.841222   6.063212   5.767561   5.287816   4.033296
    32  H    6.394089   7.621805   8.092182   8.389712   7.352507
    33  H    2.972831   8.150724   7.570552   8.344164   6.234770
                   31         32         33
    31  H    0.000000
    32  H    3.497412   0.000000
    33  H    4.057917   3.600927   0.000000
 Stoichiometry    H12O16Si5
 Framework group  C1[X(H12O16Si5)]
 Deg. of freedom    93
 Full point group                 C1      NOp   1
 Largest Abelian subgroup         C1      NOp   1
 Largest concise Abelian subgroup C1      NOp   1
                         Standard orientation:                         
 ---------------------------------------------------------------------
 Center     Atomic      Atomic             Coordinates (Angstroms)
 Number     Number       Type             X           Y           Z
 ---------------------------------------------------------------------
      1         14           0        0.111999   -0.156636   -0.346372
      2          8           0       -0.563818   -1.275514    0.672696
      3          8           0        0.626197    1.084242    0.575310
      4          8           0       -0.992262    0.330128   -1.466176
      5          8           0        1.371165   -0.853609   -1.143997
      6         14           0        2.826193   -1.531069   -0.855932
      7         14           0       -2.579113    0.246189   -1.830776
      8         14           0       -1.408918   -1.249486    2.082061
      9         14           0        1.141602    2.616691    0.640549
     10          8           0       -3.383305   -0.657435   -0.706349
     11          8           0       -2.795941   -0.505368   -3.274635
     12          8           0       -3.237352    1.747346   -1.861853
     13          8           0        2.701418    2.745496    0.141639
     14          8           0        1.091152    3.102644    2.211103
     15          8           0        0.202475    3.604076   -0.271279
     16          8           0       -1.995886   -2.747168    2.418326
     17          8           0       -2.696536   -0.235017    1.974904
     18          8           0       -0.441982   -0.790856    3.328474
     19          8           0        3.597065   -1.838623   -2.274974
     20          8           0        2.636269   -2.965353   -0.078244
     21          8           0        3.773535   -0.522525    0.028834
     22          1           0       -2.921575    2.347974   -1.169685
     23          1           0       -1.996097   -0.892604   -3.659217
     24          1           0        0.709346    4.257950   -0.778370
     25          1           0        0.560156    2.522293    2.780292
     26          1           0        3.336861    2.646487    0.868238
     27          1           0       -3.757474   -1.464762   -1.096989
     28          1           0       -3.171668   -0.280411    1.123776
     29          1           0       -2.889376   -2.730701    2.794463
     30          1           0        0.002790   -1.524735    3.776866
     31          1           0        1.879372   -2.999591    0.525603
     32          1           0        3.617385   -2.780370   -2.501466
     33          1           0        4.208042    0.159110   -0.507159
 ---------------------------------------------------------------------
 Rotational constants (GHZ):           0.2100721           0.1631884           0.1534391
 Standard basis: 6-31+G(d,p) (6D, 7F)
 There are   479 symmetry adapted cartesian basis functions of A   symmetry.
 There are   479 symmetry adapted basis functions of A   symmetry.
   479 basis functions,   876 primitive gaussians,   479 cartesian basis functions
   105 alpha electrons      105 beta electrons
       nuclear repulsion energy      3019.6021836569 Hartrees.
 NAtoms=   33 NActive=   33 NUniq=   33 SFac= 1.00D+00 NAtFMM=   60 NAOKFM=F Big=F
 Integral buffers will be    131072 words long.
 Raffenetti 2 integral format.
 Two-electron integral symmetry is turned on.
 Nuclear repulsion after empirical dispersion term =     3019.5647737953 Hartrees.
 One-electron integrals computed using PRISM.
 NBasis=   479 RedAO= T EigKep=  4.98D-05  NBF=   479
 NBsUse=   479 1.00D-06 EigRej= -1.00D+00 NBFU=   479
 ExpMin= 3.31D-02 ExpMax= 1.61D+04 ExpMxC= 2.43D+03 IAcc=3 IRadAn=         5 AccDes= 0.00D+00
 Harris functional with IExCor=  402 and IRadAn=       5 diagonalized for initial guess.
 HarFok:  IExCor=  402 AccDes= 0.00D+00 IRadAn=         5 IDoV= 1 UseB2=F ITyADJ=14
 ICtDFT=  3500011 ScaDFX=  1.000000  1.000000  1.000000  1.000000
 FoFCou: FMM=F IPFlag=           0 FMFlag=      100000 FMFlg1=           0
         NFxFlg=           0 DoJE=T BraDBF=F KetDBF=T FulRan=T
         wScrn=  0.000000 ICntrl=       500 IOpCl=  0 I1Cent=   200000004 NGrid=           0
         NMat0=    1 NMatS0=      1 NMatT0=    0 NMatD0=    1 NMtDS0=    0 NMtDT0=    0
 Petite list used in FoFCou.
 Requested convergence on RMS density matrix=1.00D-08 within 128 cycles.
 Requested convergence on MAX density matrix=1.00D-06.
 Requested convergence on             energy=1.00D-06.
 No special actions if energy rises.
 SCF Done:  E(RB3LYP) =  -2659.40877166     A.U. after   12 cycles
            NFock= 12  Conv=0.55D-08     -V/T= 2.0063

 **********************************************************************

            Population analysis using the SCF Density.

 **********************************************************************

 Orbital symmetries:
       Occupied  (A) (A) (A) (A) (A) (A) (A) (A) (A) (A) (A) (A)
                 (A) (A) (A) (A) (A) (A) (A) (A) (A) (A) (A) (A)
                 (A) (A) (A) (A) (A) (A) (A) (A) (A) (A) (A) (A)
                 (A) (A) (A) (A) (A) (A) (A) (A) (A) (A) (A) (A)
                 (A) (A) (A) (A) (A) (A) (A) (A) (A) (A) (A) (A)
                 (A) (A) (A) (A) (A) (A) (A) (A) (A) (A) (A) (A)
                 (A) (A) (A) (A) (A) (A) (A) (A) (A) (A) (A) (A)
                 (A) (A) (A) (A) (A) (A) (A) (A) (A) (A) (A) (A)
                 (A) (A) (A) (A) (A) (A) (A) (A) (A)
       Virtual   (A) (A) (A) (A) (A) (A) (A) (A) (A) (A) (A) (A)
                 (A) (A) (A) (A) (A) (A) (A) (A) (A) (A) (A) (A)
                 (A) (A) (A) (A) (A) (A) (A) (A) (A) (A) (A) (A)
                 (A) (A) (A) (A) (A) (A) (A) (A) (A) (A) (A) (A)
                 (A) (A) (A) (A) (A) (A) (A) (A) (A) (A) (A) (A)
                 (A) (A) (A) (A) (A) (A) (A) (A) (A) (A) (A) (A)
                 (A) (A) (A) (A) (A) (A) (A) (A) (A) (A) (A) (A)
                 (A) (A) (A) (A) (A) (A) (A) (A) (A) (A) (A) (A)
                 (A) (A) (A) (A) (A) (A) (A) (A) (A) (A) (A) (A)
                 (A) (A) (A) (A) (A) (A) (A) (A) (A) (A) (A) (A)
                 (A) (A) (A) (A) (A) (A) (A) (A) (A) (A) (A) (A)
                 (A) (A) (A) (A) (A) (A) (A) (A) (A) (A) (A) (A)
                 (A) (A) (A) (A) (A) (A) (A) (A) (A) (A) (A) (A)
                 (A) (A) (A) (A) (A) (A) (A) (A) (A) (A) (A) (A)
                 (A) (A) (A) (A) (A) (A) (A) (A) (A) (A) (A) (A)
                 (A) (A) (A) (A) (A) (A) (A) (A) (A) (A) (A) (A)
                 (A) (A) (A) (A) (A) (A) (A) (A) (A) (A) (A) (A)
                 (A) (A) (A) (A) (A) (A) (A) (A) (A) (A) (A) (A)
                 (A) (A) (A) (A) (A) (A) (A) (A) (A) (A) (A) (A)
                 (A) (A) (A) (A) (A) (A) (A) (A) (A) (A) (A) (A)
                 (A) (A) (A) (A) (A) (A) (A) (A) (A) (A) (A) (A)
                 (A) (A) (A) (A) (A) (A) (A) (A) (A) (A) (A) (A)
                 (A) (A) (A) (A) (A) (A) (A) (A) (A) (A) (A) (A)
                 (A) (A) (A) (A) (A) (A) (A) (A) (A) (A) (A) (A)
                 (A) (A) (A) (A) (A) (A) (A) (A) (A) (A) (A) (A)
                 (A) (A) (A) (A) (A) (A) (A) (A) (A) (A) (A) (A)
                 (A) (A) (A) (A) (A) (A) (A) (A) (A) (A) (A) (A)
                 (A) (A) (A) (A) (A) (A) (A) (A) (A) (A) (A) (A)
                 (A) (A) (A) (A) (A) (A) (A) (A) (A) (A) (A) (A)
                 (A) (A) (A) (A) (A) (A) (A) (A) (A) (A) (A) (A)
                 (A) (A) (A) (A) (A) (A) (A) (A) (A) (A) (A) (A)
                 (A) (A)
 The electronic state is 1-A.
 Alpha  occ. eigenvalues --  -66.26208 -66.24078 -66.22787 -66.22763 -66.22694
 Alpha  occ. eigenvalues --  -19.19283 -19.18566 -19.18522 -19.18017 -19.17778
 Alpha  occ. eigenvalues --  -19.17691 -19.17619 -19.17597 -19.17595 -19.17560
 Alpha  occ. eigenvalues --  -19.17408 -19.17070 -19.17066 -19.16935 -19.16731
 Alpha  occ. eigenvalues --  -19.16000  -5.39070  -5.37438  -5.36201  -5.36138
 Alpha  occ. eigenvalues --   -5.36096  -3.75110  -3.75097  -3.75046  -3.73509
 Alpha  occ. eigenvalues --   -3.73417  -3.73322  -3.72240  -3.72226  -3.72152
 Alpha  occ. eigenvalues --   -3.72135  -3.72131  -3.72080  -3.72063  -3.72036
 Alpha  occ. eigenvalues --   -3.72016  -1.07087  -1.05978  -1.05187  -1.04947
 Alpha  occ. eigenvalues --   -1.03639  -1.02802  -1.02150  -1.01593  -1.01440
 Alpha  occ. eigenvalues --   -1.01394  -1.01300  -1.01062  -1.00919  -1.00669
 Alpha  occ. eigenvalues --   -1.00601  -0.99991  -0.64458  -0.60951  -0.60162
 Alpha  occ. eigenvalues --   -0.59782  -0.57292  -0.55690  -0.55128  -0.54296
 Alpha  occ. eigenvalues --   -0.54069  -0.53741  -0.52658  -0.52475  -0.52351
 Alpha  occ. eigenvalues --   -0.52220  -0.51348  -0.50825  -0.44421  -0.44115
 Alpha  occ. eigenvalues --   -0.43087  -0.42984  -0.42365  -0.42023  -0.41422
 Alpha  occ. eigenvalues --   -0.40615  -0.40468  -0.40256  -0.39778  -0.39280
 Alpha  occ. eigenvalues --   -0.39106  -0.38850  -0.38459  -0.37874  -0.37433
 Alpha  occ. eigenvalues --   -0.36928  -0.36711  -0.36552  -0.36137  -0.35951
 Alpha  occ. eigenvalues --   -0.35608  -0.35295  -0.34370  -0.34278  -0.33780
 Alpha  occ. eigenvalues --   -0.33529  -0.33251  -0.32642  -0.32511  -0.32317
 Alpha virt. eigenvalues --   -0.04518  -0.02404  -0.01955  -0.01399   0.00586
 Alpha virt. eigenvalues --    0.00781   0.01498   0.01883   0.02060   0.03217
 Alpha virt. eigenvalues --    0.03775   0.04623   0.05688   0.05981   0.06394
 Alpha virt. eigenvalues --    0.06716   0.07084   0.07417   0.08009   0.08279
 Alpha virt. eigenvalues --    0.09211   0.09835   0.09946   0.10550   0.10840
 Alpha virt. eigenvalues --    0.11143   0.11725   0.12092   0.12257   0.12565
 Alpha virt. eigenvalues --    0.12920   0.13217   0.13921   0.14097   0.14383
 Alpha virt. eigenvalues --    0.14821   0.15016   0.15213   0.15581   0.15815
 Alpha virt. eigenvalues --    0.16226   0.16467   0.16757   0.16994   0.17488
 Alpha virt. eigenvalues --    0.17739   0.18250   0.18573   0.18729   0.19187
 Alpha virt. eigenvalues --    0.19779   0.20166   0.20276   0.20588   0.20742
 Alpha virt. eigenvalues --    0.20858   0.21583   0.21639   0.22240   0.22304
 Alpha virt. eigenvalues --    0.22621   0.23337   0.23425   0.23763   0.24128
 Alpha virt. eigenvalues --    0.25012   0.25131   0.25532   0.25722   0.26231
 Alpha virt. eigenvalues --    0.26454   0.26727   0.26999   0.27067   0.27379
 Alpha virt. eigenvalues --    0.27894   0.28145   0.28526   0.28784   0.29089
 Alpha virt. eigenvalues --    0.29334   0.29666   0.29935   0.30781   0.30964
 Alpha virt. eigenvalues --    0.31242   0.31585   0.31945   0.32133   0.32821
 Alpha virt. eigenvalues --    0.33434   0.33884   0.34778   0.34960   0.35207
 Alpha virt. eigenvalues --    0.35610   0.36134   0.36744   0.37793   0.38038
 Alpha virt. eigenvalues --    0.38888   0.38987   0.39189   0.40236   0.40952
 Alpha virt. eigenvalues --    0.41246   0.41731   0.42135   0.43213   0.43500
 Alpha virt. eigenvalues --    0.44281   0.44695   0.45312   0.46075   0.46673
 Alpha virt. eigenvalues --    0.47896   0.48186   0.49059   0.49597   0.50212
 Alpha virt. eigenvalues --    0.51811   0.52575   0.52623   0.53511   0.54677
 Alpha virt. eigenvalues --    0.55712   0.57760   0.58543   0.59945   0.61549
 Alpha virt. eigenvalues --    0.63208   0.65265   0.66748   0.67235   0.68128
 Alpha virt. eigenvalues --    0.69708   0.70964   0.71101   0.72920   0.73500
 Alpha virt. eigenvalues --    0.75704   0.76347   0.78515   0.78689   0.81755
 Alpha virt. eigenvalues --    0.91588   0.93028   0.94223   0.95165   0.95746
 Alpha virt. eigenvalues --    0.95900   0.96664   0.97053   0.97332   0.97589
 Alpha virt. eigenvalues --    0.98413   0.98918   1.00068   1.00629   1.01475
 Alpha virt. eigenvalues --    1.01843   1.02997   1.03242   1.04336   1.05318
 Alpha virt. eigenvalues --    1.05510   1.05605   1.06416   1.07316   1.08588
 Alpha virt. eigenvalues --    1.09069   1.09972   1.14874   1.16863   1.17773
 Alpha virt. eigenvalues --    1.18692   1.19023   1.19785   1.20665   1.21015
 Alpha virt. eigenvalues --    1.21619   1.22052   1.22241   1.22394   1.22957
 Alpha virt. eigenvalues --    1.23401   1.23625   1.24146   1.24623   1.25271
 Alpha virt. eigenvalues --    1.25414   1.25969   1.26489   1.26853   1.27032
 Alpha virt. eigenvalues --    1.27766   1.27981   1.28534   1.29265   1.29655
 Alpha virt. eigenvalues --    1.30245   1.30950   1.32226   1.32732   1.33114
 Alpha virt. eigenvalues --    1.34064   1.34577   1.34946   1.35251   1.35661
 Alpha virt. eigenvalues --    1.36470   1.37251   1.38164   1.39019   1.39820
 Alpha virt. eigenvalues --    1.40819   1.42785   1.46546   1.47679   1.50779
 Alpha virt. eigenvalues --    1.51869   1.52893   1.53936   1.54279   1.55732
 Alpha virt. eigenvalues --    1.57335   1.57690   1.57864   1.58055   1.59132
 Alpha virt. eigenvalues --    1.59950   1.60527   1.61645   1.62022   1.62610
 Alpha virt. eigenvalues --    1.63141   1.64916   1.65082   1.66352   1.66742
 Alpha virt. eigenvalues --    1.67990   1.68575   1.68780   1.69125   1.70256
 Alpha virt. eigenvalues --    1.71015   1.71734   1.73101   1.73512   1.73857
 Alpha virt. eigenvalues --    1.74398   1.75337   1.76369   1.77880   1.78134
 Alpha virt. eigenvalues --    1.79615   1.80928   1.82557   1.82973   1.83133
 Alpha virt. eigenvalues --    1.84969   1.85304   1.88822   1.90419   1.91081
 Alpha virt. eigenvalues --    1.92026   1.92837   1.93304   1.94648   1.95437
 Alpha virt. eigenvalues --    1.95971   1.98220   2.00414   2.02794   2.04100
 Alpha virt. eigenvalues --    2.05154   2.06682   2.07685   2.08356   2.13807
 Alpha virt. eigenvalues --    2.16107   2.17684   2.20222   2.21440   2.25216
 Alpha virt. eigenvalues --    2.35701   2.36638   2.37393   2.37834   2.38206
 Alpha virt. eigenvalues --    2.38494   2.38827   2.39156   2.39878   2.40355
 Alpha virt. eigenvalues --    2.40658   2.43763   2.46570   2.47008   2.49103
 Alpha virt. eigenvalues --    2.51411   2.52356   2.58446   2.58610   2.59497
 Alpha virt. eigenvalues --    2.60034   2.60510   2.61197   2.61446   2.61828
 Alpha virt. eigenvalues --    2.62109   2.62212   2.62332   2.62516   2.62922
 Alpha virt. eigenvalues --    2.63822   2.64085   2.64336   2.64951   2.66260
 Alpha virt. eigenvalues --    2.67824   2.68535   2.69378   2.69630   2.71359
 Alpha virt. eigenvalues --    2.72295   2.74073   2.74863   2.76718   2.78035
 Alpha virt. eigenvalues --    2.78315   2.78418   2.78641   2.79239   2.80214
 Alpha virt. eigenvalues --    2.80838   2.81553   2.82967   2.86801   2.88226
 Alpha virt. eigenvalues --    2.95261   3.00618   3.01208   3.01359   3.03081
 Alpha virt. eigenvalues --    3.06720   3.40690   3.42135   3.42334   3.42604
 Alpha virt. eigenvalues --    3.44091   3.44379   3.45967   3.46572   3.48977
 Alpha virt. eigenvalues --    3.49412   3.49929   3.59150   4.17341   4.19771
 Alpha virt. eigenvalues --    4.20573   4.23370   4.24483   4.25023   4.28315
 Alpha virt. eigenvalues --    4.29105   4.32278   4.34658   4.36017   4.42357
 Alpha virt. eigenvalues --    4.45220   4.48594   4.57241   4.62570
          Condensed to atoms (all electrons):
               1          2          3          4          5          6
     1  Si  18.514088  -1.709272  -1.540912  -0.701284  -1.081895  -0.211337
     2  O   -1.709272  10.090629   0.650654   0.114283   0.263801  -0.005849
     3  O   -1.540912   0.650654  10.239336   0.179026   0.197422  -0.018470
     4  O   -0.701284   0.114283   0.179026   9.214254   0.358162  -0.039084
     5  O   -1.081895   0.263801   0.197422   0.358162   9.551078  -0.733245
     6  Si  -0.211337  -0.005849  -0.018470  -0.039084  -0.733245  13.600874
     7  Si  -0.495097  -0.072717   0.045525  -0.440737   0.032023  -0.006894
     8  Si  -0.026590  -0.607966  -0.183083  -0.036657  -0.023472   0.023534
     9  Si  -1.035178   0.089497  -1.120978  -0.029449   0.028587  -0.029445
    10  O    0.128374  -0.012467  -0.015314   0.191682  -0.008863   0.001674
    11  O    0.072477  -0.005974  -0.003787   0.198098  -0.015055  -0.002390
    12  O    0.043640  -0.004598  -0.008272   0.209619   0.001443   0.001659
    13  O    0.035452  -0.001162   0.123086  -0.010863  -0.012779   0.008781
    14  O    0.097679  -0.007981   0.429122   0.000033  -0.002720   0.003086
    15  O    0.112460   0.001978   0.070075  -0.021222  -0.025237   0.001466
    16  O    0.011063   0.260644   0.000017  -0.000973  -0.000876  -0.000583
    17  O   -0.102467   0.153219   0.028148   0.012653   0.005753  -0.004507
    18  O   -0.189400   0.068088   0.064167  -0.011749  -0.004086  -0.002918
    19  O   -0.043097   0.002231   0.008230  -0.003417   0.232649  -0.297403
    20  O    0.083947   0.007875  -0.036939   0.004844   0.165705  -0.270450
    21  O    0.048497  -0.024692   0.001105   0.005042   0.085067  -0.171249
    22  H   -0.005684   0.000118   0.001294  -0.009259  -0.000064  -0.000003
    23  H   -0.004370   0.000539  -0.000009   0.016955   0.000193  -0.000013
    24  H   -0.005676  -0.000007   0.004014   0.000076   0.000153   0.000060
    25  H   -0.005438  -0.000014   0.004394   0.000066  -0.000154  -0.000130
    26  H   -0.006329   0.000019  -0.023077   0.000223   0.000299   0.001319
    27  H   -0.007098  -0.001771   0.000205  -0.011546   0.000276   0.000102
    28  H   -0.006453  -0.006813  -0.001745  -0.003066   0.000205  -0.000264
    29  H    0.002549  -0.001984   0.000108   0.000047  -0.000038   0.000095
    30  H    0.007711  -0.021694  -0.003784   0.000089   0.000301   0.000226
    31  H   -0.007560   0.007174  -0.000506   0.000031  -0.002239   0.032178
    32  H    0.000171  -0.000031   0.000067   0.000029  -0.021228   0.059902
    33  H   -0.007665   0.000271  -0.001340  -0.000067  -0.027556   0.088434
               7          8          9         10         11         12
     1  Si  -0.495097  -0.026590  -1.035178   0.128374   0.072477   0.043640
     2  O   -0.072717  -0.607966   0.089497  -0.012467  -0.005974  -0.004598
     3  O    0.045525  -0.183083  -1.120978  -0.015314  -0.003787  -0.008272
     4  O   -0.440737  -0.036657  -0.029449   0.191682   0.198098   0.209619
     5  O    0.032023  -0.023472   0.028587  -0.008863  -0.015055   0.001443
     6  Si  -0.006894   0.023534  -0.029445   0.001674  -0.002390   0.001659
     7  Si  13.579078   0.050316  -0.002323  -0.474223  -0.392531  -0.340291
     8  Si   0.050316  12.828453   0.049589  -0.012185  -0.001632   0.003403
     9  Si  -0.002323   0.049589  14.773208  -0.002290   0.002293   0.006801
    10  O   -0.474223  -0.012185  -0.002290   8.871585   0.077680   0.044353
    11  O   -0.392531  -0.001632   0.002293   0.077680   8.747751   0.055292
    12  O   -0.340291   0.003403   0.006801   0.044353   0.055292   8.594233
    13  O   -0.001083   0.000162  -0.179424  -0.000006  -0.000013  -0.000142
    14  O    0.000200  -0.006924  -0.674581  -0.000202  -0.000020  -0.000145
    15  O    0.007329  -0.006194  -0.246128  -0.000757   0.000370  -0.004153
    16  O   -0.011891  -0.170737   0.001216   0.010009   0.000203  -0.000235
    17  O   -0.012068  -0.101366  -0.007834  -0.014629  -0.000990  -0.008686
    18  O    0.010887  -0.042777   0.017127  -0.002823  -0.000003   0.000205
    19  O    0.000003   0.000828   0.007199  -0.000012   0.000030  -0.000005
    20  O    0.000222  -0.001158  -0.008684   0.000085   0.000011   0.000003
    21  O   -0.000996  -0.005868   0.002379   0.000051  -0.000004   0.000017
    22  H    0.063500   0.000125  -0.000221  -0.008735   0.005854   0.227797
    23  H    0.015861  -0.000146  -0.000094  -0.008259   0.250924   0.000478
    24  H    0.001037   0.000263   0.044961  -0.000004  -0.000001   0.000104
    25  H   -0.000313   0.004013   0.030731   0.000001   0.000000   0.000005
    26  H   -0.000016   0.000108   0.074853   0.000000  -0.000000  -0.000000
    27  H    0.057085   0.003496   0.000077   0.222686   0.003309   0.001327
    28  H    0.016556   0.035927   0.000581   0.006456   0.000654   0.000796
    29  H   -0.000275   0.031703  -0.000048  -0.000393  -0.000003  -0.000002
    30  H   -0.000242   0.066173  -0.000820   0.000007   0.000000   0.000000
    31  H    0.000268   0.004741  -0.000258  -0.000003  -0.000002   0.000000
    32  H    0.000049   0.000038  -0.000155   0.000000  -0.000001  -0.000000
    33  H    0.000043   0.000168  -0.000528  -0.000000  -0.000000  -0.000000
              13         14         15         16         17         18
     1  Si   0.035452   0.097679   0.112460   0.011063  -0.102467  -0.189400
     2  O   -0.001162  -0.007981   0.001978   0.260644   0.153219   0.068088
     3  O    0.123086   0.429122   0.070075   0.000017   0.028148   0.064167
     4  O   -0.010863   0.000033  -0.021222  -0.000973   0.012653  -0.011749
     5  O   -0.012779  -0.002720  -0.025237  -0.000876   0.005753  -0.004086
     6  Si   0.008781   0.003086   0.001466  -0.000583  -0.004507  -0.002918
     7  Si  -0.001083   0.000200   0.007329  -0.011891  -0.012068   0.010887
     8  Si   0.000162  -0.006924  -0.006194  -0.170737  -0.101366  -0.042777
     9  Si  -0.179424  -0.674581  -0.246128   0.001216  -0.007834   0.017127
    10  O   -0.000006  -0.000202  -0.000757   0.010009  -0.014629  -0.002823
    11  O   -0.000013  -0.000020   0.000370   0.000203  -0.000990  -0.000003
    12  O   -0.000142  -0.000145  -0.004153  -0.000235  -0.008686   0.000205
    13  O    8.611525   0.049357   0.049153   0.000009  -0.000053  -0.000645
    14  O    0.049357   8.770424   0.022151  -0.000167   0.002192  -0.001362
    15  O    0.049153   0.022151   8.687722  -0.000038   0.000437   0.000576
    16  O    0.000009  -0.000167  -0.000038   8.688641  -0.042725  -0.081125
    17  O   -0.000053   0.002192   0.000437  -0.042725   8.655624   0.172893
    18  O   -0.000645  -0.001362   0.000576  -0.081125   0.172893   8.624541
    19  O   -0.001523  -0.000086  -0.000052  -0.000006   0.000024   0.000020
    20  O    0.000303  -0.000070   0.000037   0.000298  -0.000086  -0.001963
    21  O    0.009444   0.000733  -0.000492   0.000062   0.000023   0.000526
    22  H   -0.000004   0.000015   0.001634  -0.000006  -0.000014   0.000005
    23  H   -0.000000   0.000000   0.000010  -0.000004  -0.000008   0.000000
    24  H   -0.000275  -0.001058   0.224713  -0.000000   0.000008  -0.000002
    25  H    0.001535   0.241133  -0.006097   0.000003  -0.000441   0.000209
    26  H    0.231328  -0.005481   0.005742  -0.000000   0.000001   0.000019
    27  H    0.000000   0.000000  -0.000000  -0.000312  -0.000064   0.000045
    28  H    0.000002   0.000021  -0.000004  -0.008567   0.229277   0.002392
    29  H   -0.000000  -0.000000   0.000000   0.236307   0.004057  -0.004005
    30  H    0.000005   0.000050  -0.000004   0.000332   0.000973   0.230036
    31  H    0.000011   0.000002  -0.000000  -0.000345  -0.000016  -0.000227
    32  H    0.000002   0.000000   0.000000  -0.000000  -0.000000  -0.000000
    33  H    0.001614  -0.000002   0.000025  -0.000000   0.000000   0.000002
              19         20         21         22         23         24
     1  Si  -0.043097   0.083947   0.048497  -0.005684  -0.004370  -0.005676
     2  O    0.002231   0.007875  -0.024692   0.000118   0.000539  -0.000007
     3  O    0.008230  -0.036939   0.001105   0.001294  -0.000009   0.004014
     4  O   -0.003417   0.004844   0.005042  -0.009259   0.016955   0.000076
     5  O    0.232649   0.165705   0.085067  -0.000064   0.000193   0.000153
     6  Si  -0.297403  -0.270450  -0.171249  -0.000003  -0.000013   0.000060
     7  Si   0.000003   0.000222  -0.000996   0.063500   0.015861   0.001037
     8  Si   0.000828  -0.001158  -0.005868   0.000125  -0.000146   0.000263
     9  Si   0.007199  -0.008684   0.002379  -0.000221  -0.000094   0.044961
    10  O   -0.000012   0.000085   0.000051  -0.008735  -0.008259  -0.000004
    11  O    0.000030   0.000011  -0.000004   0.005854   0.250924  -0.000001
    12  O   -0.000005   0.000003   0.000017   0.227797   0.000478   0.000104
    13  O   -0.001523   0.000303   0.009444  -0.000004  -0.000000  -0.000275
    14  O   -0.000086  -0.000070   0.000733   0.000015   0.000000  -0.001058
    15  O   -0.000052   0.000037  -0.000492   0.001634   0.000010   0.224713
    16  O   -0.000006   0.000298   0.000062  -0.000006  -0.000004  -0.000000
    17  O    0.000024  -0.000086   0.000023  -0.000014  -0.000008   0.000008
    18  O    0.000020  -0.001963   0.000526   0.000005   0.000000  -0.000002
    19  O    8.689347   0.022819   0.013648  -0.000000   0.000003  -0.000000
    20  O    0.022819   8.615353   0.100526  -0.000000   0.000002   0.000000
    21  O    0.013648   0.100526   8.546540  -0.000000  -0.000001   0.000013
    22  H   -0.000000  -0.000000  -0.000000   0.352561  -0.000060  -0.000008
    23  H    0.000003   0.000002  -0.000001  -0.000060   0.339980  -0.000000
    24  H   -0.000000   0.000000   0.000013  -0.000008  -0.000000   0.353295
    25  H    0.000000  -0.000000   0.000085  -0.000000  -0.000000   0.000011
    26  H    0.000022  -0.000023  -0.001131   0.000000   0.000000   0.000048
    27  H    0.000000  -0.000002  -0.000000  -0.000019   0.000253   0.000000
    28  H   -0.000000   0.000000  -0.000001   0.000150  -0.000002  -0.000000
    29  H   -0.000000  -0.000000   0.000000   0.000000   0.000000  -0.000000
    30  H    0.000001   0.000008  -0.000009  -0.000000  -0.000000  -0.000000
    31  H    0.006858   0.238216  -0.007955   0.000000   0.000000   0.000000
    32  H    0.238510  -0.001337   0.003648   0.000000   0.000000  -0.000000
    33  H   -0.007914   0.004206   0.231058   0.000000   0.000000  -0.000000
              25         26         27         28         29         30
     1  Si  -0.005438  -0.006329  -0.007098  -0.006453   0.002549   0.007711
     2  O   -0.000014   0.000019  -0.001771  -0.006813  -0.001984  -0.021694
     3  O    0.004394  -0.023077   0.000205  -0.001745   0.000108  -0.003784
     4  O    0.000066   0.000223  -0.011546  -0.003066   0.000047   0.000089
     5  O   -0.000154   0.000299   0.000276   0.000205  -0.000038   0.000301
     6  Si  -0.000130   0.001319   0.000102  -0.000264   0.000095   0.000226
     7  Si  -0.000313  -0.000016   0.057085   0.016556  -0.000275  -0.000242
     8  Si   0.004013   0.000108   0.003496   0.035927   0.031703   0.066173
     9  Si   0.030731   0.074853   0.000077   0.000581  -0.000048  -0.000820
    10  O    0.000001   0.000000   0.222686   0.006456  -0.000393   0.000007
    11  O    0.000000  -0.000000   0.003309   0.000654  -0.000003   0.000000
    12  O    0.000005  -0.000000   0.001327   0.000796  -0.000002   0.000000
    13  O    0.001535   0.231328   0.000000   0.000002  -0.000000   0.000005
    14  O    0.241133  -0.005481   0.000000   0.000021  -0.000000   0.000050
    15  O   -0.006097   0.005742  -0.000000  -0.000004   0.000000  -0.000004
    16  O    0.000003  -0.000000  -0.000312  -0.008567   0.236307   0.000332
    17  O   -0.000441   0.000001  -0.000064   0.229277   0.004057   0.000973
    18  O    0.000209   0.000019   0.000045   0.002392  -0.004005   0.230036
    19  O    0.000000   0.000022   0.000000  -0.000000  -0.000000   0.000001
    20  O   -0.000000  -0.000023  -0.000002   0.000000  -0.000000   0.000008
    21  O    0.000085  -0.001131  -0.000000  -0.000001   0.000000  -0.000009
    22  H   -0.000000   0.000000  -0.000019   0.000150   0.000000  -0.000000
    23  H   -0.000000   0.000000   0.000253  -0.000002   0.000000  -0.000000
    24  H    0.000011   0.000048   0.000000  -0.000000  -0.000000  -0.000000
    25  H    0.341052   0.000234  -0.000000   0.000000  -0.000000  -0.000015
    26  H    0.000234   0.345511   0.000000  -0.000000   0.000000   0.000000
    27  H   -0.000000   0.000000   0.322488   0.000718  -0.000009  -0.000000
    28  H    0.000000  -0.000000   0.000718   0.303414  -0.000296  -0.000030
    29  H   -0.000000   0.000000  -0.000009  -0.000296   0.353863   0.000011
    30  H   -0.000015   0.000000  -0.000000  -0.000030   0.000011   0.354842
    31  H   -0.000000  -0.000000   0.000000   0.000000   0.000000   0.000028
    32  H    0.000000   0.000000  -0.000000  -0.000000   0.000000  -0.000000
    33  H   -0.000001   0.000124  -0.000000   0.000000  -0.000000  -0.000000
              31         32         33
     1  Si  -0.007560   0.000171  -0.007665
     2  O    0.007174  -0.000031   0.000271
     3  O   -0.000506   0.000067  -0.001340
     4  O    0.000031   0.000029  -0.000067
     5  O   -0.002239  -0.021228  -0.027556
     6  Si   0.032178   0.059902   0.088434
     7  Si   0.000268   0.000049   0.000043
     8  Si   0.004741   0.000038   0.000168
     9  Si  -0.000258  -0.000155  -0.000528
    10  O   -0.000003   0.000000  -0.000000
    11  O   -0.000002  -0.000001  -0.000000
    12  O    0.000000  -0.000000  -0.000000
    13  O    0.000011   0.000002   0.001614
    14  O    0.000002   0.000000  -0.000002
    15  O   -0.000000   0.000000   0.000025
    16  O   -0.000345  -0.000000  -0.000000
    17  O   -0.000016  -0.000000   0.000000
    18  O   -0.000227  -0.000000   0.000002
    19  O    0.006858   0.238510  -0.007914
    20  O    0.238216  -0.001337   0.004206
    21  O   -0.007955   0.003648   0.231058
    22  H    0.000000   0.000000   0.000000
    23  H    0.000000   0.000000   0.000000
    24  H    0.000000  -0.000000  -0.000000
    25  H   -0.000000   0.000000  -0.000001
    26  H   -0.000000   0.000000   0.000124
    27  H    0.000000  -0.000000  -0.000000
    28  H    0.000000  -0.000000   0.000000
    29  H    0.000000   0.000000  -0.000000
    30  H    0.000028  -0.000000  -0.000000
    31  H    0.351799   0.000060   0.000013
    32  H    0.000060   0.343067  -0.000051
    33  H    0.000013  -0.000051   0.354330
 Mulliken charges:
               1
     1  Si   2.034695
     2  O   -1.226026
     3  O   -1.087780
     4  O   -1.185837
     5  O   -0.963608
     6  Si   1.970845
     7  Si   2.371718
     8  Si   2.123714
     9  Si   2.209341
    10  O   -0.993478
    11  O   -0.992538
    12  O   -0.824648
    13  O   -0.913796
    14  O   -0.915400
    15  O   -0.875498
    16  O   -0.890211
    17  O   -0.969327
    18  O   -0.848652
    19  O   -0.868905
    20  O   -0.923746
    21  O   -0.836065
    22  H    0.371023
    23  H    0.387768
    24  H    0.378280
    25  H    0.389130
    26  H    0.376208
    27  H    0.408753
    28  H    0.430091
    29  H    0.378312
    30  H    0.365806
    31  H    0.377732
    32  H    0.377259
    33  H    0.364838
 Sum of Mulliken charges =  -0.00000
 Mulliken charges with hydrogens summed into heavy atoms:
               1
     1  Si   2.034695
     2  O   -1.226026
     3  O   -1.087780
     4  O   -1.185837
     5  O   -0.963608
     6  Si   1.970845
     7  Si   2.371718
     8  Si   2.123714
     9  Si   2.209341
    10  O   -0.584724
    11  O   -0.604770
    12  O   -0.453625
    13  O   -0.537589
    14  O   -0.526270
    15  O   -0.497218
    16  O   -0.511899
    17  O   -0.539237
    18  O   -0.482846
    19  O   -0.491647
    20  O   -0.546014
    21  O   -0.471227
 Electronic spatial extent (au):  <R**2>=           8572.5182
 Charge=             -0.0000 electrons
 Dipole moment (field-independent basis, Debye):
    X=              0.1118    Y=             -2.0753    Z=             -0.0897  Tot=              2.0802
 Quadrupole moment (field-independent basis, Debye-Ang):
   XX=           -155.6204   YY=           -147.9269   ZZ=           -151.9397
   XY=             13.0500   XZ=             -4.5159   YZ=             -0.8829
 Traceless Quadrupole moment (field-independent basis, Debye-Ang):
   XX=             -3.7914   YY=              3.9021   ZZ=             -0.1107
   XY=             13.0500   XZ=             -4.5159   YZ=             -0.8829
 Octapole moment (field-independent basis, Debye-Ang**2):
  XXX=              1.3536  YYY=             11.6034  ZZZ=             25.9871  XYY=              0.0805
  XXY=            -16.8689  XXZ=             31.9713  XZZ=             24.2250  YZZ=            -54.7700
  YYZ=            -33.6751  XYZ=              0.7740
 Hexadecapole moment (field-independent basis, Debye-Ang**3):
 XXXX=          -4599.6577 YYYY=          -3035.6818 ZZZZ=          -2526.1850 XXXY=            318.4591
 XXXZ=           -147.0376 YYYX=             17.4937 YYYZ=            -61.8456 ZZZX=            -63.9008
 ZZZY=            -35.3695 XXYY=          -1186.4121 XXZZ=          -1323.8842 YYZZ=           -869.9799
 XXYZ=             64.9379 YYXZ=            -97.4364 ZZXY=             32.0199
 N-N= 3.019564773795D+03 E-N=-1.234133114267D+04  KE= 2.642749785667D+03
 Calling FoFJK, ICntrl=      2127 FMM=F ISym2X=0 I1Cent= 0 IOpClX= 0 NMat=1 NMatS=1 NMatT=0.
 ***** Axes restored to original set *****
 -------------------------------------------------------------------
 Center     Atomic                   Forces (Hartrees/Bohr)
 Number     Number              X              Y              Z
 -------------------------------------------------------------------
      1       14           0.007637062   -0.008858536   -0.001901787
      2        8          -0.010980415   -0.006704934   -0.002333517
      3        8           0.008162884   -0.007588069    0.011430956
      4        8           0.001973209    0.000140946   -0.016182966
      5        8           0.004697839    0.015244321    0.016056415
      6       14          -0.002961898   -0.007515991   -0.009047797
      7       14          -0.008343334    0.002667890    0.008566599
      8       14           0.003376790    0.008262812    0.009785835
      9       14          -0.005112058    0.013743687   -0.008641308
     10        8           0.011987994   -0.004797784    0.003702267
     11        8          -0.002284345   -0.005267083   -0.002429215
     12        8          -0.001230802    0.001882783   -0.005066607
     13        8          -0.005547778   -0.001664219   -0.007082435
     14        8           0.013327169   -0.000070385   -0.001119069
     15        8          -0.009723732   -0.006871621    0.004097265
     16        8           0.008851847   -0.009891565    0.001112067
     17        8          -0.006284585    0.004995481   -0.001910715
     18        8          -0.002739041    0.001588759   -0.005873886
     19        8           0.002848237   -0.006429602    0.001923028
     20        8           0.007661658    0.005646110    0.001766162
     21        8          -0.006711511    0.003685812   -0.000318448
     22        1          -0.001881573   -0.002226459    0.003490424
     23        1          -0.000472627    0.002860008    0.003930631
     24        1           0.005183031    0.000751740    0.003190663
     25        1          -0.004510484    0.002232810   -0.002571731
     26        1          -0.002167240   -0.001897089    0.004434181
     27        1           0.000756735    0.006261801   -0.003940355
     28        1           0.000618782   -0.000670728   -0.002033617
     29        1          -0.003454053   -0.003644431   -0.003537447
     30        1          -0.001906116    0.003715592    0.002734455
     31        1          -0.000468304   -0.004210295   -0.001411431
     32        1          -0.004420317    0.002179923    0.000634851
     33        1           0.004116975    0.002448317   -0.001453468
 -------------------------------------------------------------------
 Cartesian Forces:  Max     0.016182966 RMS     0.006037068

 GradGradGradGradGradGradGradGradGradGradGradGradGradGradGradGradGradGrad
 Berny optimization.
 FormGI is forming the generalized inverse of G from B-inverse, IUseBI=4.
 Internal  Forces:  Max     0.014385696 RMS     0.004788234
 Search for a local minimum.
 Step number   1 out of a maximum of  148
 All quantities printed in internal units (Hartrees-Bohrs-Radians)
 Mixed Optimization -- RFO/linear search
 Second derivative matrix not updated -- first step.
 ITU=  0
     Eigenvalues ---    0.03579   0.03657   0.03727   0.03738   0.03747
     Eigenvalues ---    0.03758   0.03763   0.03766   0.03773   0.03774
     Eigenvalues ---    0.03774   0.03776   0.03779   0.03782   0.03815
     Eigenvalues ---    0.03818   0.03934   0.03938   0.03955   0.04100
     Eigenvalues ---    0.11710   0.11737   0.11798   0.11804   0.11847
     Eigenvalues ---    0.12202   0.12230   0.12307   0.12318   0.12423
     Eigenvalues ---    0.12578   0.12761   0.12821   0.12829   0.12859
     Eigenvalues ---    0.16000   0.16000   0.16000   0.16000   0.16000
     Eigenvalues ---    0.16000   0.16000   0.16000   0.16000   0.16000
     Eigenvalues ---    0.16000   0.16000   0.20548   0.20621   0.20644
     Eigenvalues ---    0.20671   0.20679   0.20816   0.20841   0.20880
     Eigenvalues ---    0.20883   0.20940   0.25000   0.25000   0.25000
     Eigenvalues ---    0.25000   0.41541   0.42416   0.43215   0.43347
     Eigenvalues ---    0.43448   0.43582   0.43645   0.43670   0.43756
     Eigenvalues ---    0.43768   0.43771   0.43795   0.43824   0.43864
     Eigenvalues ---    0.44263   0.44292   0.45719   0.45768   0.45994
     Eigenvalues ---    0.47868   0.52205   0.53012   0.53184   0.53302
     Eigenvalues ---    0.53310   0.53397   0.53464   0.53518   0.53610
     Eigenvalues ---    0.53620   0.53726   0.53742
 RFO step:  Lambda=-1.34380267D-02 EMin= 3.57931747D-02
 Linear search not attempted -- first point.
 Iteration  1 RMS(Cart)=  0.13535841 RMS(Int)=  0.00456320
 Iteration  2 RMS(Cart)=  0.01053621 RMS(Int)=  0.00024630
 Iteration  3 RMS(Cart)=  0.00004944 RMS(Int)=  0.00024538
 Iteration  4 RMS(Cart)=  0.00000001 RMS(Int)=  0.00024538
 Variable       Old X    -DE/DX   Delta X   Delta X   Delta X     New X
                                 (Linear)    (Quad)   (Total)
    R1        3.13211  -0.01238   0.00000  -0.02888  -0.02888   3.10324
    R2        3.07838  -0.00277   0.00000  -0.00585  -0.00585   3.07253
    R3        3.11105  -0.00775   0.00000  -0.01740  -0.01740   3.09365
    R4        3.10943  -0.01439   0.00000  -0.03219  -0.03219   3.07724
    R5        3.10582   0.00188   0.00000   0.00417   0.00417   3.10999
    R6        3.05779   0.01178   0.00000   0.02393   0.02393   3.08172
    R7        3.08093   0.00733   0.00000   0.01555   0.01555   3.09649
    R8        3.08149   0.00894   0.00000   0.01900   0.01900   3.10050
    R9        3.10658   0.00445   0.00000   0.00990   0.00990   3.11648
   R10        3.10401   0.00604   0.00000   0.01339   0.01339   3.11740
   R11        3.10366   0.00596   0.00000   0.01320   0.01320   3.11686
   R12        3.12097   0.01282   0.00000   0.02929   0.02929   3.15026
   R13        3.10317   0.00321   0.00000   0.00710   0.00710   3.11027
   R14        3.09807   0.00040   0.00000   0.00087   0.00087   3.09894
   R15        3.10551   0.01056   0.00000   0.02345   0.02345   3.12896
   R16        3.10433   0.00027   0.00000   0.00060   0.00060   3.10492
   R17        3.10448   0.00544   0.00000   0.01207   0.01207   3.11654
   R18        3.10429   0.00822   0.00000   0.01822   0.01822   3.12250
   R19        3.10820   0.00670   0.00000   0.01495   0.01495   3.12315
   R20        3.09841   0.00668   0.00000   0.01464   0.01464   3.11306
   R21        1.83642  -0.00604   0.00000  -0.01111  -0.01111   1.82531
   R22        1.82982  -0.00415   0.00000  -0.00754  -0.00754   1.82229
   R23        1.83174  -0.00353   0.00000  -0.00644  -0.00644   1.82530
   R24        1.83366  -0.00508   0.00000  -0.00929  -0.00929   1.82437
   R25        1.83483  -0.00452   0.00000  -0.00829  -0.00829   1.82654
   R26        1.83373  -0.00543   0.00000  -0.00993  -0.00993   1.82379
   R27        1.83223  -0.00611   0.00000  -0.01114  -0.01114   1.82109
   R28        1.84404  -0.00162   0.00000  -0.00303  -0.00303   1.84100
   R29        1.82968  -0.00454   0.00000  -0.00823  -0.00823   1.82144
   R30        1.83079  -0.00412   0.00000  -0.00750  -0.00750   1.82329
   R31        1.83089  -0.00326   0.00000  -0.00594  -0.00594   1.82495
   R32        1.83285  -0.00399   0.00000  -0.00729  -0.00729   1.82556
    A1        1.87031  -0.00098   0.00000  -0.00303  -0.00290   1.86741
    A2        1.92230   0.00788   0.00000   0.04346   0.04353   1.96583
    A3        1.90089  -0.00281   0.00000  -0.00987  -0.00989   1.89100
    A4        1.95126  -0.00496   0.00000  -0.02560  -0.02566   1.92560
    A5        1.93411   0.00257   0.00000   0.00423   0.00406   1.93817
    A6        1.88474  -0.00154   0.00000  -0.00822  -0.00834   1.87639
    A7        2.38360  -0.00227   0.00000  -0.00860  -0.00860   2.37500
    A8        2.57692   0.00461   0.00000   0.01751   0.01751   2.59442
    A9        2.48119   0.01234   0.00000   0.04683   0.04683   2.52802
   A10        2.45462  -0.00360   0.00000  -0.01367  -0.01367   2.44095
   A11        1.92160  -0.00112   0.00000  -0.00627  -0.00616   1.91544
   A12        1.92116  -0.00069   0.00000  -0.00858  -0.00863   1.91252
   A13        1.93342  -0.00327   0.00000  -0.02164  -0.02166   1.91177
   A14        1.87501   0.00174   0.00000   0.01508   0.01494   1.88996
   A15        1.88538   0.00326   0.00000   0.02038   0.02024   1.90562
   A16        1.92607   0.00031   0.00000   0.00266   0.00232   1.92839
   A17        1.92821  -0.00144   0.00000  -0.00416  -0.00420   1.92401
   A18        1.92699   0.00143   0.00000   0.00514   0.00496   1.93196
   A19        1.92611  -0.00209   0.00000  -0.01644  -0.01649   1.90962
   A20        1.85868   0.00286   0.00000   0.02031   0.02031   1.87899
   A21        1.89483   0.00228   0.00000   0.01188   0.01191   1.90674
   A22        1.92772  -0.00288   0.00000  -0.01543  -0.01555   1.91217
   A23        1.92271  -0.01079   0.00000  -0.05091  -0.05069   1.87201
   A24        1.93573   0.00105   0.00000  -0.00102  -0.00088   1.93485
   A25        1.93091   0.00135   0.00000  -0.00804  -0.00817   1.92274
   A26        1.87150   0.01149   0.00000   0.06680   0.06692   1.93841
   A27        1.88536   0.00550   0.00000   0.03127   0.03109   1.91646
   A28        1.91605  -0.00825   0.00000  -0.03535  -0.03625   1.87980
   A29        1.94385   0.00538   0.00000   0.01869   0.01827   1.96212
   A30        1.88445  -0.00432   0.00000  -0.01823  -0.01798   1.86647
   A31        1.94493  -0.00708   0.00000  -0.04436  -0.04426   1.90066
   A32        1.87126   0.00186   0.00000   0.02111   0.02102   1.89228
   A33        1.90472  -0.00453   0.00000  -0.02151  -0.02208   1.88264
   A34        1.91297   0.00926   0.00000   0.04812   0.04804   1.96101
   A35        1.94802   0.00791   0.00000   0.04561   0.04561   1.99363
   A36        2.00775   0.00297   0.00000   0.01711   0.01711   2.02486
   A37        2.00760   0.00442   0.00000   0.02547   0.02547   2.03307
   A38        1.96752   0.00270   0.00000   0.01556   0.01556   1.98308
   A39        1.98225   0.00616   0.00000   0.03549   0.03549   2.01774
   A40        1.97928   0.00523   0.00000   0.03016   0.03016   2.00944
   A41        1.97474   0.00119   0.00000   0.00687   0.00687   1.98161
   A42        1.99305  -0.00278   0.00000  -0.01605  -0.01605   1.97699
   A43        1.99340   0.00281   0.00000   0.01618   0.01618   2.00958
   A44        1.97523   0.00501   0.00000   0.02887   0.02887   2.00409
   A45        2.00014   0.00525   0.00000   0.03026   0.03026   2.03040
   A46        1.97389   0.00521   0.00000   0.03003   0.03003   2.00392
    D1        0.58064   0.00070   0.00000   0.03225   0.03232   0.61296
    D2       -1.54547   0.00269   0.00000   0.03964   0.03959  -1.50588
    D3        2.67383   0.00164   0.00000   0.03009   0.03009   2.70392
    D4       -2.88954  -0.00241   0.00000  -0.00684  -0.00684  -2.89638
    D5       -0.78168   0.00370   0.00000   0.02941   0.02937  -0.75232
    D6        1.32183   0.00014   0.00000   0.00454   0.00458   1.32640
    D7        0.18554   0.00376   0.00000   0.07034   0.07017   0.25571
    D8       -1.89179   0.00296   0.00000   0.06184   0.06210  -1.82968
    D9        2.25933   0.00395   0.00000   0.07837   0.07827   2.33760
   D10       -1.09305   0.00275   0.00000   0.01554   0.01551  -1.07754
   D11        0.96017   0.00134   0.00000   0.00832   0.00834   0.96851
   D12        3.10276  -0.00422   0.00000  -0.02624  -0.02624   3.07652
   D13        2.97445   0.00492   0.00000   0.06523   0.06497   3.03943
   D14        0.90522  -0.00312   0.00000   0.01535   0.01526   0.92048
   D15       -1.22532   0.00571   0.00000   0.06646   0.06680  -1.15852
   D16       -1.32704   0.00362   0.00000   0.03070   0.03073  -1.29632
   D17        2.90614   0.00093   0.00000   0.00553   0.00584   2.91199
   D18        0.80445  -0.00340   0.00000  -0.01516  -0.01549   0.78896
   D19       -0.01995   0.00303   0.00000   0.04669   0.04665   0.02669
   D20       -2.07137  -0.00049   0.00000   0.02107   0.02107  -2.05030
   D21        2.07570   0.00359   0.00000   0.04819   0.04823   2.12393
   D22       -3.01510   0.00046   0.00000   0.01071   0.01067  -3.00444
   D23        1.20422  -0.00057   0.00000   0.00127   0.00136   1.20557
   D24       -0.93079   0.00171   0.00000   0.01830   0.01825  -0.91254
   D25       -1.85979  -0.00046   0.00000   0.00123   0.00122  -1.85857
   D26        0.23228  -0.00089   0.00000  -0.00365  -0.00381   0.22847
   D27        2.31008   0.00218   0.00000   0.01874   0.01890   2.32898
   D28       -0.57821   0.00180   0.00000   0.02055   0.02053  -0.55768
   D29       -2.67055   0.00251   0.00000   0.02396   0.02401  -2.64654
   D30        1.56114  -0.00258   0.00000  -0.01071  -0.01075   1.55039
   D31       -1.42023   0.00004   0.00000   0.00598   0.00608  -1.41415
   D32        0.68573  -0.00124   0.00000  -0.00186  -0.00198   0.68374
   D33        2.73082   0.00293   0.00000   0.02967   0.02970   2.76051
   D34       -2.02045  -0.00124   0.00000  -0.00422  -0.00423  -2.02468
   D35        0.07256   0.00140   0.00000   0.01186   0.01177   0.08432
   D36        2.14839   0.00077   0.00000   0.01103   0.01114   2.15953
   D37        0.12879   0.00036   0.00000  -0.00897  -0.00891   0.11988
   D38       -1.96500  -0.00041   0.00000  -0.01901  -0.01913  -1.98413
   D39        2.26397  -0.00326   0.00000  -0.03670  -0.03664   2.22732
   D40       -0.68877   0.00088   0.00000   0.01413   0.01428  -0.67449
   D41        1.42686  -0.00074   0.00000   0.00642   0.00642   1.43329
   D42       -2.82446   0.00243   0.00000   0.02919   0.02903  -2.79543
   D43       -2.46183  -0.00110   0.00000  -0.00937  -0.00908  -2.47092
   D44       -0.35363   0.00095   0.00000   0.00077  -0.00059  -0.35422
   D45        1.71045   0.00030   0.00000   0.01149   0.01256   1.72301
   D46        0.71292  -0.00059   0.00000   0.00714   0.00713   0.72006
   D47       -1.38702   0.00479   0.00000   0.02811   0.02767  -1.35935
   D48        2.85211  -0.00382   0.00000  -0.02784  -0.02738   2.82473
   D49       -1.57594   0.00108   0.00000  -0.00967  -0.00930  -1.58525
   D50        0.52985  -0.00788   0.00000  -0.05722  -0.05708   0.47277
   D51        2.56520   0.00445   0.00000   0.02098   0.02047   2.58567
   D52       -1.57233  -0.00239   0.00000  -0.01844  -0.01867  -1.59101
   D53        0.48564  -0.00349   0.00000  -0.01726  -0.01695   0.46869
   D54        2.55628   0.00611   0.00000   0.04022   0.04015   2.59643
   D55       -0.27091   0.00389   0.00000   0.02592   0.02594  -0.24497
   D56       -2.36719  -0.00115   0.00000   0.00202   0.00258  -2.36460
   D57        1.85070  -0.00186   0.00000  -0.01057  -0.01116   1.83954
   D58       -2.41467  -0.00095   0.00000  -0.00031  -0.00113  -2.41580
   D59       -0.26074  -0.00206   0.00000  -0.02156  -0.02100  -0.28175
   D60        1.78367   0.00286   0.00000   0.01901   0.01926   1.80293
         Item               Value     Threshold  Converged?
 Maximum Force            0.014386     0.000450     NO 
 RMS     Force            0.004788     0.000300     NO 
 Maximum Displacement     0.654316     0.001800     NO 
 RMS     Displacement     0.142473     0.001200     NO 
 Predicted change in Energy=-7.315863D-03
 GradGradGradGradGradGradGradGradGradGradGradGradGradGradGradGradGradGrad

                          Input orientation:                          
 ---------------------------------------------------------------------
 Center     Atomic      Atomic             Coordinates (Angstroms)
 Number     Number       Type             X           Y           Z
 ---------------------------------------------------------------------
      1         14           0       -7.565473    0.036011   -0.079884
      2          8           0       -5.929031    0.030344   -0.216717
      3          8           0       -8.101173    1.370613   -0.838476
      4          8           0       -8.067436    0.027338    1.478328
      5          8           0       -8.143725   -1.311339   -0.788392
      6         14           0       -8.188440   -2.033678   -2.260860
      7         14           0       -7.608427    0.253444    3.034979
      8         14           0       -4.737007    1.164905   -0.233873
      9         14           0       -9.319722    2.416311   -1.123244
     10          8           0       -6.002208    0.694219    3.104344
     11          8           0       -7.782766   -1.135677    3.900363
     12          8           0       -8.523332    1.437136    3.706580
     13          8           0      -10.476648    1.780400   -2.116937
     14          8           0       -8.658486    3.734902   -1.868566
     15          8           0      -10.038630    2.800575    0.308295
     16          8           0       -3.291166    0.358148   -0.250621
     17          8           0       -4.848274    2.150234    1.076233
     18          8           0       -4.867347    2.106128   -1.581829
     19          8           0       -9.182228   -3.348661   -2.206447
     20          8           0       -6.674937   -2.545343   -2.671807
     21          8           0       -8.761371   -0.967320   -3.381150
     22          1           0       -8.736789    2.190121    3.140519
     23          1           0       -8.022765   -1.921323    3.395330
     24          1           0      -11.002553    2.842210    0.284739
     25          1           0       -7.694664    3.796801   -1.830331
     26          1           0      -10.323595    1.959680   -3.053130
     27          1           0       -5.435106    0.055693    3.555640
     28          1           0       -5.062088    1.674171    1.898879
     29          1           0       -2.610986    0.776072    0.289166
     30          1           0       -4.371439    1.795451   -2.347721
     31          1           0       -5.939013   -2.012482   -2.344556
[...]
 Alpha virt. eigenvalues --    3.60267   3.60504   3.63303   4.21472   4.22209
 Alpha virt. eigenvalues --    4.24014   4.24468   4.27255   4.30288   4.31371
 Alpha virt. eigenvalues --    4.34119   4.37168   4.38646   4.40405   4.42845
 Alpha virt. eigenvalues --    4.49974   4.55413   4.59379   4.61790
          Condensed to atoms (all electrons):
               1          2          3          4          5          6
     1  Si  20.758658  -1.850966  -1.315400  -1.561287  -2.879975   0.036111
     2  O   -1.850966  10.189517   0.296974   0.202331   0.765970  -0.251078
     3  O   -1.315400   0.296974  10.241491   0.275110   0.193958   0.199156
     4  O   -1.561287   0.202331   0.275110   9.672834   0.629859  -0.009091
     5  O   -2.879975   0.765970   0.193958   0.629859  10.286215  -0.533239
     6  Si   0.036111  -0.251078   0.199156  -0.009091  -0.533239  13.082361
     7  Si  -0.477825   0.045358  -0.057437  -0.678176   0.000423  -0.024734
     8  Si  -0.128735  -0.789916  -0.153986   0.074588   0.101671  -0.049818
     9  Si  -0.871546  -0.008384  -1.153208  -0.031018   0.048646   0.014286
    10  O    0.101786  -0.003065  -0.039271   0.206261   0.005113   0.000213
    11  O    0.011127  -0.004488  -0.005644   0.213278  -0.005595  -0.000565
    12  O   -0.003030  -0.009459   0.053569   0.118261  -0.000851   0.001842
    13  O    0.013761  -0.002544   0.230259  -0.000440  -0.005861  -0.000123
    14  O    0.028439   0.011133   0.222901  -0.009096  -0.003823  -0.002354
    15  O    0.058953  -0.021900   0.365318   0.028560  -0.003645   0.004390
    16  O   -0.040566   0.273604   0.007362  -0.004877  -0.005751   0.001071
    17  O    0.020416   0.227949   0.000508  -0.020853  -0.003042  -0.002504
    18  O   -0.098819   0.168127   0.027825  -0.012606   0.000693  -0.006010
    19  O    0.013443  -0.003486  -0.007273  -0.001552   0.212291  -0.218599
    20  O   -0.204928   0.142332  -0.031827   0.002709   0.288992  -0.260077
    21  O   -0.070639   0.038999  -0.037912   0.016063   0.239119  -0.280524
    22  H   -0.007765   0.000346  -0.002625  -0.008174   0.000130  -0.000158
    23  H   -0.003272   0.000115  -0.000052  -0.022590   0.000126  -0.000017
    24  H   -0.001955  -0.000002  -0.004008  -0.000053   0.000013  -0.000110
    25  H   -0.003082   0.002779  -0.004386  -0.000019   0.000030   0.000538
    26  H   -0.002750  -0.000001  -0.024388   0.000081   0.000203   0.000049
    27  H   -0.002954   0.000020   0.000153  -0.000322   0.000025  -0.000053
    28  H   -0.014302  -0.001391  -0.000168  -0.000176   0.000361  -0.000632
    29  H    0.003931  -0.000418   0.000016   0.000008   0.000037  -0.000139
    30  H    0.003579  -0.017813  -0.003686   0.000008   0.000203  -0.000225
    31  H    0.006539   0.009670   0.001538  -0.003026  -0.015468   0.041987
    32  H   -0.008137   0.000477   0.000061   0.000204  -0.007066   0.052541
    33  H   -0.016926   0.000710   0.001475  -0.000307  -0.017539   0.071429
               7          8          9         10         11         12
     1  Si  -0.477825  -0.128735  -0.871546   0.101786   0.011127  -0.003030
     2  O    0.045358  -0.789916  -0.008384  -0.003065  -0.004488  -0.009459
     3  O   -0.057437  -0.153986  -1.153208  -0.039271  -0.005644   0.053569
     4  O   -0.678176   0.074588  -0.031018   0.206261   0.213278   0.118261
     5  O    0.000423   0.101671   0.048646   0.005113  -0.005595  -0.000851
     6  Si  -0.024734  -0.049818   0.014286   0.000213  -0.000565   0.001842
     7  Si  13.653853  -0.020907   0.056794  -0.393627  -0.367549   0.027613
     8  Si  -0.020907  13.468363  -0.050809   0.014198   0.003349  -0.010429
     9  Si   0.056794  -0.050809  14.653916  -0.010271  -0.001379  -0.036153
    10  O   -0.393627   0.014198  -0.010271   8.888236   0.090516  -0.034023
    11  O   -0.367549   0.003349  -0.001379   0.090516   8.718334   0.006728
    12  O    0.027613  -0.010429  -0.036153  -0.034023   0.006728   8.495111
    13  O   -0.000205  -0.002295  -0.285406   0.000214  -0.000016   0.000551
    14  O   -0.005436   0.033745  -0.195807   0.000519   0.000001  -0.000226
    15  O   -0.024947   0.006369  -0.658260   0.000587  -0.000464   0.012794
    16  O   -0.004679  -0.155322  -0.004673  -0.002118   0.000189  -0.000136
    17  O   -0.002069  -0.363444   0.007372  -0.022765  -0.001083  -0.001087
    18  O    0.000923  -0.216483   0.041165  -0.000268  -0.000104   0.000774
    19  O    0.000339  -0.001430  -0.000438  -0.000022  -0.000017  -0.000023
    20  O   -0.000676   0.020482  -0.001194   0.000494   0.000060  -0.000062
    21  O   -0.001908   0.002924  -0.004867   0.000018  -0.000007   0.000016
    22  H    0.032834   0.000604   0.015537  -0.004689   0.006630   0.226019
    23  H    0.066535   0.000145   0.000119   0.004399   0.237197  -0.003054
    24  H    0.000983  -0.000945   0.050866   0.000020  -0.000005   0.001592
    25  H   -0.000094   0.008220   0.024672  -0.000024   0.000001   0.000012
    26  H    0.000071  -0.000017   0.062094  -0.000000   0.000000   0.000013
    27  H    0.043353  -0.000134  -0.000249   0.220826  -0.002489  -0.006838
    28  H    0.017762   0.016984  -0.001458   0.011215   0.000037   0.001516
    29  H   -0.000041   0.042953   0.000207   0.000064  -0.000000   0.000000
    30  H    0.000152   0.064269   0.000000   0.000003   0.000000  -0.000001
    31  H    0.000736   0.001479   0.000299  -0.000023  -0.000003   0.000004
    32  H   -0.000015   0.000070   0.000019   0.000000  -0.000000   0.000000
    33  H   -0.000025  -0.000613   0.001394   0.000000   0.000000  -0.000000
              13         14         15         16         17         18
     1  Si   0.013761   0.028439   0.058953  -0.040566   0.020416  -0.098819
     2  O   -0.002544   0.011133  -0.021900   0.273604   0.227949   0.168127
     3  O    0.230259   0.222901   0.365318   0.007362   0.000508   0.027825
     4  O   -0.000440  -0.009096   0.028560  -0.004877  -0.020853  -0.012606
     5  O   -0.005861  -0.003823  -0.003645  -0.005751  -0.003042   0.000693
     6  Si  -0.000123  -0.002354   0.004390   0.001071  -0.002504  -0.006010
     7  Si  -0.000205  -0.005436  -0.024947  -0.004679  -0.002069   0.000923
     8  Si  -0.002295   0.033745   0.006369  -0.155322  -0.363444  -0.216483
     9  Si  -0.285406  -0.195807  -0.658260  -0.004673   0.007372   0.041165
    10  O    0.000214   0.000519   0.000587  -0.002118  -0.022765  -0.000268
    11  O   -0.000016   0.000001  -0.000464   0.000189  -0.001083  -0.000104
    12  O    0.000551  -0.000226   0.012794  -0.000136  -0.001087   0.000774
    13  O    8.617551  -0.000831   0.061094  -0.000044   0.000782   0.001018
    14  O   -0.000831   8.569755   0.041871   0.001081  -0.009860  -0.022889
    15  O    0.061094   0.041871   8.994012   0.000525  -0.006277  -0.009266
    16  O   -0.000044   0.001081   0.000525   8.778111  -0.141287  -0.095068
    17  O    0.000782  -0.009860  -0.006277  -0.141287   8.775439   0.221720
    18  O    0.001018  -0.022889  -0.009266  -0.095068   0.221720   8.706138
    19  O   -0.000002   0.000019  -0.000005   0.000165   0.000085   0.000046
    20  O    0.000006   0.000105   0.000028   0.000500  -0.001196  -0.001744
    21  O   -0.000010  -0.000082   0.000237  -0.000367  -0.000159   0.000798
    22  H   -0.000922   0.000367   0.011098  -0.000003  -0.000066   0.000022
    23  H   -0.000000   0.000000   0.000024  -0.000000   0.000014  -0.000000
    24  H   -0.000573  -0.007783   0.213508   0.000000  -0.000211   0.000009
    25  H    0.005772   0.237495  -0.007062   0.000813   0.000007   0.007239
    26  H    0.241881  -0.003061   0.006411   0.000000   0.000010   0.000025
    27  H    0.000000  -0.000002  -0.000067   0.000030   0.001188  -0.000002
    28  H   -0.000019   0.000142   0.000682  -0.002908   0.244965  -0.000377
    29  H    0.000000  -0.000014  -0.000002   0.212838  -0.002392  -0.002948
    30  H    0.000043  -0.001060  -0.000044  -0.002459   0.000880   0.229785
    31  H    0.000001  -0.000004   0.000001   0.001441   0.000517   0.000395
    32  H   -0.000000   0.000000  -0.000000  -0.000001  -0.000000   0.000000
    33  H   -0.000003   0.000011  -0.000001   0.000003   0.000000   0.000018
              19         20         21         22         23         24
     1  Si   0.013443  -0.204928  -0.070639  -0.007765  -0.003272  -0.001955
     2  O   -0.003486   0.142332   0.038999   0.000346   0.000115  -0.000002
     3  O   -0.007273  -0.031827  -0.037912  -0.002625  -0.000052  -0.004008
     4  O   -0.001552   0.002709   0.016063  -0.008174  -0.022590  -0.000053
     5  O    0.212291   0.288992   0.239119   0.000130   0.000126   0.000013
     6  Si  -0.218599  -0.260077  -0.280524  -0.000158  -0.000017  -0.000110
     7  Si   0.000339  -0.000676  -0.001908   0.032834   0.066535   0.000983
     8  Si  -0.001430   0.020482   0.002924   0.000604   0.000145  -0.000945
     9  Si  -0.000438  -0.001194  -0.004867   0.015537   0.000119   0.050866
    10  O   -0.000022   0.000494   0.000018  -0.004689   0.004399   0.000020
    11  O   -0.000017   0.000060  -0.000007   0.006630   0.237197  -0.000005
    12  O   -0.000023  -0.000062   0.000016   0.226019  -0.003054   0.001592
    13  O   -0.000002   0.000006  -0.000010  -0.000922  -0.000000  -0.000573
    14  O    0.000019   0.000105  -0.000082   0.000367   0.000000  -0.007783
    15  O   -0.000005   0.000028   0.000237   0.011098   0.000024   0.213508
    16  O    0.000165   0.000500  -0.000367  -0.000003  -0.000000   0.000000
    17  O    0.000085  -0.001196  -0.000159  -0.000066   0.000014  -0.000211
    18  O    0.000046  -0.001744   0.000798   0.000022  -0.000000   0.000009
    19  O    8.630751  -0.044185  -0.023068   0.000000  -0.000000   0.000000
    20  O   -0.044185   8.666033   0.137823   0.000000   0.000000  -0.000000
    21  O   -0.023068   0.137823   8.683829  -0.000001  -0.000000  -0.000001
    22  H    0.000000   0.000000  -0.000001   0.276377  -0.000025   0.000096
    23  H   -0.000000   0.000000  -0.000000  -0.000025   0.344065   0.000000
    24  H    0.000000  -0.000000  -0.000001   0.000096   0.000000   0.339036
    25  H    0.000000   0.000008  -0.000019   0.000002   0.000000   0.000105
    26  H    0.000001   0.000000   0.000013  -0.000001  -0.000000  -0.000009
    27  H    0.000000   0.000000   0.000000   0.000094   0.000027  -0.000000
    28  H    0.000000   0.000007  -0.000000   0.000002  -0.000002   0.000007
    29  H    0.000000   0.000008  -0.000001   0.000000   0.000000   0.000000
    30  H    0.000000   0.000065   0.000009  -0.000000  -0.000000   0.000000
    31  H    0.005839   0.213261  -0.007940  -0.000000  -0.000000   0.000000
    32  H    0.236905  -0.007424   0.006713  -0.000000   0.000000   0.000000
    33  H   -0.004287   0.004294   0.239330   0.000000   0.000000   0.000000
              25         26         27         28         29         30
     1  Si  -0.003082  -0.002750  -0.002954  -0.014302   0.003931   0.003579
     2  O    0.002779  -0.000001   0.000020  -0.001391  -0.000418  -0.017813
     3  O   -0.004386  -0.024388   0.000153  -0.000168   0.000016  -0.003686
     4  O   -0.000019   0.000081  -0.000322  -0.000176   0.000008   0.000008
     5  O    0.000030   0.000203   0.000025   0.000361   0.000037   0.000203
     6  Si   0.000538   0.000049  -0.000053  -0.000632  -0.000139  -0.000225
     7  Si  -0.000094   0.000071   0.043353   0.017762  -0.000041   0.000152
     8  Si   0.008220  -0.000017  -0.000134   0.016984   0.042953   0.064269
     9  Si   0.024672   0.062094  -0.000249  -0.001458   0.000207   0.000000
    10  O   -0.000024  -0.000000   0.220826   0.011215   0.000064   0.000003
    11  O    0.000001   0.000000  -0.002489   0.000037  -0.000000   0.000000
    12  O    0.000012   0.000013  -0.006838   0.001516   0.000000  -0.000001
    13  O    0.005772   0.241881   0.000000  -0.000019   0.000000   0.000043
    14  O    0.237495  -0.003061  -0.000002   0.000142  -0.000014  -0.001060
    15  O   -0.007062   0.006411  -0.000067   0.000682  -0.000002  -0.000044
    16  O    0.000813   0.000000   0.000030  -0.002908   0.212838  -0.002459
    17  O    0.000007   0.000010   0.001188   0.244965  -0.002392   0.000880
    18  O    0.007239   0.000025  -0.000002  -0.000377  -0.002948   0.229785
    19  O    0.000000   0.000001   0.000000   0.000000   0.000000   0.000000
    20  O    0.000008   0.000000   0.000000   0.000007   0.000008   0.000065
    21  O   -0.000019   0.000013   0.000000  -0.000000  -0.000001   0.000009
    22  H    0.000002  -0.000001   0.000094   0.000002   0.000000  -0.000000
    23  H    0.000000  -0.000000   0.000027  -0.000002   0.000000  -0.000000
    24  H    0.000105  -0.000009  -0.000000   0.000007   0.000000   0.000000
    25  H    0.286909   0.000026   0.000000   0.000045  -0.000005  -0.001102
    26  H    0.000026   0.345874  -0.000000  -0.000000   0.000000  -0.000000
    27  H    0.000000  -0.000000   0.340406  -0.000883   0.000000  -0.000000
    28  H    0.000045  -0.000000  -0.000883   0.279014   0.000039  -0.000033
    29  H   -0.000005   0.000000   0.000000   0.000039   0.360917   0.000006
    30  H   -0.001102  -0.000000  -0.000000  -0.000033   0.000006   0.349522
    31  H    0.000000   0.000000  -0.000000   0.000001   0.000001   0.000003
    32  H   -0.000000  -0.000000  -0.000000   0.000000   0.000000  -0.000000
    33  H   -0.000000  -0.000000   0.000000   0.000000   0.000000  -0.000000
              31         32         33
     1  Si   0.006539  -0.008137  -0.016926
     2  O    0.009670   0.000477   0.000710
     3  O    0.001538   0.000061   0.001475
     4  O   -0.003026   0.000204  -0.000307
     5  O   -0.015468  -0.007066  -0.017539
     6  Si   0.041987   0.052541   0.071429
     7  Si   0.000736  -0.000015  -0.000025
     8  Si   0.001479   0.000070  -0.000613
     9  Si   0.000299   0.000019   0.001394
    10  O   -0.000023   0.000000   0.000000
    11  O   -0.000003  -0.000000   0.000000
    12  O    0.000004   0.000000  -0.000000
    13  O    0.000001  -0.000000  -0.000003
    14  O   -0.000004   0.000000   0.000011
    15  O    0.000001  -0.000000  -0.000001
    16  O    0.001441  -0.000001   0.000003
    17  O    0.000517  -0.000000   0.000000
    18  O    0.000395   0.000000   0.000018
    19  O    0.005839   0.236905  -0.004287
    20  O    0.213261  -0.007424   0.004294
    21  O   -0.007940   0.006713   0.239330
    22  H   -0.000000  -0.000000   0.000000
    23  H   -0.000000   0.000000   0.000000
    24  H    0.000000   0.000000   0.000000
    25  H    0.000000  -0.000000  -0.000000
    26  H    0.000000  -0.000000  -0.000000
    27  H   -0.000000  -0.000000   0.000000
    28  H    0.000001   0.000000   0.000000
    29  H    0.000001   0.000000   0.000000
    30  H    0.000003  -0.000000  -0.000000
    31  H    0.320192  -0.000010  -0.000007
    32  H   -0.000010   0.363430   0.000001
    33  H   -0.000007   0.000001   0.355506
 Mulliken charges:
               1
     1  Si   2.508114
     2  O   -1.411501
     3  O   -1.276402
     4  O   -1.076492
     5  O   -1.292221
     6  Si   2.134079
     7  Si   2.112622
     8  Si   2.084870
     9  Si   2.337733
    10  O   -1.034518
    11  O   -0.898039
    12  O   -0.841045
    13  O   -0.873638
    14  O   -0.885255
    15  O   -1.074523
    16  O   -0.817475
    17  O   -0.923555
    18  O   -0.940138
    19  O   -0.795498
    20  O   -0.923894
    21  O   -0.938388
    22  H    0.454273
    23  H    0.376247
    24  H    0.409422
    25  H    0.441120
    26  H    0.373478
    27  H    0.407868
    28  H    0.449573
    29  H    0.384935
    30  H    0.377899
    31  H    0.422576
    32  H    0.362233
    33  H    0.365540
 Sum of Mulliken charges =  -0.00000
 Mulliken charges with hydrogens summed into heavy atoms:
               1
     1  Si   2.508114
     2  O   -1.411501
     3  O   -1.276402
     4  O   -1.076492
     5  O   -1.292221
     6  Si   2.134079
     7  Si   2.112622
     8  Si   2.084870
     9  Si   2.337733
    10  O   -0.626650
    11  O   -0.521792
    12  O   -0.386772
    13  O   -0.500160
    14  O   -0.444135
    15  O   -0.665101
    16  O   -0.432540
    17  O   -0.473983
    18  O   -0.562240
    19  O   -0.433264
    20  O   -0.501318
    21  O   -0.572848
 Electronic spatial extent (au):  <R**2>=           8259.4342
 Charge=             -0.0000 electrons
 Dipole moment (field-independent basis, Debye):
    X=             -2.5117    Y=              0.8794    Z=              0.6886  Tot=              2.7488
 Quadrupole moment (field-independent basis, Debye-Ang):
   XX=           -158.0581   YY=           -143.7389   ZZ=           -140.0222
   XY=              7.9095   XZ=             -5.1248   YZ=              1.5053
 Traceless Quadrupole moment (field-independent basis, Debye-Ang):
   XX=            -10.7850   YY=              3.5342   ZZ=              7.2509
   XY=              7.9095   XZ=             -5.1248   YZ=              1.5053
 Octapole moment (field-independent basis, Debye-Ang**2):
  XXX=           -126.3706  YYY=              5.5608  ZZZ=             77.5441  XYY=             12.0884
  XXY=              2.7141  XXZ=            -19.0076  XZZ=              9.2469  YZZ=              2.4516
  YYZ=            -43.4245  XYZ=             17.3139
 Hexadecapole moment (field-independent basis, Debye-Ang**3):
 XXXX=          -4858.8235 YYYY=          -2837.0355 ZZZZ=          -2119.9738 XXXY=             32.2488
 XXXZ=            -94.7124 YYYX=             40.1682 YYYZ=             16.2304 ZZZX=            -28.0485
 ZZZY=             76.9765 XXYY=          -1043.3617 XXZZ=          -1161.8217 YYZZ=           -735.7874
 XXYZ=            -40.3793 YYXZ=             -5.1083 ZZXY=            131.9567
 N-N= 3.065807752479D+03 E-N=-1.243418395335D+04  KE= 2.642647477039D+03
 1\1\GINC-GRA368\FOpt\RB3LYP\6-31+G(d,p)\H12O16Si5\SARASHS\21-Jul-2020\
 0\\#n B3LYP/6-31+G(d,p) EmpiricalDispersion=GD3 Opt\\Title\\0,1\Si,-7.
 7609730925,-0.3247382918,-0.2339823008\O,-6.182482488,-0.0712645591,-0
 .6526092822\O,-8.6418614705,0.9854893971,-0.6281788974\O,-7.8721096976
 ,-0.5987567103,1.3667146241\O,-8.2586093852,-1.6384534626,-1.050327209
 7\Si,-7.7030138431,-2.3700620403,-2.4358415311\Si,-7.8088086437,0.0427
 758113,2.8699654174\Si,-5.1339597718,1.1941651273,-0.5719913714\Si,-9.
 1024879365,2.549904219,-0.6447760257\O,-6.2449474995,0.6282994479,2.98
 35280421\O,-7.9687238093,-1.0899040094,4.0479104242\O,-8.9565618376,1.
 180792136,3.0978526284\O,-10.6194575496,2.7622450063,-1.2413698693\O,-
 8.0827832784,3.4731377187,-1.5262709338\O,-9.1578223863,2.9587831541,0
 .9723889206\O,-3.6775755028,0.5025962459,-0.9061927731\O,-5.2496701965
 ,2.0216297197,0.8237096187\O,-5.5185979907,2.3377165074,-1.7253557048\
 O,-8.5232080438,-3.776299021,-2.6564352787\O,-6.0889733207,-2.63050611
 5,-2.3019361233\O,-7.9977378505,-1.4133699759,-3.7444367998\H,-9.10262
 11662,1.8291025733,2.378220167\H,-8.8561045718,-1.2095195289,4.4053443
 149\H,-9.4296326555,3.8619467821,1.175749123\H,-7.1435998986,3.2046401
 53,-1.5729758216\H,-10.6741743371,2.9873989652,-2.1771971739\H,-5.9369
 284881,0.8313485083,3.8753313166\H,-5.5070359581,1.5435932686,1.639968
 7582\H,-2.882130825,1.0184384117,-0.7345904953\H,-5.3297017605,2.08974
 2624,-2.6392114442\H,-5.5853675302,-1.9614020993,-1.8176381114\H,-8.52
 01761611,-4.4124043976,-1.9325207379\H,-8.9005710532,-1.4114355658,-4.
 0822054698\\Version=ES64L-G16RevB.01\State=1-A\HF=-2659.4426636\RMSD=4
 .654e-09\RMSF=1.224e-05\Dipole=0.1081378,0.9242927,0.5509707\Quadrupol
 e=3.8455278,-5.7542527,1.9087249,5.2845187,3.3775156,-5.9477246\PG=C01
  [X(H12O16Si5)]\\@


 ABALONE: AN EXPRESSION OF DISBELIEF.
 Job cpu time:       1 days  2 hours 38 minutes 20.3 seconds.
 Elapsed time:       0 days  1 hours 41 minutes 43.6 seconds.
 File lengths (MBytes):  RWF=    141 Int=      0 D2E=      0 Chk=     18 Scr=      1
 Normal termination of Gaussian 16 at Tue Jul 21 01:26:38 2020.
