18
	Energy: -744272.1201960
Si        -1.97199        0.03198        0.02178
O         -1.49839       -1.04281       -1.16096
O         -3.61529        0.07731        0.01517
O         -1.38578        1.53664       -0.16122
O         -1.32513       -0.62357        1.41007
H         -1.61852       -1.51781        1.62751
H         -0.41713        1.65614       -0.27249
H         -4.03179        0.89720        0.30533
Si         2.82691       -0.04833       -0.04232
O          4.46431        0.05149       -0.11856
O          2.22573        1.48527       -0.37908
O          2.41956       -0.49447        1.49007
O          2.23406       -1.04210       -1.19688
H          1.27474       -1.18596       -1.26867
H          1.46713       -0.56458        1.67612
H          4.96203       -0.57817        0.41466
H          2.69301        2.20741        0.06010
H         -1.95012       -0.97878       -2.01163
