18
	Energy: -744272.1201960
Si        -1.97199        0.03198        0.02178
O         -1.49839       -1.04281       -1.16096
O         -3.61529        0.07731        0.01517
O         -1.38578        1.53664       -0.16122
O         -1.32513       -0.62357        1.41007
H         -1.61852       -1.51781        1.62751
H         -0.41713        1.65614       -0.27249
H         -4.03179        0.89720        0.30533
Si         1.97690       -0.03410       -0.03096
O          3.61429        0.06572       -0.10720
O          1.37572        1.49950       -0.36773
O          1.56954       -0.48024        1.50142
O          1.38405       -1.02787       -1.18552
H          0.42472       -1.17173       -1.25731
H          0.61711       -0.55035        1.68748
H          4.11201       -0.56394        0.42602
H          1.84299        2.22164        0.07145
H         -1.95012       -0.97878       -2.01163
