18
	Energy: -744272.1201960
Si        -1.97199        0.03198        0.02178
O         -1.49839       -1.04281       -1.16096
O         -3.61529        0.07731        0.01517
O         -1.38578        1.53664       -0.16122
O         -1.32513       -0.62357        1.41007
H         -1.61852       -1.51781        1.62751
H         -0.41713        1.65614       -0.27249
H         -4.03179        0.89720        0.30533
Si         3.72671       -0.06338       -0.05434
O          5.36410        0.03643       -0.13058
O          3.12553        1.47022       -0.39110
O          3.31936       -0.50952        1.47805
O          3.13386       -1.05715       -1.20890
H          2.17453       -1.20101       -1.28069
H          2.36692       -0.57963        1.66410
H          5.86182       -0.59322        0.40264
H          3.59280        2.19236        0.04808
H         -1.95012       -0.97878       -2.01163
