18
	Energy: -744272.1201960
Si        -1.97199        0.03198        0.02178
O         -1.49839       -1.04281       -1.16096
O         -3.61529        0.07731        0.01517
O         -1.38578        1.53664       -0.16122
O         -1.32513       -0.62357        1.41007
H         -1.61852       -1.51781        1.62751
H         -0.41713        1.65614       -0.27249
H         -4.03179        0.89720        0.30533
Si         4.02664       -0.06840       -0.05834
O          5.66404        0.03142       -0.13458
O          3.42546        1.46520       -0.39511
O          3.61929       -0.51454        1.47404
O          3.43379       -1.06217       -1.21290
H          2.47446       -1.20603       -1.28469
H          2.66685       -0.58465        1.66010
H          6.16175       -0.59824        0.39864
H          3.89273        2.18734        0.04407
H         -1.95012       -0.97878       -2.01163
