18
	Energy: -744272.1201960
Si        -1.97199        0.03198        0.02178
O         -1.49839       -1.04281       -1.16096
O         -3.61529        0.07731        0.01517
O         -1.38578        1.53664       -0.16122
O         -1.32513       -0.62357        1.41007
H         -1.61852       -1.51781        1.62751
H         -0.41713        1.65614       -0.27249
H         -4.03179        0.89720        0.30533
Si         2.22705       -0.03829       -0.03430
O          3.86445        0.06153       -0.11055
O          1.62587        1.49531       -0.37107
O          1.81970       -0.48443        1.49808
O          1.63420       -1.03206       -1.18886
H          0.67488       -1.17592       -1.26065
H          0.86727       -0.55454        1.68413
H          4.36216       -0.56813        0.42268
H          2.09315        2.21745        0.06811
H         -1.95012       -0.97878       -2.01163
