18
	Energy: -744272.1201960
Si        -1.97199        0.03198        0.02178
O         -1.49839       -1.04281       -1.16096
O         -3.61529        0.07731        0.01517
O         -1.38578        1.53664       -0.16122
O         -1.32513       -0.62357        1.41007
H         -1.61852       -1.51781        1.62751
H         -0.41713        1.65614       -0.27249
H         -4.03179        0.89720        0.30533
Si         2.32703       -0.03996       -0.03564
O          3.96442        0.05986       -0.11188
O          1.72585        1.49364       -0.37240
O          1.91968       -0.48610        1.49675
O          1.73418       -1.03373       -1.19020
H          0.77485       -1.17759       -1.26199
H          0.96724       -0.55621        1.68280
H          4.46214       -0.56980        0.42134
H          2.19312        2.21578        0.06677
H         -1.95012       -0.97878       -2.01163
