 Entering Gaussian System, Link 0=g16
 Initial command:
 /opt/software/gaussian/g16.b01/l1.exe "/localscratch/sarashs.36567445.0/Gau-5274.inp" -scrdir="/localscratch/sarashs.36567445.0/"
 Entering Link 1 = /opt/software/gaussian/g16.b01/l1.exe PID=      5275.
  
 Copyright (c) 1988-2017, Gaussian, Inc.  All Rights Reserved.
  
 This is part of the Gaussian(R) 16 program.  It is based on
 the Gaussian(R) 09 system (copyright 2009, Gaussian, Inc.),
 the Gaussian(R) 03 system (copyright 2003, Gaussian, Inc.),
 the Gaussian(R) 98 system (copyright 1998, Gaussian, Inc.),
 the Gaussian(R) 94 system (copyright 1995, Gaussian, Inc.),
 the Gaussian 92(TM) system (copyright 1992, Gaussian, Inc.),
 the Gaussian 90(TM) system (copyright 1990, Gaussian, Inc.),
 the Gaussian 88(TM) system (copyright 1988, Gaussian, Inc.),
 the Gaussian 86(TM) system (copyright 1986, Carnegie Mellon
 University), and the Gaussian 82(TM) system (copyright 1983,
 Carnegie Mellon University). Gaussian is a federally registered
 trademark of Gaussian, Inc.
  
 This software contains proprietary and confidential information,
 including trade secrets, belonging to Gaussian, Inc.
  
 This software is provided under written license and may be
 used, copied, transmitted, or stored only in accord with that
 written license.
  
 The following legend is applicable only to US Government
 contracts under FAR:
  
                    RESTRICTED RIGHTS LEGEND
  
 Use, reproduction and disclosure by the US Government is
 subject to restrictions as set forth in subparagraphs (a)
 and (c) of the Commercial Computer Software - Restricted
 Rights clause in FAR 52.227-19.
  
 Gaussian, Inc.
 340 Quinnipiac St., Bldg. 40, Wallingford CT 06492
  
  
 ---------------------------------------------------------------
 Warning -- This program may not be used in any manner that
 competes with the business of Gaussian, Inc. or will provide
 assistance to any competitor of Gaussian, Inc.  The licensee
 of this program is prohibited from giving any competitor of
 Gaussian, Inc. access to this program.  By using this program,
 the user acknowledges that Gaussian, Inc. is engaged in the
 business of creating and licensing software in the field of
 computational chemistry and represents and warrants to the
 licensee that it is not a competitor of Gaussian, Inc. and that
 it will not use this program in any manner prohibited above.
 ---------------------------------------------------------------
  

 Cite this work as:
 Gaussian 16, Revision B.01,
 M. J. Frisch, G. W. Trucks, H. B. Schlegel, G. E. Scuseria, 
 M. A. Robb, J. R. Cheeseman, G. Scalmani, V. Barone, 
 G. A. Petersson, H. Nakatsuji, X. Li, M. Caricato, A. V. Marenich, 
 J. Bloino, B. G. Janesko, R. Gomperts, B. Mennucci, H. P. Hratchian, 
 J. V. Ortiz, A. F. Izmaylov, J. L. Sonnenberg, D. Williams-Young, 
 F. Ding, F. Lipparini, F. Egidi, J. Goings, B. Peng, A. Petrone, 
 T. Henderson, D. Ranasinghe, V. G. Zakrzewski, J. Gao, N. Rega, 
 G. Zheng, W. Liang, M. Hada, M. Ehara, K. Toyota, R. Fukuda, 
 J. Hasegawa, M. Ishida, T. Nakajima, Y. Honda, O. Kitao, H. Nakai, 
 T. Vreven, K. Throssell, J. A. Montgomery, Jr., J. E. Peralta, 
 F. Ogliaro, M. J. Bearpark, J. J. Heyd, E. N. Brothers, K. N. Kudin, 
 V. N. Staroverov, T. A. Keith, R. Kobayashi, J. Normand, 
 K. Raghavachari, A. P. Rendell, J. C. Burant, S. S. Iyengar, 
 J. Tomasi, M. Cossi, J. M. Millam, M. Klene, C. Adamo, R. Cammi, 
 J. W. Ochterski, R. L. Martin, K. Morokuma, O. Farkas, 
 J. B. Foresman, and D. J. Fox, Gaussian, Inc., Wallingford CT, 2016.
 
 ******************************************
 Gaussian 16:  ES64L-G16RevB.01 20-Dec-2017
                29-Jul-2020 
 ******************************************
 %NProcShared=16
 Will use up to   16 processors via shared memory.
 ------------------------------------------------------------------
 #n B3LYP/Gen Pseudo=cards EmpiricalDispersion=GD3 Opt=modredundant
 ------------------------------------------------------------------
 1/18=120,19=15,26=3,38=1/1,3;
 2/9=110,12=2,17=6,18=5,40=1/2;
 3/5=7,11=2,16=1,17=8,25=1,30=1,71=1,74=-5,124=31/1,2,3;
 4//1;
 5/5=2,38=5/2;
 6/7=2,8=2,9=2,10=2,28=1/1;
 7//1,2,3,16;
 1/18=20,19=15,26=3/3(2);
 2/9=110/2;
 99//99;
 2/9=110/2;
 3/5=7,6=1,11=2,16=1,17=8,25=1,30=1,71=1,74=-5,82=7,124=31/1,2,3;
 4/5=5,16=3,69=1/1;
 5/5=2,38=5/2;
 7//1,2,3,16;
 1/18=20,19=15,26=3/3(-5);
 2/9=110/2;
 6/7=2,8=2,9=2,10=2,19=2,28=1/1;
 99/9=1/99;
 -----
 Title
 -----
 Symbolic Z-matrix:
 Charge =  0 Multiplicity = 1
 Si                   -0.13817   0.15907  -0.88672 
 O                    -1.00571  -1.21557  -1.00367 
 O                     0.58179   0.25267   0.61501 
 O                    -1.1339    1.45311  -1.10627 
 O                     1.18134   0.19206  -1.82677 
 Si                   -2.69339   1.74371  -0.65114 
 Si                    0.45246   0.31404   2.26262 
 Si                   -2.1548   -2.1204   -0.22503 
 Zr                    2.98765  -0.00142  -0.93564 
 O                     4.28245   0.07313  -2.36061 
 O                     3.14928  -1.71234  -0.05503 
 O                     3.50559   1.48399   0.31042 
 O                    -3.55825  -2.00436  -1.06221 
 O                    -2.28687  -1.57711   1.34004 
 O                    -1.66915  -3.67748  -0.08045 
 O                    -3.00596   3.33412  -0.93077 
 O                    -2.92057   1.21838   0.89035 
 O                    -3.78511   0.84272  -1.51643 
 O                    -0.76335   1.45159   2.52316 
 O                     1.87673   0.80442   2.88257 
 O                     0.04596  -1.13257   2.9006 
 H                     4.24984   2.09372   0.25299 
 H                     4.93509  -0.1942   -3.00984 
 H                     2.90976  -2.30727   0.66077 
 H                    -3.79221  -1.10963  -1.36628 
 H                    -1.5614   -4.18568  -0.89124 
 H                    -2.80623  -0.75615   1.40497 
 H                     2.4905    1.16992   2.20997 
 H                    -0.78842  -1.49858   2.54684 
 H                    -0.84185   1.77955   3.42764 
 H                    -4.15196   1.2615   -2.30365 
 H                    -2.24428   3.9095   -1.06409 
 H                    -2.21087   1.44549   1.53341 
 
 The following ModRedundant input section has been read:
 A       1       5       9 F                                                   
 

 GradGradGradGradGradGradGradGradGradGradGradGradGradGradGradGradGradGrad
 Berny optimization.
 Initialization pass.
                           ----------------------------
                           !    Initial Parameters    !
                           ! (Angstroms and Degrees)  !
 --------------------------                            --------------------------
 ! Name  Definition              Value          Derivative Info.                !
 --------------------------------------------------------------------------------
 ! R1    R(1,2)                  1.6297         estimate D2E/DX2                !
 ! R2    R(1,3)                  1.668          estimate D2E/DX2                !
 ! R3    R(1,4)                  1.6475         estimate D2E/DX2                !
 ! R4    R(1,5)                  1.6205         estimate D2E/DX2                !
 ! R5    R(1,9)                  3.1303         estimate D2E/DX2                !
 ! R6    R(2,8)                  1.6569         estimate D2E/DX2                !
 ! R7    R(3,7)                  1.6538         estimate D2E/DX2                !
 ! R8    R(4,6)                  1.6503         estimate D2E/DX2                !
 ! R9    R(5,9)                  2.0234         estimate D2E/DX2                !
 ! R10   R(6,16)                 1.6448         estimate D2E/DX2                !
 ! R11   R(6,17)                 1.6443         estimate D2E/DX2                !
 ! R12   R(6,18)                 1.659          estimate D2E/DX2                !
 ! R13   R(7,19)                 1.6853         estimate D2E/DX2                !
 ! R14   R(7,20)                 1.6289         estimate D2E/DX2                !
 ! R15   R(7,21)                 1.6325         estimate D2E/DX2                !
 ! R16   R(8,13)                 1.6383         estimate D2E/DX2                !
 ! R17   R(8,14)                 1.6619         estimate D2E/DX2                !
 ! R18   R(8,15)                 1.6375         estimate D2E/DX2                !
 ! R19   R(9,10)                 1.9268         estimate D2E/DX2                !
 ! R20   R(9,11)                 1.931          estimate D2E/DX2                !
 ! R21   R(9,12)                 2.0068         estimate D2E/DX2                !
 ! R22   R(10,23)                0.9586         estimate D2E/DX2                !
 ! R23   R(11,24)                0.9611         estimate D2E/DX2                !
 ! R24   R(12,22)                0.9638         estimate D2E/DX2                !
 ! R25   R(13,25)                0.9735         estimate D2E/DX2                !
 ! R26   R(14,27)                0.9736         estimate D2E/DX2                !
 ! R27   R(15,26)                0.9629         estimate D2E/DX2                !
 ! R28   R(16,32)                0.9638         estimate D2E/DX2                !
 ! R29   R(17,33)                0.9843         estimate D2E/DX2                !
 ! R30   R(18,31)                0.9642         estimate D2E/DX2                !
 ! R31   R(19,30)                0.9653         estimate D2E/DX2                !
 ! R32   R(20,28)                0.9812         estimate D2E/DX2                !
 ! R33   R(21,29)                0.9774         estimate D2E/DX2                !
 ! A1    A(2,1,3)              109.9808         estimate D2E/DX2                !
 ! A2    A(2,1,4)              109.3435         estimate D2E/DX2                !
 ! A3    A(2,1,5)              114.1426         estimate D2E/DX2                !
 ! A4    A(2,1,9)              119.1565         estimate D2E/DX2                !
 ! A5    A(3,1,4)              109.6804         estimate D2E/DX2                !
 ! A6    A(3,1,5)               99.7688         estimate D2E/DX2                !
 ! A7    A(3,1,9)               65.54           estimate D2E/DX2                !
 ! A8    A(4,1,5)              113.5061         estimate D2E/DX2                !
 ! A9    A(4,1,9)              129.9196         estimate D2E/DX2                !
 ! A10   A(1,2,8)              142.7567         estimate D2E/DX2                !
 ! A11   A(1,3,7)              149.9119         estimate D2E/DX2                !
 ! A12   A(1,4,6)              132.2743         estimate D2E/DX2                !
 ! A13   A(1,5,9)              118.0001         Frozen                          !
 ! A14   A(4,6,16)             107.6353         estimate D2E/DX2                !
 ! A15   A(4,6,17)             109.4409         estimate D2E/DX2                !
 ! A16   A(4,6,18)             112.4799         estimate D2E/DX2                !
 ! A17   A(16,6,17)            116.2345         estimate D2E/DX2                !
 ! A18   A(16,6,18)            108.144          estimate D2E/DX2                !
 ! A19   A(17,6,18)            102.9751         estimate D2E/DX2                !
 ! A20   A(3,7,19)             103.6202         estimate D2E/DX2                !
 ! A21   A(3,7,20)             108.7814         estimate D2E/DX2                !
 ! A22   A(3,7,21)             112.0818         estimate D2E/DX2                !
 ! A23   A(19,7,20)            111.639          estimate D2E/DX2                !
 ! A24   A(19,7,21)            110.9828         estimate D2E/DX2                !
 ! A25   A(20,7,21)            109.6189         estimate D2E/DX2                !
 ! A26   A(2,8,13)             108.3776         estimate D2E/DX2                !
 ! A27   A(2,8,14)             108.6105         estimate D2E/DX2                !
 ! A28   A(2,8,15)             110.799          estimate D2E/DX2                !
 ! A29   A(13,8,14)            112.954          estimate D2E/DX2                !
 ! A30   A(13,8,15)            111.5028         estimate D2E/DX2                !
 ! A31   A(14,8,15)            104.553          estimate D2E/DX2                !
 ! A32   A(1,9,10)             132.8905         estimate D2E/DX2                !
 ! A33   A(1,9,11)              97.0006         estimate D2E/DX2                !
 ! A34   A(1,9,12)             102.1262         estimate D2E/DX2                !
 ! A35   A(5,9,10)             105.693          estimate D2E/DX2                !
 ! A36   A(5,9,11)             111.1173         estimate D2E/DX2                !
 ! A37   A(5,9,12)             115.6625         estimate D2E/DX2                !
 ! A38   A(10,9,11)            108.3785         estimate D2E/DX2                !
 ! A39   A(10,9,12)            104.8993         estimate D2E/DX2                !
 ! A40   A(11,9,12)            110.5517         estimate D2E/DX2                !
 ! A41   A(9,10,23)            161.3693         estimate D2E/DX2                !
 ! A42   A(9,11,24)            150.1406         estimate D2E/DX2                !
 ! A43   A(9,12,22)            129.0896         estimate D2E/DX2                !
 ! A44   A(8,13,25)            115.5044         estimate D2E/DX2                !
 ! A45   A(8,14,27)            112.3856         estimate D2E/DX2                !
 ! A46   A(8,15,26)            117.432          estimate D2E/DX2                !
 ! A47   A(6,16,32)            116.7803         estimate D2E/DX2                !
 ! A48   A(6,17,33)            116.0494         estimate D2E/DX2                !
 ! A49   A(6,18,31)            116.1247         estimate D2E/DX2                !
 ! A50   A(7,19,30)            115.6491         estimate D2E/DX2                !
 ! A51   A(7,20,28)            113.4661         estimate D2E/DX2                !
 ! A52   A(7,21,29)            113.7637         estimate D2E/DX2                !
 ! D1    D(3,1,2,8)             50.0624         estimate D2E/DX2                !
 ! D2    D(4,1,2,8)            -70.4297         estimate D2E/DX2                !
 ! D3    D(5,1,2,8)            161.2125         estimate D2E/DX2                !
 ! D4    D(9,1,2,8)            122.5051         estimate D2E/DX2                !
 ! D5    D(2,1,3,7)            -60.1512         estimate D2E/DX2                !
 ! D6    D(4,1,3,7)             60.1373         estimate D2E/DX2                !
 ! D7    D(5,1,3,7)            179.5701         estimate D2E/DX2                !
 ! D8    D(9,1,3,7)           -173.9874         estimate D2E/DX2                !
 ! D9    D(2,1,4,6)             37.0076         estimate D2E/DX2                !
 ! D10   D(3,1,4,6)            -83.6678         estimate D2E/DX2                !
 ! D11   D(5,1,4,6)            165.7183         estimate D2E/DX2                !
 ! D12   D(9,1,4,6)           -157.7588         estimate D2E/DX2                !
 ! D13   D(2,1,9,10)            90.5103         estimate D2E/DX2                !
 ! D14   D(2,1,9,11)           -32.6952         estimate D2E/DX2                !
 ! D15   D(2,1,9,12)          -145.5344         estimate D2E/DX2                !
 ! D16   D(3,1,9,10)          -169.3475         estimate D2E/DX2                !
 ! D17   D(3,1,9,11)            67.447          estimate D2E/DX2                !
 ! D18   D(3,1,9,12)           -45.3922         estimate D2E/DX2                !
 ! D19   D(4,1,9,10)           -73.5047         estimate D2E/DX2                !
 ! D20   D(4,1,9,11)           163.2898         estimate D2E/DX2                !
 ! D21   D(4,1,9,12)            50.4506         estimate D2E/DX2                !
 ! D22   D(1,2,8,13)           108.4711         estimate D2E/DX2                !
 ! D23   D(1,2,8,14)           -14.5876         estimate D2E/DX2                !
 ! D24   D(1,2,8,15)          -128.8886         estimate D2E/DX2                !
 ! D25   D(1,3,7,19)           -46.0619         estimate D2E/DX2                !
 ! D26   D(1,3,7,20)          -164.9541         estimate D2E/DX2                !
 ! D27   D(1,3,7,21)            73.6681         estimate D2E/DX2                !
 ! D28   D(1,4,6,16)           169.4411         estimate D2E/DX2                !
 ! D29   D(1,4,6,17)            42.2775         estimate D2E/DX2                !
 ! D30   D(1,4,6,18)           -71.5346         estimate D2E/DX2                !
 ! D31   D(4,6,16,32)          -16.3726         estimate D2E/DX2                !
 ! D32   D(17,6,16,32)         106.7215         estimate D2E/DX2                !
 ! D33   D(18,6,16,32)        -138.134          estimate D2E/DX2                !
 ! D34   D(4,6,17,33)           44.2632         estimate D2E/DX2                !
 ! D35   D(16,6,17,33)         -77.8848         estimate D2E/DX2                !
 ! D36   D(18,6,17,33)         164.0932         estimate D2E/DX2                !
 ! D37   D(4,6,18,31)          -92.9354         estimate D2E/DX2                !
 ! D38   D(16,6,18,31)          25.7911         estimate D2E/DX2                !
 ! D39   D(17,6,18,31)         149.3552         estimate D2E/DX2                !
 ! D40   D(3,7,19,30)         -166.1155         estimate D2E/DX2                !
 ! D41   D(20,7,19,30)         -49.2104         estimate D2E/DX2                !
 ! D42   D(21,7,19,30)          73.4066         estimate D2E/DX2                !
 ! D43   D(3,7,20,28)           12.9879         estimate D2E/DX2                !
 ! D44   D(19,7,20,28)        -100.7463         estimate D2E/DX2                !
 ! D45   D(21,7,20,28)         135.8599         estimate D2E/DX2                !
 ! D46   D(3,7,21,29)          -57.2164         estimate D2E/DX2                !
 ! D47   D(19,7,21,29)          58.1093         estimate D2E/DX2                !
 ! D48   D(20,7,21,29)        -178.1114         estimate D2E/DX2                !
 ! D49   D(2,8,13,25)          -43.843          estimate D2E/DX2                !
 ! D50   D(14,8,13,25)          76.5485         estimate D2E/DX2                !
 ! D51   D(15,8,13,25)        -166.0547         estimate D2E/DX2                !
 ! D52   D(2,8,14,27)           78.098          estimate D2E/DX2                !
 ! D53   D(13,8,14,27)         -42.1603         estimate D2E/DX2                !
 ! D54   D(15,8,14,27)        -163.5737         estimate D2E/DX2                !
 ! D55   D(2,8,15,26)          -65.1514         estimate D2E/DX2                !
 ! D56   D(13,8,15,26)          55.6545         estimate D2E/DX2                !
 ! D57   D(14,8,15,26)         178.0211         estimate D2E/DX2                !
 ! D58   D(1,9,10,23)         -104.8026         estimate D2E/DX2                !
 ! D59   D(5,9,10,23)         -105.0491         estimate D2E/DX2                !
 ! D60   D(11,9,10,23)          14.1396         estimate D2E/DX2                !
 ! D61   D(12,9,10,23)         132.251          estimate D2E/DX2                !
 ! D62   D(1,9,11,24)          -47.4036         estimate D2E/DX2                !
 ! D63   D(5,9,11,24)          -71.4528         estimate D2E/DX2                !
 ! D64   D(10,9,11,24)         172.8348         estimate D2E/DX2                !
 ! D65   D(12,9,11,24)          58.3837         estimate D2E/DX2                !
 ! D66   D(1,9,12,22)         -143.1347         estimate D2E/DX2                !
 ! D67   D(5,9,12,22)         -118.1            estimate D2E/DX2                !
 ! D68   D(10,9,12,22)          -2.1009         estimate D2E/DX2                !
 ! D69   D(11,9,12,22)         114.5267         estimate D2E/DX2                !
 --------------------------------------------------------------------------------
 Trust Radius=3.00D-01 FncErr=1.00D-07 GrdErr=1.00D-06 EigMax=2.50D+02 EigMin=1.00D-04
 Number of steps in this run=    164 maximum allowed number of steps=    198.
 GradGradGradGradGradGradGradGradGradGradGradGradGradGradGradGradGradGrad

                          Input orientation:                          
 ---------------------------------------------------------------------
 Center     Atomic      Atomic             Coordinates (Angstroms)
 Number     Number       Type             X           Y           Z
 ---------------------------------------------------------------------
      1         14           0       -0.138170    0.159070   -0.886720
      2          8           0       -1.005710   -1.215570   -1.003670
      3          8           0        0.581790    0.252670    0.615010
      4          8           0       -1.133900    1.453110   -1.106270
      5          8           0        1.181340    0.192060   -1.826770
      6         14           0       -2.693390    1.743710   -0.651140
      7         14           0        0.452460    0.314040    2.262620
      8         14           0       -2.154800   -2.120400   -0.225030
      9         40           0        2.987650   -0.001420   -0.935640
     10          8           0        4.282450    0.073130   -2.360610
     11          8           0        3.149280   -1.712340   -0.055030
     12          8           0        3.505590    1.483990    0.310420
     13          8           0       -3.558250   -2.004360   -1.062210
     14          8           0       -2.286870   -1.577110    1.340040
     15          8           0       -1.669150   -3.677480   -0.080450
     16          8           0       -3.005960    3.334120   -0.930770
     17          8           0       -2.920570    1.218380    0.890350
     18          8           0       -3.785110    0.842720   -1.516430
     19          8           0       -0.763350    1.451590    2.523160
     20          8           0        1.876730    0.804420    2.882570
     21          8           0        0.045960   -1.132570    2.900600
     22          1           0        4.249840    2.093720    0.252990
     23          1           0        4.935090   -0.194200   -3.009840
     24          1           0        2.909760   -2.307270    0.660770
     25          1           0       -3.792210   -1.109630   -1.366280
     26          1           0       -1.561400   -4.185680   -0.891240
     27          1           0       -2.806230   -0.756150    1.404970
     28          1           0        2.490500    1.169920    2.209970
     29          1           0       -0.788420   -1.498580    2.546840
     30          1           0       -0.841850    1.779550    3.427640
     31          1           0       -4.151960    1.261500   -2.303650
     32          1           0       -2.244280    3.909500   -1.064090
     33          1           0       -2.210870    1.445490    1.533410
 ---------------------------------------------------------------------
                    Distance matrix (angstroms):
                    1          2          3          4          5
     1  Si   0.000000
     2  O    1.629705   0.000000
     3  O    1.668022   2.701113   0.000000
     4  O    1.647489   2.673726   2.710619   0.000000
     5  O    1.620459   2.728022   2.515039   2.733076   0.000000
     6  Si   3.015913   3.424891   3.814858   1.650334   4.336272
     7  Si   3.207990   3.890323   1.653817   3.894026   4.155629
     8  Si   3.114581   1.656926   3.718340   3.819528   4.363814
     9  Zr   3.130320   4.174412   2.873541   4.374008   2.023438
    10  O    4.660646   5.609516   4.751993   5.728400   3.148970
    11  O    3.873140   4.290762   3.301851   5.428702   3.261685
    12  O    4.057776   5.419067   3.187088   4.851065   3.411569
    13  O    4.050700   2.672279   5.004716   4.222974   5.279444
    14  O    3.548196   2.695377   3.478933   4.061528   5.018678
    15  O    4.208692   2.711732   4.582191   5.259444   5.113538
    16  O    4.278680   4.970512   4.975613   2.659625   5.311199
    17  O    3.467256   3.630167   3.643478   2.689569   5.026106
    18  O    3.763520   3.496362   4.894999   2.751313   5.018495
    19  O    3.699830   4.428432   2.624471   3.648297   4.928501
    20  O    4.322481   5.243251   2.668919   5.039398   4.799629
    21  O    4.005750   4.044283   2.725789   4.912516   5.039024
    22  H    4.929142   6.336513   4.120087   5.589510   4.166222
    23  H    5.510935   6.353032   5.682469   6.570377   3.954680
    24  H    4.215144   4.392388   3.460467   5.797765   3.927078
    25  H    3.897638   2.811991   4.991317   3.701601   5.161652
    26  H    4.571920   3.023737   5.153737   5.659059   5.249995
    27  H    3.634283   3.042119   3.622214   3.739498   5.219575
    28  H    4.185835   5.314276   2.651117   4.920764   4.354926
    29  H    3.867811   3.568393   2.945559   4.709251   5.085930
    30  H    4.662062   5.351084   3.502713   4.555019   5.849978
    31  H    4.396994   4.210073   5.651965   3.252556   5.460330
    32  H    4.304984   5.272954   4.917159   2.696029   5.112330
    33  H    3.436276   3.869163   3.172574   2.850935   4.936495
                    6          7          8          9         10
     6  Si   0.000000
     7  Si   4.519992   0.000000
     8  Si   3.924665   4.348874   0.000000
     9  Zr   5.949843   4.093357   5.607124   0.000000
    10  O    7.373972   6.008420   7.128146   1.926812   0.000000
    11  O    6.814427   4.092744   5.322469   1.931022   3.128526
    12  O    6.278487   3.808080   6.731890   2.006831   3.119045
    13  O    3.868461   5.702216   1.638294   6.846648   8.214523
    14  O    3.893315   3.454205   1.661942   5.956684   7.718424
    15  O    5.546535   5.091506   1.637455   5.994210   7.395116
    16  O    1.644779   5.592789   5.565459   6.859243   8.111684
    17  O    1.644316   3.752104   3.602489   6.303112   7.985226
    18  O    1.659025   5.702431   3.620180   6.849830   8.148032
    19  O    3.726469   1.685258   4.716757   5.305142   7.156218
    20  O    5.852809   1.628912   5.870689   4.057370   5.814913
    21  O    5.328403   1.632465   3.948255   4.964854   6.861624
    22  H    7.010592   4.650373   7.681583   2.719481   3.303748
    23  H    8.216609   6.939100   7.856968   2.851665   0.958595
    24  H    7.037531   3.933893   5.144835   2.805626   4.084032
    25  H    3.140124   5.763070   2.237235   6.883319   8.221177
    26  H    6.041251   5.852345   2.249742   6.180927   7.378827
    27  H    3.238768   3.535524   2.223160   6.294213   8.069491
    28  H    5.948773   2.211088   6.191465   3.393237   5.030331
    29  H    4.936439   2.214984   3.152288   5.350501   7.229596
    30  H    4.479501   2.276012   5.502313   6.072490   7.916701
    31  H    2.256267   6.553563   4.443710   7.378377   8.517907
    32  H    2.250083   5.591667   6.088655   6.533367   7.680944
    33  H    2.256993   2.984167   3.976283   5.934169   7.694801
                   11         12         13         14         15
    11  O    0.000000
    12  O    3.236825   0.000000
    13  O    6.789009   7.996908   0.000000
    14  O    5.613932   6.631971   2.751319   0.000000
    15  O    5.203815   7.319254   2.707745   2.609775   0.000000
    16  O    8.007538   6.882138   5.368582   5.458374   7.188368
    17  O    6.806316   6.457740   3.821672   2.901476   5.145673
    18  O    7.533245   7.543402   2.891997   4.032334   5.193412
    19  O    5.653865   4.808442   5.710511   3.590809   5.822939
    20  O    4.072218   3.119448   7.279392   5.038517   6.437405
    21  O    4.324636   5.052174   5.427173   2.841665   4.278414
    22  H    3.973940   0.963834   8.915732   7.575305   8.273595
    23  H    3.771574   3.985463   8.899818   8.543454   8.020633
    24  H    0.961083   3.853753   6.700416   5.291456   4.836662
    25  H    7.089917   7.924397   0.973518   3.131893   3.571358
    26  H    5.385830   7.698281   2.962228   3.508497   0.962942
    27  H    6.205965   6.786408   2.865404   0.973615   3.468947
    28  H    3.724465   2.176543   7.574338   5.579087   6.785720
    29  H    4.724500   5.686459   4.577446   1.925587   3.525045
    30  H    6.344399   5.357672   6.469587   4.208720   6.539900
    31  H    8.198056   8.094500   3.543939   4.981239   5.958229
    32  H    7.855812   6.390100   6.058074   5.990371   7.672065
    33  H    6.420766   5.845947   4.522625   3.029732   5.398410
                   16         17         18         19         20
    16  O    0.000000
    17  O    2.792870   0.000000
    18  O    2.675284   2.584790   0.000000
    19  O    4.528007   2.715521   5.081343   0.000000
    20  O    6.691906   5.210987   7.170014   2.741902   0.000000
    21  O    6.629097   4.285834   6.171630   2.734104   2.665328
    22  H    7.455636   7.251705   8.322035   5.540585   3.769435
    23  H    8.934867   8.883595   8.907714   8.111408   6.713516
    24  H    8.327906   6.817306   7.712582   5.575775   3.960576
    25  H    4.533737   3.357345   1.958128   5.555320   7.338474
    26  H    7.657396   5.850237   5.533584   6.638812   7.138871
    27  H    4.714433   2.043692   3.471191   3.209022   5.152552
    28  H    6.690223   5.569867   7.305915   3.281001   0.981170
    29  H    6.353443   3.830391   5.565249   2.950372   3.538297
    30  H    5.108405   3.327736   5.829602   0.965300   2.939159
    31  H    2.737493   3.423422   0.964194   5.900585   7.965608
    32  H    0.963843   3.394014   3.461778   4.593783   6.496181
    33  H    3.204883   0.984266   3.484693   1.753555   4.351974
                   21         22         23         24         25
    21  O    0.000000
    22  H    5.923799   0.000000
    23  H    7.727705   4.043539   0.000000
    24  H    3.820747   4.618529   4.694721   0.000000
    25  H    5.739193   8.806705   8.927769   7.103497   0.000000
    26  H    5.126708   8.631954   7.913581   5.091997   3.829394
    27  H    3.242466   7.696554   8.929410   5.969284   2.962589
    28  H    3.428441   2.788988   5.923112   3.829706   7.580129
    29  H    0.977394   6.599275   8.083110   4.229394   4.948388
    30  H    3.089728   6.008528   8.871859   6.199375   6.327215
    31  H    7.101994   8.821521   9.229964   8.449367   2.574945
    32  H    6.810759   6.870615   8.495272   8.257572   5.261090
    33  H    3.689022   6.618191   8.625222   6.408242   4.175820
                   26         27         28         29         30
    26  H    0.000000
    27  H    4.310900   0.000000
    28  H    7.397151   5.693252   0.000000
    29  H    4.431523   2.434466   4.240954   0.000000
    30  H    7.399625   3.792065   3.599851   3.394820   0.000000
    31  H    6.194972   4.431226   8.031403   6.516034   6.638742
    32  H    8.125770   5.308515   6.375179   6.663758   5.165185
    33  H    6.165291   2.284331   4.757789   3.423150   2.360915
                   31         32         33
    31  H    0.000000
    32  H    3.491082   0.000000
    33  H    4.304034   3.580428   0.000000
 Stoichiometry    H12O16Si4Zr
 Framework group  C1[X(H12O16Si4Zr)]
 Deg. of freedom    93
 Full point group                 C1      NOp   1
 Largest Abelian subgroup         C1      NOp   1
 Largest concise Abelian subgroup C1      NOp   1
                         Standard orientation:                         
 ---------------------------------------------------------------------
 Center     Atomic      Atomic             Coordinates (Angstroms)
 Number     Number       Type             X           Y           Z
 ---------------------------------------------------------------------
      1         14           0        0.128052   -0.181656   -0.826253
      2          8           0        0.993281    1.183664   -1.034145
      3          8           0       -0.511148   -0.222416    0.713895
      4          8           0        1.105787   -1.487605   -1.055926
      5          8           0       -1.239825   -0.237941   -1.693222
      6         14           0        2.686225   -1.771822   -0.675090
      7         14           0       -0.294372   -0.230889    2.353422
      8         14           0        2.185650    2.107003   -0.347773
      9         40           0       -2.995304   -0.005658   -0.714119
     10          8           0       -4.364522   -0.119384   -2.065013
     11          8           0       -3.103313    1.733854    0.117311
     12          8           0       -3.451638   -1.446895    0.605717
     13          8           0        3.542013    1.956088   -1.254146
     14          8           0        2.398949    1.614173    1.225018
     15          8           0        1.714256    3.670607   -0.228666
     16          8           0        2.977460   -3.372178   -0.918688
     17          8           0        2.997257   -1.197903    0.834098
     18          8           0        3.733627   -0.905460   -1.626263
     19          8           0        0.929318   -1.366032    2.586072
     20          8           0       -1.685389   -0.693013    3.063964
     21          8           0        0.151004    1.233445    2.921145
     22          1           0       -4.200177   -2.054069    0.607951
     23          1           0       -5.049845    0.130278   -2.687030
     24          1           0       -2.823729    2.350419    0.799485
     25          1           0        3.756061    1.050671   -1.540749
     26          1           0        1.565333    4.152759   -1.048794
     27          1           0        2.917944    0.792916    1.289101
     28          1           0       -2.335522   -1.076810    2.437290
     29          1           0        0.966702    1.583165    2.511715
     30          1           0        1.054706   -1.664835    3.495357
     31          1           0        4.056399   -1.351627   -2.417733
     32          1           0        2.207597   -3.947393   -0.992394
     33          1           0        2.322011   -1.400077    1.521082
 ---------------------------------------------------------------------
 Rotational constants (GHZ):           0.2571203           0.1318987           0.1301012
 General basis read from cards:  (5D, 7F)
 ======================================================================================================
                                       Pseudopotential Parameters
 ======================================================================================================
  Center     Atomic      Valence      Angular      Power
  Number     Number     Electrons     Momentum     of R      Exponent        Coefficient   SO-Coeffient
 ======================================================================================================
    1         14
                                   No pseudopotential on this center.
    2          8
                                   No pseudopotential on this center.
    3          8
                                   No pseudopotential on this center.
    4          8
                                   No pseudopotential on this center.
    5          8
                                   No pseudopotential on this center.
    6         14
                                   No pseudopotential on this center.
    7         14
                                   No pseudopotential on this center.
    8         14
                                   No pseudopotential on this center.
    9         40           12
                                      G and up 
                                                     2        1.0000000        0.00000000    0.00000000
                                      S - G
                                                     2        8.6365280      150.24299400    0.00000000
                                                     2        3.7176390       18.78003600    0.00000000
                                      P - G
                                                     2        7.6267280       33.19279100    0.00000000
                                                     2        7.4532070       66.38903900    0.00000000
                                                     2        3.3583890        4.62072600    0.00000000
                                                     2        3.2297380        9.26027000    0.00000000
                                      D - G
                                                     2        5.9380860       13.99338300    0.00000000
                                                     2        5.8255440       20.99588200    0.00000000
                                                     2        2.2050190        2.28516600    0.00000000
                                                     2        2.2062920        3.44126000    0.00000000
                                      F - G
                                                     2        4.8002150       -5.23932000    0.00000000
                                                     2        4.7989920       -6.98742400    0.00000000
   10          8
                                   No pseudopotential on this center.
   11          8
                                   No pseudopotential on this center.
   12          8
                                   No pseudopotential on this center.
   13          8
                                   No pseudopotential on this center.
   14          8
                                   No pseudopotential on this center.
   15          8
                                   No pseudopotential on this center.
   16          8
                                   No pseudopotential on this center.
   17          8
                                   No pseudopotential on this center.
   18          8
                                   No pseudopotential on this center.
   19          8
                                   No pseudopotential on this center.
   20          8
                                   No pseudopotential on this center.
   21          8
                                   No pseudopotential on this center.
   22          1
                                   No pseudopotential on this center.
   23          1
                                   No pseudopotential on this center.
   24          1
                                   No pseudopotential on this center.
   25          1
                                   No pseudopotential on this center.
   26          1
                                   No pseudopotential on this center.
   27          1
                                   No pseudopotential on this center.
   28          1
                                   No pseudopotential on this center.
   29          1
                                   No pseudopotential on this center.
   30          1
                                   No pseudopotential on this center.
   31          1
                                   No pseudopotential on this center.
   32          1
                                   No pseudopotential on this center.
   33          1
                                   No pseudopotential on this center.
 ======================================================================================================
 There are   570 symmetry adapted cartesian basis functions of A   symmetry.
 There are   524 symmetry adapted basis functions of A   symmetry.
   524 basis functions,  1074 primitive gaussians,   570 cartesian basis functions
   104 alpha electrons      104 beta electrons
       nuclear repulsion energy      3009.8439194471 Hartrees.
 NAtoms=   33 NActive=   33 NUniq=   33 SFac= 1.00D+00 NAtFMM=   60 NAOKFM=F Big=F
 Integral buffers will be    131072 words long.
 Raffenetti 2 integral format.
 Two-electron integral symmetry is turned on.
 Nuclear repulsion after empirical dispersion term =     3009.7979143662 Hartrees.
 One-electron integrals computed using PRISM.
 PrsmSu:  requested number of processors reduced to:   4 ShMem   1 Linda.
   1 Symmetry operations used in ECPInt.
 ECPInt:  NShTT=   13203 NPrTT=   78401 LenC2=   11867 LenP2D=   44801.
 LDataN:  DoStor=T MaxTD1= 8 Len=  415
 Number of processors reduced to  13 by ecpmxn.
 NBasis=   524 RedAO= T EigKep=  2.50D-05  NBF=   524
 NBsUse=   524 1.00D-06 EigRej= -1.00D+00 NBFU=   524
 Defaulting to unpruned grid for atomic number  40.
 ExpMin= 1.01D-02 ExpMax= 1.61D+04 ExpMxC= 2.43D+03 IAcc=3 IRadAn=         5 AccDes= 0.00D+00
 Harris functional with IExCor=  402 and IRadAn=       5 diagonalized for initial guess.
 HarFok:  IExCor=  402 AccDes= 0.00D+00 IRadAn=         5 IDoV= 1 UseB2=F ITyADJ=14
 ICtDFT=  3500011 ScaDFX=  1.000000  1.000000  1.000000  1.000000
 Defaulting to unpruned grid for atomic number  40.
 FoFCou: FMM=F IPFlag=           0 FMFlag=      100000 FMFlg1=           0
         NFxFlg=           0 DoJE=T BraDBF=F KetDBF=T FulRan=T
         wScrn=  0.000000 ICntrl=       500 IOpCl=  0 I1Cent=   200000004 NGrid=           0
         NMat0=    1 NMatS0=      1 NMatT0=    0 NMatD0=    1 NMtDS0=    0 NMtDT0=    0
 Petite list used in FoFCou.
 Requested convergence on RMS density matrix=1.00D-08 within 128 cycles.
 Requested convergence on MAX density matrix=1.00D-06.
 Requested convergence on             energy=1.00D-06.
 No special actions if energy rises.
 Defaulting to unpruned grid for atomic number  40.
 Defaulting to unpruned grid for atomic number  40.
 Defaulting to unpruned grid for atomic number  40.
 Defaulting to unpruned grid for atomic number  40.
 Defaulting to unpruned grid for atomic number  40.
 Defaulting to unpruned grid for atomic number  40.
 Defaulting to unpruned grid for atomic number  40.
 Defaulting to unpruned grid for atomic number  40.
 Defaulting to unpruned grid for atomic number  40.
 Defaulting to unpruned grid for atomic number  40.
 Defaulting to unpruned grid for atomic number  40.
 Defaulting to unpruned grid for atomic number  40.
 Defaulting to unpruned grid for atomic number  40.
 Defaulting to unpruned grid for atomic number  40.
 Defaulting to unpruned grid for atomic number  40.
 Defaulting to unpruned grid for atomic number  40.
 SCF Done:  E(RB3LYP) =  -2416.94106662     A.U. after   14 cycles
            NFock= 14  Conv=0.26D-08     -V/T= 2.0185

 **********************************************************************

            Population analysis using the SCF Density.

 **********************************************************************

 Orbital symmetries:
       Occupied  (A) (A) (A) (A) (A) (A) (A) (A) (A) (A) (A) (A)
                 (A) (A) (A) (A) (A) (A) (A) (A) (A) (A) (A) (A)
                 (A) (A) (A) (A) (A) (A) (A) (A) (A) (A) (A) (A)
                 (A) (A) (A) (A) (A) (A) (A) (A) (A) (A) (A) (A)
                 (A) (A) (A) (A) (A) (A) (A) (A) (A) (A) (A) (A)
                 (A) (A) (A) (A) (A) (A) (A) (A) (A) (A) (A) (A)
                 (A) (A) (A) (A) (A) (A) (A) (A) (A) (A) (A) (A)
                 (A) (A) (A) (A) (A) (A) (A) (A) (A) (A) (A) (A)
                 (A) (A) (A) (A) (A) (A) (A) (A)
       Virtual   (A) (A) (A) (A) (A) (A) (A) (A) (A) (A) (A) (A)
                 (A) (A) (A) (A) (A) (A) (A) (A) (A) (A) (A) (A)
                 (A) (A) (A) (A) (A) (A) (A) (A) (A) (A) (A) (A)
                 (A) (A) (A) (A) (A) (A) (A) (A) (A) (A) (A) (A)
                 (A) (A) (A) (A) (A) (A) (A) (A) (A) (A) (A) (A)
                 (A) (A) (A) (A) (A) (A) (A) (A) (A) (A) (A) (A)
                 (A) (A) (A) (A) (A) (A) (A) (A) (A) (A) (A) (A)
                 (A) (A) (A) (A) (A) (A) (A) (A) (A) (A) (A) (A)
                 (A) (A) (A) (A) (A) (A) (A) (A) (A) (A) (A) (A)
                 (A) (A) (A) (A) (A) (A) (A) (A) (A) (A) (A) (A)
                 (A) (A) (A) (A) (A) (A) (A) (A) (A) (A) (A) (A)
                 (A) (A) (A) (A) (A) (A) (A) (A) (A) (A) (A) (A)
                 (A) (A) (A) (A) (A) (A) (A) (A) (A) (A) (A) (A)
                 (A) (A) (A) (A) (A) (A) (A) (A) (A) (A) (A) (A)
                 (A) (A) (A) (A) (A) (A) (A) (A) (A) (A) (A) (A)
                 (A) (A) (A) (A) (A) (A) (A) (A) (A) (A) (A) (A)
                 (A) (A) (A) (A) (A) (A) (A) (A) (A) (A) (A) (A)
                 (A) (A) (A) (A) (A) (A) (A) (A) (A) (A) (A) (A)
                 (A) (A) (A) (A) (A) (A) (A) (A) (A) (A) (A) (A)
                 (A) (A) (A) (A) (A) (A) (A) (A) (A) (A) (A) (A)
                 (A) (A) (A) (A) (A) (A) (A) (A) (A) (A) (A) (A)
                 (A) (A) (A) (A) (A) (A) (A) (A) (A) (A) (A) (A)
                 (A) (A) (A) (A) (A) (A) (A) (A) (A) (A) (A) (A)
                 (A) (A) (A) (A) (A) (A) (A) (A) (A) (A) (A) (A)
                 (A) (A) (A) (A) (A) (A) (A) (A) (A) (A) (A) (A)
                 (A) (A) (A) (A) (A) (A) (A) (A) (A) (A) (A) (A)
                 (A) (A) (A) (A) (A) (A) (A) (A) (A) (A) (A) (A)
                 (A) (A) (A) (A) (A) (A) (A) (A) (A) (A) (A) (A)
                 (A) (A) (A) (A) (A) (A) (A) (A) (A) (A) (A) (A)
                 (A) (A) (A) (A) (A) (A) (A) (A) (A) (A) (A) (A)
                 (A) (A) (A) (A) (A) (A) (A) (A) (A) (A) (A) (A)
                 (A) (A) (A) (A) (A) (A) (A) (A) (A) (A) (A) (A)
                 (A) (A) (A) (A) (A) (A) (A) (A) (A) (A) (A) (A)
                 (A) (A) (A) (A) (A) (A) (A) (A) (A) (A) (A) (A)
                 (A) (A) (A) (A) (A) (A) (A) (A) (A) (A) (A) (A)
 The electronic state is 1-A.
 Alpha  occ. eigenvalues --  -66.23467 -66.23002 -66.22353 -66.21744 -19.18852
 Alpha  occ. eigenvalues --  -19.18852 -19.18051 -19.17137 -19.17112 -19.16885
 Alpha  occ. eigenvalues --  -19.16596 -19.16328 -19.16156 -19.15983 -19.15830
 Alpha  occ. eigenvalues --  -19.15509 -19.15183 -19.15138 -19.15020 -19.14231
 Alpha  occ. eigenvalues --   -5.37529  -5.36875  -5.36404  -5.35794  -3.73524
 Alpha  occ. eigenvalues --   -3.73494  -3.73422  -3.72920  -3.72859  -3.72750
 Alpha  occ. eigenvalues --   -3.72457  -3.72369  -3.72240  -3.71794  -3.71735
 Alpha  occ. eigenvalues --   -3.71706  -2.12517  -1.28888  -1.28542  -1.28119
 Alpha  occ. eigenvalues --   -1.06584  -1.05373  -1.04436  -1.03194  -1.02797
 Alpha  occ. eigenvalues --   -1.02354  -1.01570  -1.01030  -1.00303  -1.00115
 Alpha  occ. eigenvalues --   -0.99785  -0.99313  -0.97647  -0.96822  -0.96238
 Alpha  occ. eigenvalues --   -0.95244  -0.62623  -0.61025  -0.60025  -0.57003
 Alpha  occ. eigenvalues --   -0.55851  -0.55354  -0.53485  -0.53012  -0.52425
 Alpha  occ. eigenvalues --   -0.52230  -0.51172  -0.50415  -0.50292  -0.50150
 Alpha  occ. eigenvalues --   -0.49171  -0.45808  -0.44043  -0.43683  -0.42901
 Alpha  occ. eigenvalues --   -0.42430  -0.42148  -0.41416  -0.40727  -0.40087
 Alpha  occ. eigenvalues --   -0.39041  -0.38816  -0.38336  -0.37673  -0.37362
 Alpha  occ. eigenvalues --   -0.37083  -0.36885  -0.36639  -0.36213  -0.35852
 Alpha  occ. eigenvalues --   -0.35699  -0.35535  -0.35078  -0.34882  -0.34479
 Alpha  occ. eigenvalues --   -0.34163  -0.33835  -0.33380  -0.33010  -0.32812
 Alpha  occ. eigenvalues --   -0.32721  -0.32323  -0.32221  -0.31718
 Alpha virt. eigenvalues --   -0.04123  -0.02841  -0.02220  -0.01819  -0.01563
 Alpha virt. eigenvalues --   -0.01244  -0.00541   0.00122   0.00607   0.01165
 Alpha virt. eigenvalues --    0.01367   0.01548   0.02204   0.02395   0.02644
 Alpha virt. eigenvalues --    0.03158   0.03257   0.03342   0.03738   0.03904
 Alpha virt. eigenvalues --    0.04052   0.04428   0.04901   0.05663   0.06237
 Alpha virt. eigenvalues --    0.06549   0.07093   0.07306   0.08025   0.08434
 Alpha virt. eigenvalues --    0.08630   0.08871   0.09105   0.09549   0.09795
 Alpha virt. eigenvalues --    0.10264   0.10444   0.10765   0.11088   0.11351
 Alpha virt. eigenvalues --    0.11584   0.11971   0.12354   0.12738   0.12872
 Alpha virt. eigenvalues --    0.13314   0.13910   0.14192   0.14389   0.14909
 Alpha virt. eigenvalues --    0.14968   0.15491   0.15833   0.16099   0.16454
 Alpha virt. eigenvalues --    0.16842   0.17288   0.17425   0.17690   0.18241
 Alpha virt. eigenvalues --    0.18365   0.18826   0.18869   0.19588   0.19717
 Alpha virt. eigenvalues --    0.20325   0.20559   0.21289   0.21454   0.22031
 Alpha virt. eigenvalues --    0.22290   0.22541   0.22811   0.22947   0.23346
 Alpha virt. eigenvalues --    0.23947   0.24053   0.24291   0.24634   0.24775
 Alpha virt. eigenvalues --    0.25235   0.25532   0.25683   0.26010   0.26541
 Alpha virt. eigenvalues --    0.26864   0.27113   0.27550   0.27681   0.27973
 Alpha virt. eigenvalues --    0.28204   0.28468   0.28500   0.28789   0.29473
 Alpha virt. eigenvalues --    0.29501   0.29685   0.30201   0.30523   0.30831
 Alpha virt. eigenvalues --    0.31119   0.31266   0.31665   0.32016   0.32229
 Alpha virt. eigenvalues --    0.32508   0.33444   0.33523   0.33983   0.34574
 Alpha virt. eigenvalues --    0.34784   0.35048   0.35514   0.36342   0.36686
 Alpha virt. eigenvalues --    0.37016   0.37233   0.37601   0.38504   0.38863
 Alpha virt. eigenvalues --    0.39204   0.39837   0.40692   0.41178   0.41751
 Alpha virt. eigenvalues --    0.42170   0.42211   0.43033   0.43782   0.43889
 Alpha virt. eigenvalues --    0.44919   0.45231   0.45458   0.46200   0.46584
 Alpha virt. eigenvalues --    0.46721   0.47630   0.48788   0.49813   0.50012
 Alpha virt. eigenvalues --    0.50596   0.51697   0.52062   0.52906   0.54051
 Alpha virt. eigenvalues --    0.54446   0.54964   0.55846   0.56197   0.57004
 Alpha virt. eigenvalues --    0.57456   0.58126   0.60481   0.60916   0.61360
 Alpha virt. eigenvalues --    0.61951   0.62947   0.63332   0.63505   0.64640
 Alpha virt. eigenvalues --    0.66172   0.66415   0.67375   0.68393   0.69480
 Alpha virt. eigenvalues --    0.70098   0.71002   0.71334   0.71808   0.73275
 Alpha virt. eigenvalues --    0.73605   0.74484   0.75507   0.76701   0.77320
 Alpha virt. eigenvalues --    0.79897   0.80710   0.81551   0.82746   0.83662
 Alpha virt. eigenvalues --    0.84396   0.85818   0.87660   0.89204   0.93657
 Alpha virt. eigenvalues --    0.94068   0.95116   0.95691   0.96187   0.97026
 Alpha virt. eigenvalues --    0.97720   0.99092   0.99960   1.00595   1.01848
 Alpha virt. eigenvalues --    1.02326   1.04208   1.05091   1.05780   1.06539
 Alpha virt. eigenvalues --    1.07329   1.07475   1.08588   1.10028   1.11072
 Alpha virt. eigenvalues --    1.12194   1.13122   1.14068   1.14988   1.16093
 Alpha virt. eigenvalues --    1.18491   1.19414   1.20790   1.20962   1.21397
 Alpha virt. eigenvalues --    1.22423   1.22655   1.23027   1.23367   1.23964
 Alpha virt. eigenvalues --    1.24231   1.25014   1.25588   1.26194   1.26334
 Alpha virt. eigenvalues --    1.26648   1.26863   1.27672   1.28380   1.28977
 Alpha virt. eigenvalues --    1.29490   1.29958   1.30180   1.30729   1.31218
 Alpha virt. eigenvalues --    1.31556   1.32208   1.32878   1.33671   1.34105
 Alpha virt. eigenvalues --    1.34509   1.35203   1.36131   1.36541   1.37163
 Alpha virt. eigenvalues --    1.38135   1.38439   1.39379   1.40016   1.40800
 Alpha virt. eigenvalues --    1.42405   1.43069   1.44554   1.44693   1.46167
 Alpha virt. eigenvalues --    1.47208   1.48776   1.50265   1.51710   1.52902
 Alpha virt. eigenvalues --    1.55878   1.56492   1.58020   1.58913   1.59168
 Alpha virt. eigenvalues --    1.60049   1.60333   1.61753   1.62551   1.63357
 Alpha virt. eigenvalues --    1.64044   1.65564   1.65867   1.66207   1.66859
 Alpha virt. eigenvalues --    1.67918   1.68589   1.69083   1.70018   1.70129
 Alpha virt. eigenvalues --    1.71140   1.71530   1.72464   1.72843   1.73439
 Alpha virt. eigenvalues --    1.73794   1.74718   1.75020   1.75503   1.76103
 Alpha virt. eigenvalues --    1.77039   1.77759   1.77882   1.78318   1.78982
 Alpha virt. eigenvalues --    1.80273   1.80568   1.80956   1.82197   1.82519
 Alpha virt. eigenvalues --    1.83487   1.84488   1.84985   1.85762   1.86113
 Alpha virt. eigenvalues --    1.87272   1.87840   1.88940   1.90178   1.90897
 Alpha virt. eigenvalues --    1.91582   1.91724   1.93299   1.94226   1.94788
 Alpha virt. eigenvalues --    1.95461   1.97065   1.97425   1.98382   1.99328
 Alpha virt. eigenvalues --    2.00666   2.01577   2.01984   2.02851   2.04129
 Alpha virt. eigenvalues --    2.04214   2.04560   2.06449   2.07797   2.08219
 Alpha virt. eigenvalues --    2.09062   2.11188   2.11995   2.13439   2.14610
 Alpha virt. eigenvalues --    2.17063   2.17633   2.18548   2.22600   2.22846
 Alpha virt. eigenvalues --    2.26053   2.26392   2.32313   2.35934   2.37878
 Alpha virt. eigenvalues --    2.38315   2.39683   2.39839   2.40532   2.42315
 Alpha virt. eigenvalues --    2.42980   2.44173   2.45990   2.47006   2.47548
 Alpha virt. eigenvalues --    2.48230   2.49399   2.50345   2.51807   2.54414
 Alpha virt. eigenvalues --    2.54831   2.56744   2.58761   2.59376   2.60074
 Alpha virt. eigenvalues --    2.60628   2.60918   2.61109   2.62265   2.63137
 Alpha virt. eigenvalues --    2.63467   2.64565   2.65329   2.65568   2.66239
 Alpha virt. eigenvalues --    2.67014   2.67946   2.70313   2.70951   2.71776
 Alpha virt. eigenvalues --    2.72373   2.72577   2.74010   2.75472   2.76166
 Alpha virt. eigenvalues --    2.77067   2.77299   2.77848   2.78379   2.80637
 Alpha virt. eigenvalues --    2.82070   2.83672   2.84061   2.84946   2.86093
 Alpha virt. eigenvalues --    2.86508   2.87055   2.89329   2.93543   2.95861
 Alpha virt. eigenvalues --    2.99395   3.04094   3.17308   3.26905   3.46376
 Alpha virt. eigenvalues --    3.48004   3.48738   3.49918   3.50190   3.56496
 Alpha virt. eigenvalues --    3.58493   3.60280   3.61226   3.63936   3.71943
 Alpha virt. eigenvalues --    3.72246   4.00148   4.12331   6.06200  30.84602
          Condensed to atoms (all electrons):
               1          2          3          4          5          6
     1  Si  22.821889  -1.134339  -2.295503  -1.516985  -3.615544  -0.111320
     2  O   -1.134339   9.989992   0.471180  -0.075002   0.223856  -0.114164
     3  O   -2.295503   0.471180  10.823894   0.387512   0.932038   0.044371
     4  O   -1.516985  -0.075002   0.387512   9.761040   0.543587  -0.599886
     5  O   -3.615544   0.223856   0.932038   0.543587  10.364828  -0.023566
     6  Si  -0.111320  -0.114164   0.044371  -0.599886  -0.023566  13.645138
     7  Si  -1.463915  -0.172790  -1.674811  -0.006093   0.277962   0.040696
     8  Si  -0.173104  -0.573512  -0.132000   0.052277   0.039277  -0.210480
     9  Zr  -0.965209   0.060118  -0.385864  -0.015952   0.179936   0.007334
    10  O   -0.024412   0.001085   0.006357   0.001101  -0.017327  -0.000894
    11  O    0.057355  -0.003727  -0.045474  -0.001496  -0.037025  -0.000277
    12  O    0.034437   0.003110  -0.013638  -0.008183  -0.024184  -0.001621
    13  O   -0.019524   0.240112   0.000898  -0.006651  -0.002786   0.064634
    14  O   -0.055257   0.384509   0.117587  -0.020443  -0.011739   0.012636
    15  O    0.010070   0.090990   0.006080   0.001992  -0.004738  -0.011701
    16  O    0.059112   0.014684  -0.006470   0.272555  -0.013501  -0.515429
    17  O   -0.085787  -0.033077   0.038900   0.261343   0.021234  -0.365965
    18  O   -0.086684  -0.005829  -0.011135   0.179762   0.006245  -0.305047
    19  O    0.146611  -0.008584   0.481913   0.016509  -0.009884  -0.007318
    20  O    0.194548  -0.006063   0.387932  -0.004915  -0.028551   0.001796
    21  O   -0.015165   0.047112   0.228791  -0.007035  -0.006217   0.000363
    22  H    0.000675  -0.000003   0.002607   0.000098   0.000131  -0.000145
    23  H   -0.001125   0.000001  -0.000091   0.000002  -0.000342   0.000012
    24  H   -0.008862   0.000378   0.002109   0.000017   0.000093  -0.000010
    25  H   -0.000897  -0.006057  -0.000112   0.002951   0.000028   0.005178
    26  H   -0.008805  -0.015684   0.000363  -0.000085   0.000160  -0.000100
    27  H    0.013724  -0.032755  -0.014215  -0.004782  -0.000250   0.006075
    28  H   -0.007168  -0.000127   0.003989   0.000361   0.000978  -0.000449
    29  H   -0.002134  -0.006663  -0.027048   0.000824  -0.000223  -0.000517
    30  H   -0.002768  -0.000080  -0.008867  -0.000212   0.000164   0.000239
    31  H   -0.000562  -0.002578   0.000045  -0.023037   0.000093   0.078471
    32  H    0.000823  -0.000179   0.000344   0.001825   0.000180   0.030351
    33  H   -0.016510   0.001211  -0.005828  -0.012235  -0.000370   0.051989
               7          8          9         10         11         12
     1  Si  -1.463915  -0.173104  -0.965209  -0.024412   0.057355   0.034437
     2  O   -0.172790  -0.573512   0.060118   0.001085  -0.003727   0.003110
     3  O   -1.674811  -0.132000  -0.385864   0.006357  -0.045474  -0.013638
     4  O   -0.006093   0.052277  -0.015952   0.001101  -0.001496  -0.008183
     5  O    0.277962   0.039277   0.179936  -0.017327  -0.037025  -0.024184
     6  Si   0.040696  -0.210480   0.007334  -0.000894  -0.000277  -0.001621
     7  Si  16.053404   0.174176   0.227216   0.001601  -0.017794  -0.022164
     8  Si   0.174176  12.896154   0.063711  -0.000653   0.001457   0.001344
     9  Zr   0.227216   0.063711  11.618833  -0.068657   0.133625   0.116601
    10  O    0.001601  -0.000653  -0.068657   8.723425  -0.039711  -0.035712
    11  O   -0.017794   0.001457   0.133625  -0.039711   8.378832  -0.024751
    12  O   -0.022164   0.001344   0.116601  -0.035712  -0.024751   8.473536
    13  O    0.010396  -0.166814  -0.007231  -0.000001  -0.000051  -0.000004
    14  O   -0.138125  -0.495671  -0.025491  -0.000005   0.000154   0.000024
    15  O   -0.015633  -0.090554  -0.010401  -0.000006   0.000198   0.000008
    16  O   -0.003800  -0.014839  -0.011935   0.000000   0.000006   0.000038
    17  O   -0.066268   0.119561  -0.012162  -0.000010  -0.000073  -0.000006
    18  O   -0.003814   0.112712  -0.004623   0.000001  -0.000012  -0.000010
    19  O   -0.718433  -0.030940  -0.055612  -0.000037   0.000062  -0.002073
    20  O   -0.746702   0.005362  -0.052359  -0.000456   0.000346   0.003031
    21  O   -0.153857  -0.043637  -0.015848  -0.000003   0.003582   0.001198
    22  H   -0.000163   0.000032  -0.028438  -0.002193   0.000331   0.269220
    23  H   -0.000116   0.000037  -0.081645   0.342940  -0.000326  -0.000204
    24  H    0.000587  -0.000846  -0.057262   0.000444   0.316165  -0.001908
    25  H   -0.000841   0.042704  -0.000323  -0.000000   0.000000   0.000000
    26  H    0.000647   0.062620   0.000190   0.000000   0.000036   0.000000
    27  H    0.016395   0.088970   0.002105   0.000000  -0.000003  -0.000000
    28  H    0.016266  -0.000298   0.000848   0.000255  -0.000397   0.025624
    29  H    0.066613   0.023010  -0.000975  -0.000000   0.000017  -0.000003
    30  H    0.052731   0.000164   0.002133   0.000000   0.000001   0.000043
    31  H    0.000445  -0.003710   0.000145   0.000000   0.000000   0.000000
    32  H   -0.000442   0.000082   0.000814  -0.000000  -0.000000  -0.000001
    33  H    0.021491  -0.003383  -0.000354   0.000000   0.000003   0.000007
              13         14         15         16         17         18
     1  Si  -0.019524  -0.055257   0.010070   0.059112  -0.085787  -0.086684
     2  O    0.240112   0.384509   0.090990   0.014684  -0.033077  -0.005829
     3  O    0.000898   0.117587   0.006080  -0.006470   0.038900  -0.011135
     4  O   -0.006651  -0.020443   0.001992   0.272555   0.261343   0.179762
     5  O   -0.002786  -0.011739  -0.004738  -0.013501   0.021234   0.006245
     6  Si   0.064634   0.012636  -0.011701  -0.515429  -0.365965  -0.305047
     7  Si   0.010396  -0.138125  -0.015633  -0.003800  -0.066268  -0.003814
     8  Si  -0.166814  -0.495671  -0.090554  -0.014839   0.119561   0.112712
     9  Zr  -0.007231  -0.025491  -0.010401  -0.011935  -0.012162  -0.004623
    10  O   -0.000001  -0.000005  -0.000006   0.000000  -0.000010   0.000001
    11  O   -0.000051   0.000154   0.000198   0.000006  -0.000073  -0.000012
    12  O   -0.000004   0.000024   0.000008   0.000038  -0.000006  -0.000010
    13  O    8.630094   0.010564  -0.078597   0.003352  -0.024820  -0.044166
    14  O    0.010564   8.988168   0.086647   0.006141  -0.060046  -0.026727
    15  O   -0.078597   0.086647   8.618956  -0.000218   0.003544   0.002128
    16  O    0.003352   0.006141  -0.000218   8.947337  -0.122986  -0.073976
    17  O   -0.024820  -0.060046   0.003544  -0.122986   8.998871   0.170744
    18  O   -0.044166  -0.026727   0.002128  -0.073976   0.170744   8.899028
    19  O    0.000394   0.019970   0.000634  -0.001675  -0.017439  -0.000662
    20  O   -0.000024  -0.003588   0.000314   0.000002   0.001725   0.000040
    21  O   -0.001126   0.044193   0.005159  -0.000077  -0.009701  -0.000040
    22  H   -0.000000  -0.000000   0.000000  -0.000000   0.000000  -0.000000
    23  H   -0.000000  -0.000000   0.000000   0.000000   0.000000   0.000000
    24  H    0.000001  -0.000006   0.000014   0.000000   0.000001   0.000000
    25  H    0.227689  -0.008558   0.006832   0.000167   0.000343   0.010802
    26  H   -0.007348   0.003548   0.232297   0.000000  -0.000012   0.000010
    27  H   -0.002549   0.187816   0.001581  -0.000153   0.012814   0.000948
    28  H    0.000000  -0.000008  -0.000002  -0.000003  -0.000009   0.000000
    29  H    0.000561   0.002780   0.000107  -0.000010  -0.000268   0.000025
    30  H   -0.000002  -0.000449   0.000000  -0.000073   0.000532  -0.000005
    31  H    0.002123  -0.000080  -0.000012  -0.001367   0.001821   0.215125
    32  H   -0.000002  -0.000013   0.000000   0.231223  -0.002909   0.004455
    33  H    0.000665   0.000433  -0.000153   0.000187   0.213437   0.003356
              19         20         21         22         23         24
     1  Si   0.146611   0.194548  -0.015165   0.000675  -0.001125  -0.008862
     2  O   -0.008584  -0.006063   0.047112  -0.000003   0.000001   0.000378
     3  O    0.481913   0.387932   0.228791   0.002607  -0.000091   0.002109
     4  O    0.016509  -0.004915  -0.007035   0.000098   0.000002   0.000017
     5  O   -0.009884  -0.028551  -0.006217   0.000131  -0.000342   0.000093
     6  Si  -0.007318   0.001796   0.000363  -0.000145   0.000012  -0.000010
     7  Si  -0.718433  -0.746702  -0.153857  -0.000163  -0.000116   0.000587
     8  Si  -0.030940   0.005362  -0.043637   0.000032   0.000037  -0.000846
     9  Zr  -0.055612  -0.052359  -0.015848  -0.028438  -0.081645  -0.057262
    10  O   -0.000037  -0.000456  -0.000003  -0.002193   0.342940   0.000444
    11  O    0.000062   0.000346   0.003582   0.000331  -0.000326   0.316165
    12  O   -0.002073   0.003031   0.001198   0.269220  -0.000204  -0.001908
    13  O    0.000394  -0.000024  -0.001126  -0.000000  -0.000000   0.000001
    14  O    0.019970  -0.003588   0.044193  -0.000000  -0.000000  -0.000006
    15  O    0.000634   0.000314   0.005159   0.000000   0.000000   0.000014
    16  O   -0.001675   0.000002  -0.000077  -0.000000   0.000000   0.000000
    17  O   -0.017439   0.001725  -0.009701   0.000000   0.000000   0.000001
    18  O   -0.000662   0.000040  -0.000040  -0.000000   0.000000   0.000000
    19  O    9.031300   0.044686  -0.056870   0.000029  -0.000000   0.000045
    20  O    0.044686   8.695361   0.076883   0.001742  -0.000003  -0.000356
    21  O   -0.056870   0.076883   8.563804  -0.000000  -0.000000  -0.000812
    22  H    0.000029   0.001742  -0.000000   0.361679   0.000002  -0.000006
    23  H   -0.000000  -0.000003  -0.000000   0.000002   0.367386   0.000010
    24  H    0.000045  -0.000356  -0.000812  -0.000006   0.000010   0.363561
    25  H   -0.000034   0.000001  -0.000001  -0.000000   0.000000  -0.000000
    26  H   -0.000001  -0.000001   0.000006  -0.000000  -0.000000  -0.000001
    27  H   -0.001705   0.000057  -0.003134   0.000000   0.000000  -0.000000
    28  H   -0.006099   0.245826  -0.000552  -0.000789   0.000000   0.000025
    29  H   -0.006308   0.004609   0.210428   0.000000  -0.000000   0.000009
    30  H    0.220035  -0.007030  -0.003525   0.000000  -0.000000   0.000000
    31  H    0.000018  -0.000000  -0.000000   0.000000  -0.000000  -0.000000
    32  H    0.000020  -0.000001   0.000000   0.000000  -0.000000   0.000000
    33  H    0.013331   0.000188   0.002462  -0.000000  -0.000000  -0.000000
              25         26         27         28         29         30
     1  Si  -0.000897  -0.008805   0.013724  -0.007168  -0.002134  -0.002768
     2  O   -0.006057  -0.015684  -0.032755  -0.000127  -0.006663  -0.000080
     3  O   -0.000112   0.000363  -0.014215   0.003989  -0.027048  -0.008867
     4  O    0.002951  -0.000085  -0.004782   0.000361   0.000824  -0.000212
     5  O    0.000028   0.000160  -0.000250   0.000978  -0.000223   0.000164
     6  Si   0.005178  -0.000100   0.006075  -0.000449  -0.000517   0.000239
     7  Si  -0.000841   0.000647   0.016395   0.016266   0.066613   0.052731
     8  Si   0.042704   0.062620   0.088970  -0.000298   0.023010   0.000164
     9  Zr  -0.000323   0.000190   0.002105   0.000848  -0.000975   0.002133
    10  O   -0.000000   0.000000   0.000000   0.000255  -0.000000   0.000000
    11  O    0.000000   0.000036  -0.000003  -0.000397   0.000017   0.000001
    12  O    0.000000   0.000000  -0.000000   0.025624  -0.000003   0.000043
    13  O    0.227689  -0.007348  -0.002549   0.000000   0.000561  -0.000002
    14  O   -0.008558   0.003548   0.187816  -0.000008   0.002780  -0.000449
    15  O    0.006832   0.232297   0.001581  -0.000002   0.000107   0.000000
    16  O    0.000167   0.000000  -0.000153  -0.000003  -0.000010  -0.000073
    17  O    0.000343  -0.000012   0.012814  -0.000009  -0.000268   0.000532
    18  O    0.010802   0.000010   0.000948   0.000000   0.000025  -0.000005
    19  O   -0.000034  -0.000001  -0.001705  -0.006099  -0.006308   0.220035
    20  O    0.000001  -0.000001   0.000057   0.245826   0.004609  -0.007030
    21  O   -0.000001   0.000006  -0.003134  -0.000552   0.210428  -0.003525
    22  H   -0.000000  -0.000000   0.000000  -0.000789   0.000000   0.000000
    23  H    0.000000  -0.000000   0.000000   0.000000  -0.000000  -0.000000
    24  H   -0.000000  -0.000001  -0.000000   0.000025   0.000009   0.000000
    25  H    0.304271  -0.000011  -0.000106  -0.000000  -0.000001   0.000000
    26  H   -0.000011   0.361111  -0.000053   0.000000   0.000011   0.000000
    27  H   -0.000106  -0.000053   0.309460   0.000000  -0.000385   0.000052
    28  H   -0.000000   0.000000   0.000000   0.292492  -0.000025   0.000065
    29  H   -0.000001   0.000011  -0.000385  -0.000025   0.298008   0.000128
    30  H    0.000000   0.000000   0.000052   0.000065   0.000128   0.333522
    31  H   -0.000317   0.000000   0.000010   0.000000   0.000000   0.000000
    32  H   -0.000001  -0.000000  -0.000000   0.000000  -0.000000   0.000000
    33  H   -0.000005   0.000000  -0.001533  -0.000003   0.000081  -0.000489
              31         32         33
     1  Si  -0.000562   0.000823  -0.016510
     2  O   -0.002578  -0.000179   0.001211
     3  O    0.000045   0.000344  -0.005828
     4  O   -0.023037   0.001825  -0.012235
     5  O    0.000093   0.000180  -0.000370
     6  Si   0.078471   0.030351   0.051989
     7  Si   0.000445  -0.000442   0.021491
     8  Si  -0.003710   0.000082  -0.003383
     9  Zr   0.000145   0.000814  -0.000354
    10  O    0.000000  -0.000000   0.000000
    11  O    0.000000  -0.000000   0.000003
    12  O    0.000000  -0.000001   0.000007
    13  O    0.002123  -0.000002   0.000665
    14  O   -0.000080  -0.000013   0.000433
    15  O   -0.000012   0.000000  -0.000153
    16  O   -0.001367   0.231223   0.000187
    17  O    0.001821  -0.002909   0.213437
    18  O    0.215125   0.004455   0.003356
    19  O    0.000018   0.000020   0.013331
    20  O   -0.000000  -0.000001   0.000188
    21  O   -0.000000   0.000000   0.002462
    22  H    0.000000   0.000000  -0.000000
    23  H   -0.000000  -0.000000  -0.000000
    24  H   -0.000000   0.000000  -0.000000
    25  H   -0.000317  -0.000001  -0.000005
    26  H    0.000000  -0.000000   0.000000
    27  H    0.000010  -0.000000  -0.001533
    28  H    0.000000   0.000000  -0.000003
    29  H    0.000000  -0.000000   0.000081
    30  H    0.000000   0.000000  -0.000489
    31  H    0.335723   0.000016  -0.000047
    32  H    0.000016   0.348128   0.000127
    33  H   -0.000047   0.000127   0.278446
 Mulliken charges:
               1
     1  Si   2.272337
     2  O   -1.337124
     3  O   -1.315854
     4  O   -1.180762
     5  O   -0.794542
     6  Si   2.279606
     7  Si   2.245135
     8  Si   2.256792
     9  Zr   1.386734
    10  O   -0.887134
    11  O   -0.721052
    12  O   -0.793758
    13  O   -0.829788
    14  O   -1.018963
    15  O   -0.855536
    16  O   -0.768294
    17  O   -1.043332
    18  O   -1.042651
    19  O   -1.051884
    20  O   -0.814400
    21  O   -0.866381
    22  H    0.395191
    23  H    0.373463
    24  H    0.386608
    25  H    0.416298
    26  H    0.371101
    27  H    0.421619
    28  H    0.429201
    29  H    0.437349
    30  H    0.413690
    31  H    0.397676
    32  H    0.385160
    33  H    0.453496
 Sum of Mulliken charges =  -0.00000
 Mulliken charges with hydrogens summed into heavy atoms:
               1
     1  Si   2.272337
     2  O   -1.337124
     3  O   -1.315854
     4  O   -1.180762
     5  O   -0.794542
     6  Si   2.279606
     7  Si   2.245135
     8  Si   2.256792
     9  Zr   1.386734
    10  O   -0.513671
    11  O   -0.334444
    12  O   -0.398567
    13  O   -0.413490
    14  O   -0.597344
    15  O   -0.484434
    16  O   -0.383134
    17  O   -0.589837
    18  O   -0.644975
    19  O   -0.638195
    20  O   -0.385199
    21  O   -0.429031
 Electronic spatial extent (au):  <R**2>=           8262.2303
 Charge=              0.0000 electrons
 Dipole moment (field-independent basis, Debye):
    X=             -2.5463    Y=             -3.7745    Z=             -2.4714  Tot=              5.1806
 Quadrupole moment (field-independent basis, Debye-Ang):
   XX=           -156.6115   YY=           -156.7270   ZZ=           -159.3067
   XY=             -4.6873   XZ=              2.8420   YZ=             -7.6120
 Traceless Quadrupole moment (field-independent basis, Debye-Ang):
   XX=              0.9369   YY=              0.8214   ZZ=             -1.7583
   XY=             -4.6873   XZ=              2.8420   YZ=             -7.6120
 Octapole moment (field-independent basis, Debye-Ang**2):
  XXX=           -219.4181  YYY=            -19.9514  ZZZ=            -46.1969  XYY=            -62.6264
  XXY=            -37.7540  XXZ=            -62.0564  XZZ=              6.2778  YZZ=            -28.2069
  YYZ=            -29.6448  XYZ=              7.6390
 Hexadecapole moment (field-independent basis, Debye-Ang**3):
 XXXX=          -5558.6163 YYYY=          -2186.3298 ZZZZ=          -2217.0476 XXXY=             32.3374
 XXXZ=            161.8115 YYYX=             12.0650 YYYZ=            -93.2740 ZZZX=            182.6240
 ZZZY=           -107.8599 XXYY=          -1488.5903 XXZZ=          -1148.5406 YYZZ=           -728.7273
 XXYZ=             24.3677 YYXZ=            -32.4088 ZZXY=            -99.5235
 N-N= 3.009797914366D+03 E-N=-1.173162542539D+04  KE= 2.373055708693D+03
 PrsmSu:  requested number of processors reduced to:   2 ShMem   1 Linda.
 PrsmSu:  requested number of processors reduced to:  10 ShMem   1 Linda.
   1 Symmetry operations used in ECPInt.
 ECPInt:  NShTT=   13203 NPrTT=   78401 LenC2=   11867 LenP2D=   44801.
 LDataN:  DoStor=T MaxTD1= 9 Len=  602
 Number of processors reduced to  14 by ecpmxn.
 Calling FoFJK, ICntrl=      2127 FMM=F ISym2X=0 I1Cent= 0 IOpClX= 0 NMat=1 NMatS=1 NMatT=0.
 CoulSu:  requested number of processors reduced to:  10 ShMem   1 Linda.
 Defaulting to unpruned grid for atomic number  40.
 Defaulting to unpruned grid for atomic number  40.
 Defaulting to unpruned grid for atomic number  40.
 Defaulting to unpruned grid for atomic number  40.
 Defaulting to unpruned grid for atomic number  40.
 Defaulting to unpruned grid for atomic number  40.
 Defaulting to unpruned grid for atomic number  40.
 Defaulting to unpruned grid for atomic number  40.
 Defaulting to unpruned grid for atomic number  40.
 Defaulting to unpruned grid for atomic number  40.
 Defaulting to unpruned grid for atomic number  40.
 Defaulting to unpruned grid for atomic number  40.
 Defaulting to unpruned grid for atomic number  40.
 Defaulting to unpruned grid for atomic number  40.
 Defaulting to unpruned grid for atomic number  40.
 Defaulting to unpruned grid for atomic number  40.
 ***** Axes restored to original set *****
 -------------------------------------------------------------------
 Center     Atomic                   Forces (Hartrees/Bohr)
 Number     Number              X              Y              Z
 -------------------------------------------------------------------
      1       14           0.007064951   -0.000414268    0.004637614
      2        8          -0.000416146   -0.000358041   -0.000484305
      3        8          -0.001115759    0.000733607    0.003947224
      4        8          -0.000531677    0.000346415   -0.000481642
      5        8           0.001423624    0.000127387   -0.002302763
      6       14           0.000525836   -0.000321080   -0.000083366
      7       14          -0.004187276   -0.003104245   -0.008402048
      8       14           0.000487394    0.000292724   -0.000012206
      9       40          -0.001923062    0.004668061   -0.000507110
     10        8          -0.000543103    0.000012827    0.000648527
     11        8          -0.001481014   -0.000033973    0.001637132
     12        8          -0.005211098   -0.005032090   -0.001387595
     13        8          -0.000155646   -0.000042082   -0.000077769
     14        8          -0.000194598   -0.000031739    0.000079925
     15        8          -0.000095286   -0.000146023   -0.000053280
     16        8          -0.000078732    0.000169010   -0.000001997
     17        8          -0.000105453    0.000144184    0.000160855
     18        8          -0.000094203    0.000032059   -0.000036557
     19        8           0.000746163    0.000454625    0.001148022
     20        8           0.008026335    0.003693192   -0.005416027
     21        8           0.000594755    0.000833085    0.001266678
     22        1          -0.000742117    0.000034647    0.001320848
     23        1          -0.000066464   -0.000230310    0.000133456
     24        1           0.000336407   -0.000243898   -0.000394795
     25        1           0.000035472   -0.000004726    0.000027771
     26        1          -0.000010754    0.000040542    0.000020051
     27        1           0.000073399   -0.000029571   -0.000034527
     28        1          -0.002107061   -0.001641643    0.004928425
     29        1           0.000092911    0.000090573   -0.000186131
     30        1          -0.000305823    0.000117150    0.000077320
     31        1           0.000015216   -0.000006486    0.000031048
     32        1          -0.000004030   -0.000051957   -0.000001070
     33        1          -0.000053162   -0.000097958   -0.000201709
 -------------------------------------------------------------------
 Cartesian Forces:  Max     0.008402048 RMS     0.002080178

 GradGradGradGradGradGradGradGradGradGradGradGradGradGradGradGradGradGrad
 Berny optimization.
 FormGI is forming the generalized inverse of G from B-inverse, IUseBI=4.
 Internal  Forces:  Max     0.016634331 RMS     0.002497183
 Search for a local minimum.
 Step number   1 out of a maximum of  164
 All quantities printed in internal units (Hartrees-Bohrs-Radians)
 Mixed Optimization -- RFO/linear search
 Second derivative matrix not updated -- first step.
 ITU=  0
     Eigenvalues ---    0.00230   0.00230   0.00230   0.00504   0.03211
     Eigenvalues ---    0.03439   0.03520   0.03558   0.03586   0.03627
     Eigenvalues ---    0.03673   0.03711   0.03747   0.03753   0.03833
     Eigenvalues ---    0.03844   0.03910   0.03946   0.03957   0.04653
     Eigenvalues ---    0.04952   0.08461   0.08716   0.10417   0.11319
     Eigenvalues ---    0.11516   0.11815   0.11842   0.12054   0.12258
     Eigenvalues ---    0.12943   0.12968   0.13045   0.13221   0.14873
     Eigenvalues ---    0.15285   0.16000   0.16000   0.16000   0.16000
     Eigenvalues ---    0.16000   0.16000   0.16000   0.16000   0.16000
     Eigenvalues ---    0.16000   0.16000   0.16000   0.17756   0.18662
     Eigenvalues ---    0.18842   0.20145   0.20369   0.20384   0.21054
     Eigenvalues ---    0.21061   0.21266   0.21382   0.21865   0.22128
     Eigenvalues ---    0.22743   0.25000   0.25000   0.25000   0.36323
     Eigenvalues ---    0.37725   0.40032   0.40890   0.41311   0.41617
     Eigenvalues ---    0.42076   0.42599   0.43032   0.43450   0.43522
     Eigenvalues ---    0.44473   0.44608   0.45420   0.45878   0.46010
     Eigenvalues ---    0.50565   0.51158   0.51894   0.52645   0.52665
     Eigenvalues ---    0.54349   0.54581   0.54655   0.54657   0.54845
     Eigenvalues ---    0.55241   0.557771000.000001000.000001000.00000
     Eigenvalues --- 1000.000001000.000001000.000001000.000001000.00000
     Eigenvalues --- 1000.000001000.000001000.000001000.000001000.00000
     Eigenvalues --- 1000.000001000.000001000.000001000.000001000.00000
     Eigenvalues --- 1000.000001000.000001000.000001000.000001000.00000
     Eigenvalues --- 1000.000001000.000001000.000001000.000001000.00000
     Eigenvalues --- 1000.000001000.000001000.000001000.000001000.00000
     Eigenvalues --- 1000.000001000.000001000.000001000.000001000.00000
     Eigenvalues --- 1000.000001000.000001000.000001000.000001000.00000
     Eigenvalues --- 1000.000001000.000001000.000001000.000001000.00000
     Eigenvalues --- 1000.000001000.000001000.000001000.000001000.00000
     Eigenvalues --- 1000.000001000.000001000.000001000.000001000.00000
     Eigenvalues --- 1000.000001000.000001000.000001000.00000
 RFO step:  Lambda=-5.56574521D-03 EMin= 2.30000000D-03
 Linear search not attempted -- first point.
 Iteration  1 RMS(Cart)=  0.14550528 RMS(Int)=  0.00428718
 Iteration  2 RMS(Cart)=  0.00734073 RMS(Int)=  0.00024853
 Iteration  3 RMS(Cart)=  0.00001399 RMS(Int)=  0.00024834
 Iteration  4 RMS(Cart)=  0.00000001 RMS(Int)=  0.00024834
 Iteration  1 RMS(Cart)=  0.00006909 RMS(Int)=  0.00003394
 Iteration  2 RMS(Cart)=  0.00004733 RMS(Int)=  0.00003743
 Iteration  3 RMS(Cart)=  0.00003242 RMS(Int)=  0.00004310
 Iteration  4 RMS(Cart)=  0.00002221 RMS(Int)=  0.00004802
 Iteration  5 RMS(Cart)=  0.00001521 RMS(Int)=  0.00005173
 Iteration  6 RMS(Cart)=  0.00001042 RMS(Int)=  0.00005439
 Iteration  7 RMS(Cart)=  0.00000714 RMS(Int)=  0.00005627
 Iteration  8 RMS(Cart)=  0.00000489 RMS(Int)=  0.00005758
 Iteration  9 RMS(Cart)=  0.00000335 RMS(Int)=  0.00005848
 Iteration 10 RMS(Cart)=  0.00000229 RMS(Int)=  0.00005910
 Iteration 11 RMS(Cart)=  0.00000157 RMS(Int)=  0.00005953
 Iteration 12 RMS(Cart)=  0.00000108 RMS(Int)=  0.00005983
 Iteration 13 RMS(Cart)=  0.00000074 RMS(Int)=  0.00006003
 Variable       Old X    -DE/DX   Delta X   Delta X   Delta X     New X
                                 (Linear)    (Quad)   (Total)
    R1        3.07970   0.00042   0.00000   0.00090   0.00090   3.08060
    R2        3.15210  -0.00155   0.00000  -0.00383  -0.00383   3.14827
    R3        3.11330   0.00045   0.00000   0.00103   0.00103   3.11434
    R4        3.06222   0.00182   0.00000  -0.01034  -0.01004   3.05218
    R5        5.91545  -0.00907   0.00000  -0.04138  -0.04136   5.87409
    R6        3.13114  -0.00016   0.00000  -0.00037  -0.00037   3.13076
    R7        3.12526  -0.00677   0.00000  -0.01588  -0.01588   3.10939
    R8        3.11868  -0.00026   0.00000  -0.00060  -0.00060   3.11807
    R9        3.82374  -0.00027   0.00000  -0.03697  -0.03723   3.78651
   R10        3.10818   0.00013   0.00000   0.00030   0.00030   3.10848
   R11        3.10731  -0.00003   0.00000  -0.00008  -0.00008   3.10723
   R12        3.13510   0.00004   0.00000   0.00009   0.00009   3.13520
   R13        3.18468   0.00026   0.00000   0.00067   0.00067   3.18535
   R14        3.07820   0.00561   0.00000   0.01204   0.01204   3.09024
   R15        3.08491  -0.00057   0.00000  -0.00124  -0.00124   3.08367
   R16        3.09593   0.00013   0.00000   0.00028   0.00028   3.09621
   R17        3.14061   0.00004   0.00000   0.00008   0.00008   3.14070
   R18        3.09434   0.00006   0.00000   0.00014   0.00014   3.09448
[...]
 Alpha virt. eigenvalues --    3.48153   3.49210   3.49713   3.52222   3.57041
 Alpha virt. eigenvalues --    3.60164   3.61232   3.62405   3.63874   3.73507
 Alpha virt. eigenvalues --    3.77371   4.05831   4.11047   6.25623  30.88030
          Condensed to atoms (all electrons):
               1          2          3          4          5          6
     1  Si  23.708827  -1.357715  -2.586092  -1.525801  -3.723744  -0.079434
     2  O   -1.357715   9.997929   0.565613  -0.098283   0.294325  -0.080300
     3  O   -2.586092   0.565613  11.073081   0.415971   0.967121   0.035125
     4  O   -1.525801  -0.098283   0.415971   9.749514   0.549179  -0.545757
     5  O   -3.723744   0.294325   0.967121   0.549179  10.331334  -0.035572
     6  Si  -0.079434  -0.080300   0.035125  -0.545757  -0.035572  13.519694
     7  Si  -1.711279  -0.133523  -1.880242  -0.011743   0.292438   0.029698
     8  Si  -0.160884  -0.542742  -0.130341   0.056761   0.030510  -0.208649
     9  Zr  -1.081401   0.078367  -0.395851  -0.017572   0.202662   0.002245
    10  O   -0.020748   0.001096   0.004937   0.000764  -0.018812  -0.000725
    11  O    0.059765  -0.005640  -0.039576  -0.001125  -0.041782  -0.000265
    12  O    0.034029   0.003806  -0.015224  -0.009954  -0.025261  -0.002451
    13  O   -0.022911   0.223542   0.000774  -0.007615  -0.002308   0.064408
    14  O   -0.054463   0.379765   0.116205  -0.022828  -0.008704   0.010946
    15  O    0.008081   0.077023   0.006399   0.002992  -0.004982  -0.012257
    16  O    0.057079   0.012650  -0.005234   0.252277  -0.011654  -0.470247
    17  O   -0.088654  -0.046887   0.047205   0.257293   0.024548  -0.367917
    18  O   -0.086337  -0.008592  -0.014608   0.177743   0.006840  -0.306233
    19  O    0.141036  -0.004328   0.516319   0.018466  -0.010369  -0.009867
    20  O    0.220633  -0.009745   0.414843  -0.004830  -0.029138   0.001285
    21  O    0.000853   0.048203   0.287319  -0.006008  -0.009197   0.001691
    22  H    0.000126  -0.000005   0.003732   0.000207   0.000485  -0.000202
    23  H   -0.001573   0.000004  -0.000070   0.000001  -0.000449   0.000010
    24  H   -0.009224   0.000475   0.002068   0.000009   0.000283   0.000015
    25  H   -0.000828  -0.005479  -0.000049   0.002986   0.000002   0.005415
    26  H   -0.008734  -0.016543   0.000381  -0.000078   0.000150  -0.000120
    27  H    0.017633  -0.033778  -0.017206  -0.004856  -0.000362   0.004823
    28  H   -0.008101  -0.000071  -0.000483   0.000335   0.001455  -0.000402
    29  H   -0.004408  -0.006257  -0.028376   0.000688  -0.000195  -0.000637
    30  H   -0.002031  -0.000045  -0.009633  -0.000231   0.000136  -0.000300
    31  H    0.000003  -0.002350   0.000062  -0.022658   0.000043   0.078108
    32  H    0.000442  -0.000162   0.000423   0.002559   0.000164   0.029700
    33  H   -0.017025   0.001624  -0.007197  -0.012952  -0.000478   0.055042
               7          8          9         10         11         12
     1  Si  -1.711279  -0.160884  -1.081401  -0.020748   0.059765   0.034029
     2  O   -0.133523  -0.542742   0.078367   0.001096  -0.005640   0.003806
     3  O   -1.880242  -0.130341  -0.395851   0.004937  -0.039576  -0.015224
     4  O   -0.011743   0.056761  -0.017572   0.000764  -0.001125  -0.009954
     5  O    0.292438   0.030510   0.202662  -0.018812  -0.041782  -0.025261
     6  Si   0.029698  -0.208649   0.002245  -0.000725  -0.000265  -0.002451
     7  Si  16.652813   0.157313   0.241199   0.001585  -0.024950  -0.001414
     8  Si   0.157313  12.812810   0.066372  -0.000571   0.001997   0.001781
     9  Zr   0.241199   0.066372  11.694668  -0.051657   0.113772   0.083214
    10  O    0.001585  -0.000571  -0.051657   8.692097  -0.037817  -0.033996
    11  O   -0.024950   0.001997   0.113772  -0.037817   8.420257  -0.028592
    12  O   -0.001414   0.001781   0.083214  -0.033996  -0.028592   8.558610
    13  O    0.010883  -0.139852  -0.006803  -0.000001  -0.000051  -0.000005
    14  O   -0.125537  -0.487116  -0.026557   0.000003  -0.000121  -0.000063
    15  O   -0.013600  -0.067706  -0.011414  -0.000002   0.000299   0.000016
    16  O   -0.002929  -0.015344  -0.012306   0.000001   0.000006   0.000047
    17  O   -0.072179   0.120902  -0.010653  -0.000011  -0.000074  -0.000007
    18  O   -0.003542   0.114659  -0.004684   0.000001  -0.000011  -0.000015
    19  O   -0.754734  -0.026653  -0.058308  -0.000050   0.000235  -0.003539
    20  O   -0.807455   0.004083  -0.050011  -0.000634   0.001026  -0.015735
    21  O   -0.274738  -0.043013  -0.022649  -0.000005   0.004133   0.000812
    22  H   -0.001419   0.000021  -0.031438  -0.002221   0.000370   0.271057
    23  H   -0.000184   0.000034  -0.080490   0.341199  -0.000778  -0.000409
    24  H    0.000922  -0.000831  -0.064978   0.000126   0.322943  -0.002047
    25  H   -0.000848   0.042578  -0.000297  -0.000000   0.000000   0.000000
    26  H    0.000601   0.064939   0.000072   0.000000   0.000037   0.000000
    27  H    0.018514   0.089214   0.002282   0.000000  -0.000004  -0.000000
    28  H    0.021028  -0.000295   0.001741   0.000390  -0.000487   0.032183
    29  H    0.071399   0.022144  -0.000840  -0.000000   0.000015   0.000018
    30  H    0.054637   0.000097   0.002126   0.000000   0.000000   0.000080
    31  H    0.000425  -0.004094   0.000135  -0.000000   0.000000   0.000000
    32  H   -0.000493   0.000094   0.000951  -0.000000  -0.000000  -0.000002
    33  H    0.023517  -0.003023  -0.000201   0.000000   0.000002   0.000015
              13         14         15         16         17         18
     1  Si  -0.022911  -0.054463   0.008081   0.057079  -0.088654  -0.086337
     2  O    0.223542   0.379765   0.077023   0.012650  -0.046887  -0.008592
     3  O    0.000774   0.116205   0.006399  -0.005234   0.047205  -0.014608
     4  O   -0.007615  -0.022828   0.002992   0.252277   0.257293   0.177743
     5  O   -0.002308  -0.008704  -0.004982  -0.011654   0.024548   0.006840
     6  Si   0.064408   0.010946  -0.012257  -0.470247  -0.367917  -0.306233
     7  Si   0.010883  -0.125537  -0.013600  -0.002929  -0.072179  -0.003542
     8  Si  -0.139852  -0.487116  -0.067706  -0.015344   0.120902   0.114659
     9  Zr  -0.006803  -0.026557  -0.011414  -0.012306  -0.010653  -0.004684
    10  O   -0.000001   0.000003  -0.000002   0.000001  -0.000011   0.000001
    11  O   -0.000051  -0.000121   0.000299   0.000006  -0.000074  -0.000011
    12  O   -0.000005  -0.000063   0.000016   0.000047  -0.000007  -0.000015
    13  O    8.629573   0.006392  -0.080515   0.003172  -0.024274  -0.043754
    14  O    0.006392   8.994779   0.083276   0.006231  -0.063057  -0.028197
    15  O   -0.080515   0.083276   8.611705  -0.000214   0.003733   0.001987
    16  O    0.003172   0.006231  -0.000214   8.924592  -0.126796  -0.076941
    17  O   -0.024274  -0.063057   0.003733  -0.126796   9.021647   0.176959
    18  O   -0.043754  -0.028197   0.001987  -0.076941   0.176959   8.904952
    19  O    0.000335   0.018691   0.000481  -0.000880  -0.012511  -0.000692
    20  O   -0.000016  -0.003909   0.000278  -0.000059   0.001659   0.000061
    21  O   -0.001169   0.046837   0.004556  -0.000024  -0.009322  -0.000106
    22  H    0.000000  -0.000001   0.000000  -0.000000   0.000001  -0.000000
    23  H   -0.000000  -0.000000  -0.000000   0.000000  -0.000000   0.000000
    24  H    0.000001   0.000003   0.000006  -0.000000   0.000002   0.000000
    25  H    0.227883  -0.008516   0.007111   0.000220   0.000088   0.010488
    26  H   -0.007158   0.003806   0.231705   0.000000  -0.000014   0.000009
    27  H   -0.002316   0.185508   0.001596  -0.000172   0.014357   0.001155
    28  H    0.000000   0.000012  -0.000002  -0.000003  -0.000002   0.000000
    29  H    0.000512   0.002661   0.000040  -0.000010  -0.000304   0.000027
    30  H   -0.000001  -0.000307   0.000001  -0.000047   0.000268  -0.000006
    31  H    0.002252  -0.000082  -0.000014  -0.001470   0.001775   0.214625
    32  H   -0.000002  -0.000013   0.000000   0.231682  -0.002831   0.004442
    33  H    0.000585   0.000008  -0.000139   0.000547   0.210614   0.003214
              19         20         21         22         23         24
     1  Si   0.141036   0.220633   0.000853   0.000126  -0.001573  -0.009224
     2  O   -0.004328  -0.009745   0.048203  -0.000005   0.000004   0.000475
     3  O    0.516319   0.414843   0.287319   0.003732  -0.000070   0.002068
     4  O    0.018466  -0.004830  -0.006008   0.000207   0.000001   0.000009
     5  O   -0.010369  -0.029138  -0.009197   0.000485  -0.000449   0.000283
     6  Si  -0.009867   0.001285   0.001691  -0.000202   0.000010   0.000015
     7  Si  -0.754734  -0.807455  -0.274738  -0.001419  -0.000184   0.000922
     8  Si  -0.026653   0.004083  -0.043013   0.000021   0.000034  -0.000831
     9  Zr  -0.058308  -0.050011  -0.022649  -0.031438  -0.080490  -0.064978
    10  O   -0.000050  -0.000634  -0.000005  -0.002221   0.341199   0.000126
    11  O    0.000235   0.001026   0.004133   0.000370  -0.000778   0.322943
    12  O   -0.003539  -0.015735   0.000812   0.271057  -0.000409  -0.002047
    13  O    0.000335  -0.000016  -0.001169   0.000000  -0.000000   0.000001
    14  O    0.018691  -0.003909   0.046837  -0.000001  -0.000000   0.000003
    15  O    0.000481   0.000278   0.004556   0.000000  -0.000000   0.000006
    16  O   -0.000880  -0.000059  -0.000024  -0.000000   0.000000  -0.000000
    17  O   -0.012511   0.001659  -0.009322   0.000001  -0.000000   0.000002
    18  O   -0.000692   0.000061  -0.000106  -0.000000   0.000000   0.000000
    19  O    9.003032   0.052001  -0.043249   0.000090  -0.000000   0.000034
    20  O    0.052001   8.718216   0.087983   0.003273  -0.000005  -0.000110
    21  O   -0.043249   0.087983   8.602576  -0.000014  -0.000000  -0.000822
    22  H    0.000090   0.003273  -0.000014   0.357905   0.000006  -0.000005
    23  H   -0.000000  -0.000005  -0.000000   0.000006   0.366771   0.000008
    24  H    0.000034  -0.000110  -0.000822  -0.000005   0.000008   0.362868
    25  H   -0.000028   0.000001   0.000005  -0.000000   0.000000  -0.000000
    26  H   -0.000000  -0.000000   0.000008  -0.000000  -0.000000  -0.000000
    27  H   -0.002412   0.000077  -0.004362   0.000000   0.000000  -0.000000
    28  H   -0.005898   0.237956  -0.001219  -0.001933   0.000000   0.000023
    29  H   -0.007363   0.003847   0.209764   0.000000  -0.000000   0.000009
    30  H    0.221431  -0.008053  -0.003853   0.000000  -0.000000   0.000000
    31  H    0.000013  -0.000000  -0.000001   0.000000  -0.000000  -0.000000
    32  H    0.000012  -0.000001   0.000000   0.000000  -0.000000   0.000000
    33  H    0.013680   0.000085   0.002355  -0.000000   0.000000  -0.000000
              25         26         27         28         29         30
     1  Si  -0.000828  -0.008734   0.017633  -0.008101  -0.004408  -0.002031
     2  O   -0.005479  -0.016543  -0.033778  -0.000071  -0.006257  -0.000045
     3  O   -0.000049   0.000381  -0.017206  -0.000483  -0.028376  -0.009633
     4  O    0.002986  -0.000078  -0.004856   0.000335   0.000688  -0.000231
     5  O    0.000002   0.000150  -0.000362   0.001455  -0.000195   0.000136
     6  Si   0.005415  -0.000120   0.004823  -0.000402  -0.000637  -0.000300
     7  Si  -0.000848   0.000601   0.018514   0.021028   0.071399   0.054637
     8  Si   0.042578   0.064939   0.089214  -0.000295   0.022144   0.000097
     9  Zr  -0.000297   0.000072   0.002282   0.001741  -0.000840   0.002126
    10  O   -0.000000   0.000000   0.000000   0.000390  -0.000000   0.000000
    11  O    0.000000   0.000037  -0.000004  -0.000487   0.000015   0.000000
    12  O    0.000000   0.000000  -0.000000   0.032183   0.000018   0.000080
    13  O    0.227883  -0.007158  -0.002316   0.000000   0.000512  -0.000001
    14  O   -0.008516   0.003806   0.185508   0.000012   0.002661  -0.000307
    15  O    0.007111   0.231705   0.001596  -0.000002   0.000040   0.000001
    16  O    0.000220   0.000000  -0.000172  -0.000003  -0.000010  -0.000047
    17  O    0.000088  -0.000014   0.014357  -0.000002  -0.000304   0.000268
    18  O    0.010488   0.000009   0.001155   0.000000   0.000027  -0.000006
    19  O   -0.000028  -0.000000  -0.002412  -0.005898  -0.007363   0.221431
    20  O    0.000001  -0.000000   0.000077   0.237956   0.003847  -0.008053
    21  O    0.000005   0.000008  -0.004362  -0.001219   0.209764  -0.003853
    22  H   -0.000000  -0.000000   0.000000  -0.001933   0.000000   0.000000
    23  H    0.000000  -0.000000   0.000000   0.000000  -0.000000  -0.000000
    24  H   -0.000000  -0.000000  -0.000000   0.000023   0.000009   0.000000
    25  H    0.305190  -0.000016  -0.000100  -0.000000  -0.000001   0.000000
    26  H   -0.000016   0.360132  -0.000053   0.000000   0.000009   0.000000
    27  H   -0.000100  -0.000053   0.307705  -0.000000  -0.000178   0.000043
    28  H   -0.000000   0.000000  -0.000000   0.281069  -0.000027   0.000051
    29  H   -0.000001   0.000009  -0.000178  -0.000027   0.302053   0.000142
    30  H    0.000000   0.000000   0.000043   0.000051   0.000142   0.337048
    31  H   -0.000438   0.000000   0.000012   0.000000   0.000000   0.000000
    32  H   -0.000001  -0.000000  -0.000000   0.000000  -0.000000   0.000000
    33  H   -0.000005   0.000000  -0.001370  -0.000003   0.000089  -0.000624
              31         32         33
     1  Si   0.000003   0.000442  -0.017025
     2  O   -0.002350  -0.000162   0.001624
     3  O    0.000062   0.000423  -0.007197
     4  O   -0.022658   0.002559  -0.012952
     5  O    0.000043   0.000164  -0.000478
     6  Si   0.078108   0.029700   0.055042
     7  Si   0.000425  -0.000493   0.023517
     8  Si  -0.004094   0.000094  -0.003023
     9  Zr   0.000135   0.000951  -0.000201
    10  O   -0.000000  -0.000000   0.000000
    11  O    0.000000  -0.000000   0.000002
    12  O    0.000000  -0.000002   0.000015
    13  O    0.002252  -0.000002   0.000585
    14  O   -0.000082  -0.000013   0.000008
    15  O   -0.000014   0.000000  -0.000139
    16  O   -0.001470   0.231682   0.000547
    17  O    0.001775  -0.002831   0.210614
    18  O    0.214625   0.004442   0.003214
    19  O    0.000013   0.000012   0.013680
    20  O   -0.000000  -0.000001   0.000085
    21  O   -0.000001   0.000000   0.002355
    22  H    0.000000   0.000000  -0.000000
    23  H   -0.000000  -0.000000   0.000000
    24  H   -0.000000   0.000000  -0.000000
    25  H   -0.000438  -0.000001  -0.000005
    26  H    0.000000  -0.000000   0.000000
    27  H    0.000012  -0.000000  -0.001370
    28  H    0.000000   0.000000  -0.000003
    29  H    0.000000  -0.000000   0.000089
    30  H    0.000000   0.000000  -0.000624
    31  H    0.336879   0.000014  -0.000046
    32  H    0.000014   0.348872   0.000132
    33  H   -0.000046   0.000132   0.276404
 Mulliken charges:
               1
     1  Si   2.302879
     2  O   -1.331978
     3  O   -1.327395
     4  O   -1.195454
     5  O   -0.778666
     6  Si   2.283133
     7  Si   2.243838
     8  Si   2.244804
     9  Zr   1.438303
    10  O   -0.874947
    11  O   -0.743587
    12  O   -0.846955
    13  O   -0.831560
    14  O   -1.025654
    15  O   -0.850439
    16  O   -0.764172
    17  O   -1.055558
    18  O   -1.043446
    19  O   -1.044978
    20  O   -0.817603
    21  O   -0.877345
    22  H    0.399967
    23  H    0.375925
    24  H    0.388224
    25  H    0.414640
    26  H    0.370868
    27  H    0.424252
    28  H    0.442681
    29  H    0.435180
    30  H    0.409069
    31  H    0.396808
    32  H    0.384016
    33  H    0.455150
 Sum of Mulliken charges =  -0.00000
 Mulliken charges with hydrogens summed into heavy atoms:
               1
     1  Si   2.302879
     2  O   -1.331978
     3  O   -1.327395
     4  O   -1.195454
     5  O   -0.778666
     6  Si   2.283133
     7  Si   2.243838
     8  Si   2.244804
     9  Zr   1.438303
    10  O   -0.499022
    11  O   -0.355362
    12  O   -0.446988
    13  O   -0.416920
    14  O   -0.601402
    15  O   -0.479570
    16  O   -0.380156
    17  O   -0.600408
    18  O   -0.646638
    19  O   -0.635910
    20  O   -0.374922
    21  O   -0.442165
 Electronic spatial extent (au):  <R**2>=           8188.3556
 Charge=              0.0000 electrons
 Dipole moment (field-independent basis, Debye):
    X=             -2.9971    Y=             -3.4863    Z=             -2.9119  Tot=              5.4420
 Quadrupole moment (field-independent basis, Debye-Ang):
   XX=           -154.8846   YY=           -154.8915   ZZ=           -161.3827
   XY=             -4.4230   XZ=              2.4815   YZ=             -7.2888
 Traceless Quadrupole moment (field-independent basis, Debye-Ang):
   XX=              2.1683   YY=              2.1614   ZZ=             -4.3297
   XY=             -4.4230   XZ=              2.4815   YZ=             -7.2888
 Octapole moment (field-independent basis, Debye-Ang**2):
  XXX=           -221.8665  YYY=            -10.8681  ZZZ=            -48.7275  XYY=            -65.2826
  XXY=            -30.9564  XXZ=            -65.3288  XZZ=              8.3103  YZZ=            -28.7477
  YYZ=            -28.2359  XYZ=              5.6650
 Hexadecapole moment (field-independent basis, Debye-Ang**3):
 XXXX=          -5446.3675 YYYY=          -2159.3788 ZZZZ=          -2233.5956 XXXY=             -6.7747
 XXXZ=            151.7444 YYYX=             35.5941 YYYZ=            -88.7427 ZZZX=            170.7168
 ZZZY=           -105.5699 XXYY=          -1460.8900 XXZZ=          -1144.6288 YYZZ=           -725.9336
 XXYZ=              4.1315 YYXZ=            -34.0569 ZZXY=           -104.0865
 N-N= 3.019203850795D+03 E-N=-1.175068509427D+04  KE= 2.373138508244D+03
 1\1\GINC-GRA619\FOpt\RB3LYP\Gen\H12O16Si4Zr1\SARASHS\29-Jul-2020\0\\#n
  B3LYP/Gen Pseudo=cards EmpiricalDispersion=GD3 Opt=modredundant\\Titl
 e\\0,1\Si,-0.1413774307,0.1233318266,-0.9097594373\O,-1.0071673252,-1.
 2520774452,-1.0543293273\O,0.5195416236,0.219564896,0.6037314765\O,-1.
 1288377756,1.4196268237,-1.1658334601\O,1.1860022593,0.1600513564,-1.8
 413004088\Si,-2.6649964872,1.7452052537,-0.6608090155\Si,0.4785371999,
 0.3180319,2.2421611791\Si,-2.1547585648,-2.1264778027,-0.2365884299\Zr
 ,2.9698025195,-0.0046087822,-0.9438823756\O,4.3234873301,0.1374269835,
 -2.3104544474\O,3.0957515864,-1.7129276179,-0.0625375981\O,3.316635492
 3,1.4533405933,0.3792298942\O,-3.5730715616,-2.0013254638,-1.049067982
 5\O,-2.2488823691,-1.5602163273,1.3224232629\O,-1.6956030827,-3.691595
 6599,-0.0850232197\O,-2.9590326299,3.3383314064,-0.948296813\O,-2.8558
 35486,1.2410987343,0.8928433011\O,-3.7999871424,0.8542780295,-1.480479
 7325\O,-0.6986546989,1.4910262947,2.5319326648\O,1.9443131003,0.786552
 5999,2.7841164485\O,0.066966441,-1.0978249657,2.9463665232\H,4.0011791
 388,2.1300936363,0.4211668994\H,5.0126802252,-0.1331812492,-2.91984061
 69\H,2.8898782869,-2.3684520075,0.6080398261\H,-3.8086756619,-1.104192
 2104,-1.3443406124\H,-1.6575994311,-4.2199674337,-0.8891225716\H,-2.74
 59237049,-0.7250493859,1.3862636394\H,2.531410263,1.129816641,2.079537
 7388\H,-0.7536659127,-1.4845154886,2.585080672\H,-0.792681131,1.776355
 5081,3.4491579596\H,-4.1816310188,1.2710751456,-2.2616466817\H,-2.1910
 496743,3.897865373,-1.1097326909\H,-2.1407643773,1.4792688381,1.526513
 9355\\Version=ES64L-G16RevB.01\State=1-A\HF=-2416.9432846\RMSD=3.111e-
 09\RMSF=4.589e-04\Dipole=1.1145952,1.392116,-1.184836\Quadrupole=1.462
 3338,1.4422852,-2.904619,-3.0025437,-2.1356587,5.6081285\PG=C01 [X(H12
 O16Si4Zr1)]\\@


 EVERYTHING'S GOT A MORAL, IF ONLY YOU CAN FIND IT.

                                    -- LEWIS CARROL, ALICE IN WONDERLAND
 Job cpu time:       1 days  8 hours  5 minutes 25.6 seconds.
 Elapsed time:       0 days  2 hours 24 minutes  6.7 seconds.
 File lengths (MBytes):  RWF=    167 Int=      0 D2E=      0 Chk=     21 Scr=      1
 Normal termination of Gaussian 16 at Wed Jul 29 22:30:20 2020.
