 Entering Gaussian System, Link 0=g16
 Initial command:
 /opt/software/gaussian/g16.b01/l1.exe "/localscratch/sarashs.36567453.0/Gau-22380.inp" -scrdir="/localscratch/sarashs.36567453.0/"
 Entering Link 1 = /opt/software/gaussian/g16.b01/l1.exe PID=     22381.
  
 Copyright (c) 1988-2017, Gaussian, Inc.  All Rights Reserved.
  
 This is part of the Gaussian(R) 16 program.  It is based on
 the Gaussian(R) 09 system (copyright 2009, Gaussian, Inc.),
 the Gaussian(R) 03 system (copyright 2003, Gaussian, Inc.),
 the Gaussian(R) 98 system (copyright 1998, Gaussian, Inc.),
 the Gaussian(R) 94 system (copyright 1995, Gaussian, Inc.),
 the Gaussian 92(TM) system (copyright 1992, Gaussian, Inc.),
 the Gaussian 90(TM) system (copyright 1990, Gaussian, Inc.),
 the Gaussian 88(TM) system (copyright 1988, Gaussian, Inc.),
 the Gaussian 86(TM) system (copyright 1986, Carnegie Mellon
 University), and the Gaussian 82(TM) system (copyright 1983,
 Carnegie Mellon University). Gaussian is a federally registered
 trademark of Gaussian, Inc.
  
 This software contains proprietary and confidential information,
 including trade secrets, belonging to Gaussian, Inc.
  
 This software is provided under written license and may be
 used, copied, transmitted, or stored only in accord with that
 written license.
  
 The following legend is applicable only to US Government
 contracts under FAR:
  
                    RESTRICTED RIGHTS LEGEND
  
 Use, reproduction and disclosure by the US Government is
 subject to restrictions as set forth in subparagraphs (a)
 and (c) of the Commercial Computer Software - Restricted
 Rights clause in FAR 52.227-19.
  
 Gaussian, Inc.
 340 Quinnipiac St., Bldg. 40, Wallingford CT 06492
  
  
 ---------------------------------------------------------------
 Warning -- This program may not be used in any manner that
 competes with the business of Gaussian, Inc. or will provide
 assistance to any competitor of Gaussian, Inc.  The licensee
 of this program is prohibited from giving any competitor of
 Gaussian, Inc. access to this program.  By using this program,
 the user acknowledges that Gaussian, Inc. is engaged in the
 business of creating and licensing software in the field of
 computational chemistry and represents and warrants to the
 licensee that it is not a competitor of Gaussian, Inc. and that
 it will not use this program in any manner prohibited above.
 ---------------------------------------------------------------
  

 Cite this work as:
 Gaussian 16, Revision B.01,
 M. J. Frisch, G. W. Trucks, H. B. Schlegel, G. E. Scuseria, 
 M. A. Robb, J. R. Cheeseman, G. Scalmani, V. Barone, 
 G. A. Petersson, H. Nakatsuji, X. Li, M. Caricato, A. V. Marenich, 
 J. Bloino, B. G. Janesko, R. Gomperts, B. Mennucci, H. P. Hratchian, 
 J. V. Ortiz, A. F. Izmaylov, J. L. Sonnenberg, D. Williams-Young, 
 F. Ding, F. Lipparini, F. Egidi, J. Goings, B. Peng, A. Petrone, 
 T. Henderson, D. Ranasinghe, V. G. Zakrzewski, J. Gao, N. Rega, 
 G. Zheng, W. Liang, M. Hada, M. Ehara, K. Toyota, R. Fukuda, 
 J. Hasegawa, M. Ishida, T. Nakajima, Y. Honda, O. Kitao, H. Nakai, 
 T. Vreven, K. Throssell, J. A. Montgomery, Jr., J. E. Peralta, 
 F. Ogliaro, M. J. Bearpark, J. J. Heyd, E. N. Brothers, K. N. Kudin, 
 V. N. Staroverov, T. A. Keith, R. Kobayashi, J. Normand, 
 K. Raghavachari, A. P. Rendell, J. C. Burant, S. S. Iyengar, 
 J. Tomasi, M. Cossi, J. M. Millam, M. Klene, C. Adamo, R. Cammi, 
 J. W. Ochterski, R. L. Martin, K. Morokuma, O. Farkas, 
 J. B. Foresman, and D. J. Fox, Gaussian, Inc., Wallingford CT, 2016.
 
 ******************************************
 Gaussian 16:  ES64L-G16RevB.01 20-Dec-2017
                29-Jul-2020 
 ******************************************
 %NProcShared=16
 Will use up to   16 processors via shared memory.
 ------------------------------------------------------------------
 #n B3LYP/Gen Pseudo=cards EmpiricalDispersion=GD3 Opt=modredundant
 ------------------------------------------------------------------
 1/18=120,19=15,26=3,38=1/1,3;
 2/9=110,12=2,17=6,18=5,40=1/2;
 3/5=7,11=2,16=1,17=8,25=1,30=1,71=1,74=-5,124=31/1,2,3;
 4//1;
 5/5=2,38=5/2;
 6/7=2,8=2,9=2,10=2,28=1/1;
 7//1,2,3,16;
 1/18=20,19=15,26=3/3(2);
 2/9=110/2;
 99//99;
 2/9=110/2;
 3/5=7,6=1,11=2,16=1,17=8,25=1,30=1,71=1,74=-5,82=7,124=31/1,2,3;
 4/5=5,16=3,69=1/1;
 5/5=2,38=5/2;
 7//1,2,3,16;
 1/18=20,19=15,26=3/3(-5);
 2/9=110/2;
 6/7=2,8=2,9=2,10=2,19=2,28=1/1;
 99/9=1/99;
 -----
 Title
 -----
 Symbolic Z-matrix:
 Charge =  0 Multiplicity = 1
 Si                   -0.13817   0.15907  -0.88672 
 O                    -1.00571  -1.21557  -1.00367 
 O                     0.58179   0.25267   0.61501 
 O                    -1.1339    1.45311  -1.10627 
 O                     1.18134   0.19206  -1.82677 
 Si                   -2.69339   1.74371  -0.65114 
 Si                    0.45246   0.31404   2.26262 
 Si                   -2.1548   -2.1204   -0.22503 
 Zr                    2.90184  -0.01371  -0.78187 
 O                     4.3157    0.04169  -2.08974 
 O                     2.97013  -1.72164   0.11657 
 O                     3.32442   1.47304   0.49812 
 O                    -3.55825  -2.00436  -1.06221 
 O                    -2.28687  -1.57711   1.34004 
 O                    -1.66915  -3.67748  -0.08045 
 O                    -3.00596   3.33412  -0.93077 
 O                    -2.92057   1.21838   0.89035 
 O                    -3.78511   0.84272  -1.51643 
 O                    -0.76335   1.45159   2.52316 
 O                     1.87673   0.80442   2.88257 
 O                     0.04596  -1.13257   2.9006 
 H                     4.07671   2.07554   0.50276 
 H                     5.01943  -0.23494  -2.67893 
 H                     2.66386  -2.31074   0.81144 
 H                    -3.79221  -1.10963  -1.36628 
 H                    -1.5614   -4.18568  -0.89124 
 H                    -2.80623  -0.75615   1.40497 
 H                     2.4905    1.16992   2.20997 
 H                    -0.78842  -1.49858   2.54684 
 H                    -0.84185   1.77955   3.42764 
 H                    -4.15196   1.2615   -2.30365 
 H                    -2.24428   3.9095   -1.06409 
 H                    -2.21087   1.44549   1.53341 
 
 The following ModRedundant input section has been read:
 A       1       5       9 F                                                   
 

 GradGradGradGradGradGradGradGradGradGradGradGradGradGradGradGradGradGrad
 Berny optimization.
 Initialization pass.
                           ----------------------------
                           !    Initial Parameters    !
                           ! (Angstroms and Degrees)  !
 --------------------------                            --------------------------
 ! Name  Definition              Value          Derivative Info.                !
 --------------------------------------------------------------------------------
 ! R1    R(1,2)                  1.6297         estimate D2E/DX2                !
 ! R2    R(1,3)                  1.668          estimate D2E/DX2                !
 ! R3    R(1,4)                  1.6475         estimate D2E/DX2                !
 ! R4    R(1,5)                  1.6205         estimate D2E/DX2                !
 ! R5    R(1,9)                  3.0467         estimate D2E/DX2                !
 ! R6    R(2,8)                  1.6569         estimate D2E/DX2                !
 ! R7    R(3,7)                  1.6538         estimate D2E/DX2                !
 ! R8    R(4,6)                  1.6503         estimate D2E/DX2                !
 ! R9    R(5,9)                  2.0234         estimate D2E/DX2                !
 ! R10   R(6,16)                 1.6448         estimate D2E/DX2                !
 ! R11   R(6,17)                 1.6443         estimate D2E/DX2                !
 ! R12   R(6,18)                 1.659          estimate D2E/DX2                !
 ! R13   R(7,19)                 1.6853         estimate D2E/DX2                !
 ! R14   R(7,20)                 1.6289         estimate D2E/DX2                !
 ! R15   R(7,21)                 1.6325         estimate D2E/DX2                !
 ! R16   R(8,13)                 1.6383         estimate D2E/DX2                !
 ! R17   R(8,14)                 1.6619         estimate D2E/DX2                !
 ! R18   R(8,15)                 1.6375         estimate D2E/DX2                !
 ! R19   R(9,10)                 1.9268         estimate D2E/DX2                !
 ! R20   R(9,11)                 1.931          estimate D2E/DX2                !
 ! R21   R(9,12)                 2.0068         estimate D2E/DX2                !
 ! R22   R(10,23)                0.9586         estimate D2E/DX2                !
 ! R23   R(11,24)                0.9611         estimate D2E/DX2                !
 ! R24   R(12,22)                0.9638         estimate D2E/DX2                !
 ! R25   R(13,25)                0.9735         estimate D2E/DX2                !
 ! R26   R(14,27)                0.9736         estimate D2E/DX2                !
 ! R27   R(15,26)                0.9629         estimate D2E/DX2                !
 ! R28   R(16,32)                0.9638         estimate D2E/DX2                !
 ! R29   R(17,33)                0.9843         estimate D2E/DX2                !
 ! R30   R(18,31)                0.9642         estimate D2E/DX2                !
 ! R31   R(19,30)                0.9653         estimate D2E/DX2                !
 ! R32   R(20,28)                0.9812         estimate D2E/DX2                !
 ! R33   R(21,29)                0.9774         estimate D2E/DX2                !
 ! A1    A(2,1,3)              109.9808         estimate D2E/DX2                !
 ! A2    A(2,1,4)              109.3435         estimate D2E/DX2                !
 ! A3    A(2,1,5)              114.1426         estimate D2E/DX2                !
 ! A4    A(2,1,9)              119.0644         estimate D2E/DX2                !
 ! A5    A(3,1,4)              109.6804         estimate D2E/DX2                !
 ! A6    A(3,1,5)               99.7688         estimate D2E/DX2                !
 ! A7    A(3,1,9)               62.7112         estimate D2E/DX2                !
 ! A8    A(4,1,5)              113.5061         estimate D2E/DX2                !
 ! A9    A(4,1,9)              130.707          estimate D2E/DX2                !
 ! A10   A(1,2,8)              142.7567         estimate D2E/DX2                !
 ! A11   A(1,3,7)              149.9119         estimate D2E/DX2                !
 ! A12   A(1,4,6)              132.2743         estimate D2E/DX2                !
 ! A13   A(1,5,9)              113.0001         Frozen                          !
 ! A14   A(4,6,16)             107.6353         estimate D2E/DX2                !
 ! A15   A(4,6,17)             109.4409         estimate D2E/DX2                !
 ! A16   A(4,6,18)             112.4799         estimate D2E/DX2                !
 ! A17   A(16,6,17)            116.2345         estimate D2E/DX2                !
 ! A18   A(16,6,18)            108.144          estimate D2E/DX2                !
 ! A19   A(17,6,18)            102.9751         estimate D2E/DX2                !
 ! A20   A(3,7,19)             103.6202         estimate D2E/DX2                !
 ! A21   A(3,7,20)             108.7814         estimate D2E/DX2                !
 ! A22   A(3,7,21)             112.0818         estimate D2E/DX2                !
 ! A23   A(19,7,20)            111.639          estimate D2E/DX2                !
 ! A24   A(19,7,21)            110.9828         estimate D2E/DX2                !
 ! A25   A(20,7,21)            109.6189         estimate D2E/DX2                !
 ! A26   A(2,8,13)             108.3776         estimate D2E/DX2                !
 ! A27   A(2,8,14)             108.6105         estimate D2E/DX2                !
 ! A28   A(2,8,15)             110.799          estimate D2E/DX2                !
 ! A29   A(13,8,14)            112.954          estimate D2E/DX2                !
 ! A30   A(13,8,15)            111.5028         estimate D2E/DX2                !
 ! A31   A(14,8,15)            104.553          estimate D2E/DX2                !
 ! A32   A(1,9,10)             135.0057         estimate D2E/DX2                !
 ! A33   A(1,9,11)              95.823          estimate D2E/DX2                !
 ! A34   A(1,9,12)             100.9553         estimate D2E/DX2                !
 ! A35   A(5,9,10)             105.6931         estimate D2E/DX2                !
 ! A36   A(5,9,11)             111.1172         estimate D2E/DX2                !
 ! A37   A(5,9,12)             115.6629         estimate D2E/DX2                !
 ! A38   A(10,9,11)            108.3783         estimate D2E/DX2                !
 ! A39   A(10,9,12)            104.8992         estimate D2E/DX2                !
 ! A40   A(11,9,12)            110.5516         estimate D2E/DX2                !
 ! A41   A(9,10,23)            161.3687         estimate D2E/DX2                !
 ! A42   A(9,11,24)            150.1412         estimate D2E/DX2                !
 ! A43   A(9,12,22)            129.0896         estimate D2E/DX2                !
 ! A44   A(8,13,25)            115.5044         estimate D2E/DX2                !
 ! A45   A(8,14,27)            112.3856         estimate D2E/DX2                !
 ! A46   A(8,15,26)            117.432          estimate D2E/DX2                !
 ! A47   A(6,16,32)            116.7803         estimate D2E/DX2                !
 ! A48   A(6,17,33)            116.0494         estimate D2E/DX2                !
 ! A49   A(6,18,31)            116.1247         estimate D2E/DX2                !
 ! A50   A(7,19,30)            115.6491         estimate D2E/DX2                !
 ! A51   A(7,20,28)            113.4661         estimate D2E/DX2                !
 ! A52   A(7,21,29)            113.7637         estimate D2E/DX2                !
 ! D1    D(3,1,2,8)             50.0624         estimate D2E/DX2                !
 ! D2    D(4,1,2,8)            -70.4297         estimate D2E/DX2                !
 ! D3    D(5,1,2,8)            161.2125         estimate D2E/DX2                !
 ! D4    D(9,1,2,8)            119.2049         estimate D2E/DX2                !
 ! D5    D(2,1,3,7)            -60.1512         estimate D2E/DX2                !
 ! D6    D(4,1,3,7)             60.1373         estimate D2E/DX2                !
 ! D7    D(5,1,3,7)            179.5701         estimate D2E/DX2                !
 ! D8    D(9,1,3,7)           -173.3589         estimate D2E/DX2                !
 ! D9    D(2,1,4,6)             37.0076         estimate D2E/DX2                !
 ! D10   D(3,1,4,6)            -83.6678         estimate D2E/DX2                !
 ! D11   D(5,1,4,6)            165.7183         estimate D2E/DX2                !
 ! D12   D(9,1,4,6)           -154.119          estimate D2E/DX2                !
 ! D13   D(2,1,9,10)            92.0972         estimate D2E/DX2                !
 ! D14   D(2,1,9,11)           -31.2868         estimate D2E/DX2                !
 ! D15   D(2,1,9,12)          -143.5687         estimate D2E/DX2                !
 ! D16   D(3,1,9,10)          -169.0921         estimate D2E/DX2                !
 ! D17   D(3,1,9,11)            67.5239         estimate D2E/DX2                !
 ! D18   D(3,1,9,12)           -44.758          estimate D2E/DX2                !
 ! D19   D(4,1,9,10)           -75.879          estimate D2E/DX2                !
 ! D20   D(4,1,9,11)           160.7369         estimate D2E/DX2                !
 ! D21   D(4,1,9,12)            48.4551         estimate D2E/DX2                !
 ! D22   D(1,2,8,13)           108.4711         estimate D2E/DX2                !
 ! D23   D(1,2,8,14)           -14.5876         estimate D2E/DX2                !
 ! D24   D(1,2,8,15)          -128.8886         estimate D2E/DX2                !
 ! D25   D(1,3,7,19)           -46.0619         estimate D2E/DX2                !
 ! D26   D(1,3,7,20)          -164.9541         estimate D2E/DX2                !
 ! D27   D(1,3,7,21)            73.6681         estimate D2E/DX2                !
 ! D28   D(1,4,6,16)           169.4411         estimate D2E/DX2                !
 ! D29   D(1,4,6,17)            42.2775         estimate D2E/DX2                !
 ! D30   D(1,4,6,18)           -71.5346         estimate D2E/DX2                !
 ! D31   D(4,6,16,32)          -16.3726         estimate D2E/DX2                !
 ! D32   D(17,6,16,32)         106.7215         estimate D2E/DX2                !
 ! D33   D(18,6,16,32)        -138.134          estimate D2E/DX2                !
 ! D34   D(4,6,17,33)           44.2632         estimate D2E/DX2                !
 ! D35   D(16,6,17,33)         -77.8848         estimate D2E/DX2                !
 ! D36   D(18,6,17,33)         164.0932         estimate D2E/DX2                !
 ! D37   D(4,6,18,31)          -92.9354         estimate D2E/DX2                !
 ! D38   D(16,6,18,31)          25.7911         estimate D2E/DX2                !
 ! D39   D(17,6,18,31)         149.3552         estimate D2E/DX2                !
 ! D40   D(3,7,19,30)         -166.1155         estimate D2E/DX2                !
 ! D41   D(20,7,19,30)         -49.2104         estimate D2E/DX2                !
 ! D42   D(21,7,19,30)          73.4066         estimate D2E/DX2                !
 ! D43   D(3,7,20,28)           12.9879         estimate D2E/DX2                !
 ! D44   D(19,7,20,28)        -100.7463         estimate D2E/DX2                !
 ! D45   D(21,7,20,28)         135.8599         estimate D2E/DX2                !
 ! D46   D(3,7,21,29)          -57.2164         estimate D2E/DX2                !
 ! D47   D(19,7,21,29)          58.1093         estimate D2E/DX2                !
 ! D48   D(20,7,21,29)        -178.1114         estimate D2E/DX2                !
 ! D49   D(2,8,13,25)          -43.843          estimate D2E/DX2                !
 ! D50   D(14,8,13,25)          76.5485         estimate D2E/DX2                !
 ! D51   D(15,8,13,25)        -166.0547         estimate D2E/DX2                !
 ! D52   D(2,8,14,27)           78.098          estimate D2E/DX2                !
 ! D53   D(13,8,14,27)         -42.1603         estimate D2E/DX2                !
 ! D54   D(15,8,14,27)        -163.5737         estimate D2E/DX2                !
 ! D55   D(2,8,15,26)          -65.1514         estimate D2E/DX2                !
 ! D56   D(13,8,15,26)          55.6545         estimate D2E/DX2                !
 ! D57   D(14,8,15,26)         178.0211         estimate D2E/DX2                !
 ! D58   D(1,9,10,23)         -104.7751         estimate D2E/DX2                !
 ! D59   D(5,9,10,23)         -105.0487         estimate D2E/DX2                !
 ! D60   D(11,9,10,23)          14.1397         estimate D2E/DX2                !
 ! D61   D(12,9,10,23)         132.2509         estimate D2E/DX2                !
 ! D62   D(1,9,11,24)          -45.6364         estimate D2E/DX2                !
 ! D63   D(5,9,11,24)          -71.4539         estimate D2E/DX2                !
 ! D64   D(10,9,11,24)         172.8338         estimate D2E/DX2                !
 ! D65   D(12,9,11,24)          58.3829         estimate D2E/DX2                !
 ! D66   D(1,9,12,22)         -144.9322         estimate D2E/DX2                !
 ! D67   D(5,9,12,22)         -118.0997         estimate D2E/DX2                !
 ! D68   D(10,9,12,22)          -2.1003         estimate D2E/DX2                !
 ! D69   D(11,9,12,22)         114.527          estimate D2E/DX2                !
 --------------------------------------------------------------------------------
 Trust Radius=3.00D-01 FncErr=1.00D-07 GrdErr=1.00D-06 EigMax=2.50D+02 EigMin=1.00D-04
 Number of steps in this run=    164 maximum allowed number of steps=    198.
 GradGradGradGradGradGradGradGradGradGradGradGradGradGradGradGradGradGrad

                          Input orientation:                          
 ---------------------------------------------------------------------
 Center     Atomic      Atomic             Coordinates (Angstroms)
 Number     Number       Type             X           Y           Z
 ---------------------------------------------------------------------
      1         14           0       -0.138170    0.159070   -0.886720
      2          8           0       -1.005710   -1.215570   -1.003670
      3          8           0        0.581790    0.252670    0.615010
      4          8           0       -1.133900    1.453110   -1.106270
      5          8           0        1.181340    0.192060   -1.826770
      6         14           0       -2.693390    1.743710   -0.651140
      7         14           0        0.452460    0.314040    2.262620
      8         14           0       -2.154800   -2.120400   -0.225030
      9         40           0        2.901840   -0.013710   -0.781870
     10          8           0        4.315700    0.041690   -2.089740
     11          8           0        2.970130   -1.721640    0.116570
     12          8           0        3.324420    1.473040    0.498120
     13          8           0       -3.558250   -2.004360   -1.062210
     14          8           0       -2.286870   -1.577110    1.340040
     15          8           0       -1.669150   -3.677480   -0.080450
     16          8           0       -3.005960    3.334120   -0.930770
     17          8           0       -2.920570    1.218380    0.890350
     18          8           0       -3.785110    0.842720   -1.516430
     19          8           0       -0.763350    1.451590    2.523160
     20          8           0        1.876730    0.804420    2.882570
     21          8           0        0.045960   -1.132570    2.900600
     22          1           0        4.076710    2.075540    0.502760
     23          1           0        5.019430   -0.234940   -2.678930
     24          1           0        2.663860   -2.310740    0.811440
     25          1           0       -3.792210   -1.109630   -1.366280
     26          1           0       -1.561400   -4.185680   -0.891240
     27          1           0       -2.806230   -0.756150    1.404970
     28          1           0        2.490500    1.169920    2.209970
     29          1           0       -0.788420   -1.498580    2.546840
     30          1           0       -0.841850    1.779550    3.427640
     31          1           0       -4.151960    1.261500   -2.303650
     32          1           0       -2.244280    3.909500   -1.064090
     33          1           0       -2.210870    1.445490    1.533410
 ---------------------------------------------------------------------
                    Distance matrix (angstroms):
                    1          2          3          4          5
     1  Si   0.000000
     2  O    1.629705   0.000000
     3  O    1.668022   2.701113   0.000000
     4  O    1.647489   2.673726   2.710619   0.000000
     5  O    1.620459   2.728022   2.515039   2.733076   0.000000
     6  Si   3.015913   3.424891   3.814858   1.650334   4.336272
     7  Si   3.207990   3.890323   1.653817   3.894026   4.155629
     8  Si   3.114581   1.656926   3.718340   3.819528   4.363814
     9  Zr   3.046721   4.094217   2.721188   4.306274   2.023432
    10  O    4.614975   5.574734   4.615438   5.714671   3.148964
    11  O    3.768977   4.161532   3.138552   5.330801   3.261685
    12  O    3.953964   5.313570   3.004161   4.738257   3.411571
    13  O    4.050700   2.672279   5.004716   4.222974   5.279444
    14  O    3.548196   2.695377   3.478933   4.061528   5.018678
    15  O    4.208692   2.711732   4.582191   5.259444   5.113538
    16  O    4.278680   4.970512   4.975613   2.659625   5.311199
    17  O    3.467256   3.630167   3.643478   2.689569   5.026106
    18  O    3.763520   3.496362   4.894999   2.751313   5.018495
    19  O    3.699830   4.428432   2.624471   3.648297   4.928501
    20  O    4.322481   5.243251   2.668919   5.039398   4.799629
    21  O    4.005750   4.044283   2.725789   4.912516   5.039024
    22  H    4.834121   6.239530   3.943339   5.488793   4.166218
    23  H    5.474313   6.330122   5.548013   6.571624   3.954673
    24  H    4.103058   4.237896   3.308273   5.680419   3.927089
    25  H    3.897638   2.811991   4.991317   3.701601   5.161652
    26  H    4.571920   3.023737   5.153737   5.659059   5.249995
    27  H    3.634283   3.042119   3.622214   3.739498   5.219575
    28  H    4.185835   5.314276   2.651117   4.920764   4.354926
    29  H    3.867811   3.568393   2.945559   4.709251   5.085930
    30  H    4.662062   5.351084   3.502713   4.555019   5.849978
    31  H    4.396994   4.210073   5.651965   3.252556   5.460330
    32  H    4.304984   5.272954   4.917159   2.696029   5.112330
    33  H    3.436276   3.869163   3.172574   2.850935   4.936495
                    6          7          8          9         10
     6  Si   0.000000
     7  Si   4.519992   0.000000
     8  Si   3.924665   4.348874   0.000000
     9  Zr   5.866192   3.921199   5.506162   0.000000
    10  O    7.354848   5.825962   7.072422   1.926809   0.000000
    11  O    6.683823   3.884351   5.151758   1.931032   3.128529
    12  O    6.132544   3.564393   6.592239   2.006832   3.119041
    13  O    3.868461   5.702216   1.638294   6.765652   8.200075
    14  O    3.893315   3.454205   1.661942   5.819745   7.614318
    15  O    5.546535   5.091506   1.637455   5.899928   7.327203
    16  O    1.644779   5.592789   5.565459   6.792072   8.111104
    17  O    1.644316   3.752104   3.602489   6.181814   7.913857
    18  O    1.659025   5.702431   3.620180   6.781471   8.160481
    19  O    3.726469   1.685258   4.716757   5.148198   7.004528
    20  O    5.852809   1.628912   5.870689   3.892083   5.590545
    21  O    5.328403   1.632465   3.948255   4.792545   6.671811
    22  H    6.875744   4.397178   7.547669   2.719478   3.303743
    23  H    8.216726   6.751112   7.813204   2.851660   0.958595
    24  H    6.875888   3.726350   4.932543   2.805640   4.084036
    25  H    3.140124   5.763070   2.237235   6.808295   8.221140
    26  H    6.041251   5.852345   2.249742   6.110467   7.338076
    27  H    3.238768   3.535524   2.223160   6.157560   7.973170
    28  H    5.948773   2.211088   6.191465   3.243653   4.805389
    29  H    4.936439   2.214984   3.152288   5.186826   7.065575
    30  H    4.479501   2.276012   5.502313   5.911935   7.749965
    31  H    2.256267   6.553563   4.443710   7.327897   8.557743
    32  H    2.250083   5.591667   6.088655   6.477173   7.684091
    33  H    2.256993   2.984167   3.976283   5.799102   7.595656
                   11         12         13         14         15
    11  O    0.000000
    12  O    3.236832   0.000000
    13  O    6.639970   7.867534   0.000000
    14  O    5.399427   6.441958   2.751319   0.000000
    15  O    5.038556   7.197106   2.707745   2.609775   0.000000
    16  O    7.897549   6.751226   5.368582   5.458374   7.188368
    17  O    6.628937   6.262475   3.821672   2.901476   5.145673
    18  O    7.407827   7.416275   2.891997   4.032334   5.193412
    19  O    5.458932   4.561920   5.710511   3.590809   5.822939
    20  O    3.902212   2.868529   7.279392   5.038517   6.437405
    21  O    4.080269   4.827982   5.427173   2.841665   4.278414
    22  H    3.973945   0.963830   8.797007   7.384987   8.151827
    23  H    3.771568   3.985461   8.906246   8.446038   7.958661
    24  H    0.961085   3.853764   6.505312   5.032629   4.630164
    25  H    6.950010   7.796961   0.973518   3.131893   3.571358
    26  H    5.255658   7.604122   2.962228   3.508497   0.962942
    27  H    5.996539   6.586086   2.865404   0.973615   3.468947
    28  H    3.601873   1.928143   7.574338   5.579087   6.785720
    29  H    4.481369   5.472041   4.577446   1.925587   3.525045
    30  H    6.144323   5.102337   6.469587   4.208720   6.539900
    31  H    8.092018   7.986922   3.543939   4.981239   5.958229
    32  H    7.764906   6.275927   6.058074   5.990371   7.672065
    33  H    6.235456   5.631343   4.522625   3.029732   5.398410
                   16         17         18         19         20
    16  O    0.000000
    17  O    2.792870   0.000000
    18  O    2.675284   2.584790   0.000000
    19  O    4.528007   2.715521   5.081343   0.000000
    20  O    6.691906   5.210987   7.170014   2.741902   0.000000
    21  O    6.629097   4.285834   6.171630   2.734104   2.665328
    22  H    7.335070   7.060232   8.210066   5.281809   3.481257
    23  H    8.955509   8.825843   8.946099   7.959062   6.472026
    24  H    8.188199   6.606570   7.546688   5.369440   3.822744
    25  H    4.533737   3.357345   1.958128   5.555320   7.338474
    26  H    7.657396   5.850237   5.533584   6.638812   7.138871
    27  H    4.714433   2.043692   3.471191   3.209022   5.152552
    28  H    6.690223   5.569867   7.305915   3.281001   0.981170
    29  H    6.353443   3.830391   5.565249   2.950372   3.538297
    30  H    5.108405   3.327736   5.829602   0.965300   2.939159
    31  H    2.737493   3.423422   0.964194   5.900585   7.965608
    32  H    0.963843   3.394014   3.461778   4.593783   6.496181
    33  H    3.204883   0.984266   3.484693   1.753555   4.351974
                   21         22         23         24         25
    21  O    0.000000
    22  H    5.682302   0.000000
    23  H    7.528101   4.043537   0.000000
    24  H    3.550503   4.618537   4.694714   0.000000
    25  H    5.739193   8.692440   8.951711   6.918524   0.000000
    26  H    5.126708   8.540164   7.881085   4.926189   3.829394
    27  H    3.242466   7.497154   8.842559   5.717597   2.962589
    28  H    3.428441   2.500155   5.680710   3.755121   7.580129
    29  H    0.977394   6.373546   7.914327   3.948348   4.948388
    30  H    3.089728   5.730163   8.700745   5.988738   6.327215
    31  H    7.101994   8.732102   9.300245   8.301812   2.574945
    32  H    6.810759   6.765600   8.517369   8.142410   5.261090
    33  H    3.689022   6.402567   8.534922   6.196249   4.175820
                   26         27         28         29         30
    26  H    0.000000
    27  H    4.310900   0.000000
    28  H    7.397151   5.693252   0.000000
    29  H    4.431523   2.434466   4.240954   0.000000
    30  H    7.399625   3.792065   3.599851   3.394820   0.000000
    31  H    6.194972   4.431226   8.031403   6.516034   6.638742
    32  H    8.125770   5.308515   6.375179   6.663758   5.165185
    33  H    6.165291   2.284331   4.757789   3.423150   2.360915
                   31         32         33
    31  H    0.000000
    32  H    3.491082   0.000000
    33  H    4.304034   3.580428   0.000000
 Stoichiometry    H12O16Si4Zr
 Framework group  C1[X(H12O16Si4Zr)]
 Deg. of freedom    93
 Full point group                 C1      NOp   1
 Largest Abelian subgroup         C1      NOp   1
 Largest concise Abelian subgroup C1      NOp   1
                         Standard orientation:                         
 ---------------------------------------------------------------------
 Center     Atomic      Atomic             Coordinates (Angstroms)
 Number     Number       Type             X           Y           Z
 ---------------------------------------------------------------------
      1         14           0        0.136218   -0.161933   -0.875079
      2          8           0        1.003443    1.211530   -1.007215
      3          8           0       -0.567598   -0.248593    0.634699
      4          8           0        1.128591   -1.457660   -1.099819
      5          8           0       -1.193360   -0.197905   -1.800722
      6         14           0        2.692681   -1.747520   -0.660268
      7         14           0       -0.420580   -0.303056    2.281068
      8         14           0        2.161503    2.118779   -0.244850
      9         40           0       -2.902361    0.013629   -0.738249
     10          8           0       -4.330260   -0.046245   -2.030577
     11          8           0       -2.959738    1.725416    0.153589
     12          8           0       -3.312209   -1.467340    0.552537
     13          8           0        3.555774    1.998102   -1.096586
     14          8           0        2.310024    1.582048    1.321008
     15          8           0        1.678564    3.676833   -0.101686
     16          8           0        3.001072   -3.339345   -0.936468
     17          8           0        2.936824   -1.215815    0.876436
     18          8           0        3.775672   -0.851057   -1.541089
     19          8           0        0.797142   -1.440422    2.533350
     20          8           0       -1.838447   -0.789700    2.918396
     21          8           0       -0.006189    1.145941    2.908467
     22          1           0       -4.064841   -2.069236    0.567841
     23          1           0       -5.040093    0.228418   -2.613331
     24          1           0       -2.645579    2.317229    0.842607
     25          1           0        3.785799    1.101907   -1.399343
     26          1           0        1.562458    4.181663   -0.913427
     27          1           0        2.829459    0.760972    1.383840
     28          1           0       -2.459687   -1.157585    2.254005
     29          1           0        0.824598    1.509802    2.544190
     30          1           0        0.885139   -1.764593    3.438322
     31          1           0        4.133722   -1.273463   -2.330421
     32          1           0        2.237585   -3.914701   -1.059129
     33          1           0        2.233925   -1.439643    1.528059
 ---------------------------------------------------------------------
 Rotational constants (GHZ):           0.2613232           0.1360201           0.1330278
 General basis read from cards:  (5D, 7F)
 ======================================================================================================
                                       Pseudopotential Parameters
 ======================================================================================================
  Center     Atomic      Valence      Angular      Power
  Number     Number     Electrons     Momentum     of R      Exponent        Coefficient   SO-Coeffient
 ======================================================================================================
    1         14
                                   No pseudopotential on this center.
    2          8
                                   No pseudopotential on this center.
    3          8
                                   No pseudopotential on this center.
    4          8
                                   No pseudopotential on this center.
    5          8
                                   No pseudopotential on this center.
    6         14
                                   No pseudopotential on this center.
    7         14
                                   No pseudopotential on this center.
    8         14
                                   No pseudopotential on this center.
    9         40           12
                                      G and up 
                                                     2        1.0000000        0.00000000    0.00000000
                                      S - G
                                                     2        8.6365280      150.24299400    0.00000000
                                                     2        3.7176390       18.78003600    0.00000000
                                      P - G
                                                     2        7.6267280       33.19279100    0.00000000
                                                     2        7.4532070       66.38903900    0.00000000
                                                     2        3.3583890        4.62072600    0.00000000
                                                     2        3.2297380        9.26027000    0.00000000
                                      D - G
                                                     2        5.9380860       13.99338300    0.00000000
                                                     2        5.8255440       20.99588200    0.00000000
                                                     2        2.2050190        2.28516600    0.00000000
                                                     2        2.2062920        3.44126000    0.00000000
                                      F - G
                                                     2        4.8002150       -5.23932000    0.00000000
                                                     2        4.7989920       -6.98742400    0.00000000
   10          8
                                   No pseudopotential on this center.
   11          8
                                   No pseudopotential on this center.
   12          8
                                   No pseudopotential on this center.
   13          8
                                   No pseudopotential on this center.
   14          8
                                   No pseudopotential on this center.
   15          8
                                   No pseudopotential on this center.
   16          8
                                   No pseudopotential on this center.
   17          8
                                   No pseudopotential on this center.
   18          8
                                   No pseudopotential on this center.
   19          8
                                   No pseudopotential on this center.
   20          8
                                   No pseudopotential on this center.
   21          8
                                   No pseudopotential on this center.
   22          1
                                   No pseudopotential on this center.
   23          1
                                   No pseudopotential on this center.
   24          1
                                   No pseudopotential on this center.
   25          1
                                   No pseudopotential on this center.
   26          1
                                   No pseudopotential on this center.
   27          1
                                   No pseudopotential on this center.
   28          1
                                   No pseudopotential on this center.
   29          1
                                   No pseudopotential on this center.
   30          1
                                   No pseudopotential on this center.
   31          1
                                   No pseudopotential on this center.
   32          1
                                   No pseudopotential on this center.
   33          1
                                   No pseudopotential on this center.
 ======================================================================================================
 There are   570 symmetry adapted cartesian basis functions of A   symmetry.
 There are   524 symmetry adapted basis functions of A   symmetry.
   524 basis functions,  1074 primitive gaussians,   570 cartesian basis functions
   104 alpha electrons      104 beta electrons
       nuclear repulsion energy      3028.5947136904 Hartrees.
 NAtoms=   33 NActive=   33 NUniq=   33 SFac= 1.00D+00 NAtFMM=   60 NAOKFM=F Big=F
 Integral buffers will be    131072 words long.
 Raffenetti 2 integral format.
 Two-electron integral symmetry is turned on.
 Nuclear repulsion after empirical dispersion term =     3028.5478454142 Hartrees.
 One-electron integrals computed using PRISM.
 PrsmSu:  requested number of processors reduced to:   4 ShMem   1 Linda.
   1 Symmetry operations used in ECPInt.
 ECPInt:  NShTT=   13203 NPrTT=   78401 LenC2=   11895 LenP2D=   45083.
 LDataN:  DoStor=T MaxTD1= 8 Len=  415
 Number of processors reduced to  13 by ecpmxn.
 NBasis=   524 RedAO= T EigKep=  2.50D-05  NBF=   524
 NBsUse=   524 1.00D-06 EigRej= -1.00D+00 NBFU=   524
 Defaulting to unpruned grid for atomic number  40.
 ExpMin= 1.01D-02 ExpMax= 1.61D+04 ExpMxC= 2.43D+03 IAcc=3 IRadAn=         5 AccDes= 0.00D+00
 Harris functional with IExCor=  402 and IRadAn=       5 diagonalized for initial guess.
 HarFok:  IExCor=  402 AccDes= 0.00D+00 IRadAn=         5 IDoV= 1 UseB2=F ITyADJ=14
 ICtDFT=  3500011 ScaDFX=  1.000000  1.000000  1.000000  1.000000
 Defaulting to unpruned grid for atomic number  40.
 FoFCou: FMM=F IPFlag=           0 FMFlag=      100000 FMFlg1=           0
         NFxFlg=           0 DoJE=T BraDBF=F KetDBF=T FulRan=T
         wScrn=  0.000000 ICntrl=       500 IOpCl=  0 I1Cent=   200000004 NGrid=           0
         NMat0=    1 NMatS0=      1 NMatT0=    0 NMatD0=    1 NMtDS0=    0 NMtDT0=    0
 Petite list used in FoFCou.
 Requested convergence on RMS density matrix=1.00D-08 within 128 cycles.
 Requested convergence on MAX density matrix=1.00D-06.
 Requested convergence on             energy=1.00D-06.
 No special actions if energy rises.
 Defaulting to unpruned grid for atomic number  40.
 Defaulting to unpruned grid for atomic number  40.
 Defaulting to unpruned grid for atomic number  40.
 Defaulting to unpruned grid for atomic number  40.
 Defaulting to unpruned grid for atomic number  40.
 Defaulting to unpruned grid for atomic number  40.
 Defaulting to unpruned grid for atomic number  40.
 Defaulting to unpruned grid for atomic number  40.
 Defaulting to unpruned grid for atomic number  40.
 Defaulting to unpruned grid for atomic number  40.
 Defaulting to unpruned grid for atomic number  40.
 Defaulting to unpruned grid for atomic number  40.
 Defaulting to unpruned grid for atomic number  40.
 Defaulting to unpruned grid for atomic number  40.
 Defaulting to unpruned grid for atomic number  40.
 Defaulting to unpruned grid for atomic number  40.
 SCF Done:  E(RB3LYP) =  -2416.94360242     A.U. after   14 cycles
            NFock= 14  Conv=0.33D-08     -V/T= 2.0185

 **********************************************************************

            Population analysis using the SCF Density.

 **********************************************************************

 Orbital symmetries:
       Occupied  (A) (A) (A) (A) (A) (A) (A) (A) (A) (A) (A) (A)
                 (A) (A) (A) (A) (A) (A) (A) (A) (A) (A) (A) (A)
                 (A) (A) (A) (A) (A) (A) (A) (A) (A) (A) (A) (A)
                 (A) (A) (A) (A) (A) (A) (A) (A) (A) (A) (A) (A)
                 (A) (A) (A) (A) (A) (A) (A) (A) (A) (A) (A) (A)
                 (A) (A) (A) (A) (A) (A) (A) (A) (A) (A) (A) (A)
                 (A) (A) (A) (A) (A) (A) (A) (A) (A) (A) (A) (A)
                 (A) (A) (A) (A) (A) (A) (A) (A) (A) (A) (A) (A)
                 (A) (A) (A) (A) (A) (A) (A) (A)
       Virtual   (A) (A) (A) (A) (A) (A) (A) (A) (A) (A) (A) (A)
                 (A) (A) (A) (A) (A) (A) (A) (A) (A) (A) (A) (A)
                 (A) (A) (A) (A) (A) (A) (A) (A) (A) (A) (A) (A)
                 (A) (A) (A) (A) (A) (A) (A) (A) (A) (A) (A) (A)
                 (A) (A) (A) (A) (A) (A) (A) (A) (A) (A) (A) (A)
                 (A) (A) (A) (A) (A) (A) (A) (A) (A) (A) (A) (A)
                 (A) (A) (A) (A) (A) (A) (A) (A) (A) (A) (A) (A)
                 (A) (A) (A) (A) (A) (A) (A) (A) (A) (A) (A) (A)
                 (A) (A) (A) (A) (A) (A) (A) (A) (A) (A) (A) (A)
                 (A) (A) (A) (A) (A) (A) (A) (A) (A) (A) (A) (A)
                 (A) (A) (A) (A) (A) (A) (A) (A) (A) (A) (A) (A)
                 (A) (A) (A) (A) (A) (A) (A) (A) (A) (A) (A) (A)
                 (A) (A) (A) (A) (A) (A) (A) (A) (A) (A) (A) (A)
                 (A) (A) (A) (A) (A) (A) (A) (A) (A) (A) (A) (A)
                 (A) (A) (A) (A) (A) (A) (A) (A) (A) (A) (A) (A)
                 (A) (A) (A) (A) (A) (A) (A) (A) (A) (A) (A) (A)
                 (A) (A) (A) (A) (A) (A) (A) (A) (A) (A) (A) (A)
                 (A) (A) (A) (A) (A) (A) (A) (A) (A) (A) (A) (A)
                 (A) (A) (A) (A) (A) (A) (A) (A) (A) (A) (A) (A)
                 (A) (A) (A) (A) (A) (A) (A) (A) (A) (A) (A) (A)
                 (A) (A) (A) (A) (A) (A) (A) (A) (A) (A) (A) (A)
                 (A) (A) (A) (A) (A) (A) (A) (A) (A) (A) (A) (A)
                 (A) (A) (A) (A) (A) (A) (A) (A) (A) (A) (A) (A)
                 (A) (A) (A) (A) (A) (A) (A) (A) (A) (A) (A) (A)
                 (A) (A) (A) (A) (A) (A) (A) (A) (A) (A) (A) (A)
                 (A) (A) (A) (A) (A) (A) (A) (A) (A) (A) (A) (A)
                 (A) (A) (A) (A) (A) (A) (A) (A) (A) (A) (A) (A)
                 (A) (A) (A) (A) (A) (A) (A) (A) (A) (A) (A) (A)
                 (A) (A) (A) (A) (A) (A) (A) (A) (A) (A) (A) (A)
                 (A) (A) (A) (A) (A) (A) (A) (A) (A) (A) (A) (A)
                 (A) (A) (A) (A) (A) (A) (A) (A) (A) (A) (A) (A)
                 (A) (A) (A) (A) (A) (A) (A) (A) (A) (A) (A) (A)
                 (A) (A) (A) (A) (A) (A) (A) (A) (A) (A) (A) (A)
                 (A) (A) (A) (A) (A) (A) (A) (A) (A) (A) (A) (A)
                 (A) (A) (A) (A) (A) (A) (A) (A) (A) (A) (A) (A)
 The electronic state is 1-A.
 Alpha  occ. eigenvalues --  -66.23537 -66.23162 -66.22349 -66.21832 -19.18911
 Alpha  occ. eigenvalues --  -19.18857 -19.18103 -19.17387 -19.17225 -19.17201
 Alpha  occ. eigenvalues --  -19.16688 -19.16410 -19.16112 -19.15793 -19.15756
 Alpha  occ. eigenvalues --  -19.15481 -19.15270 -19.15092 -19.14992 -19.14401
 Alpha  occ. eigenvalues --   -5.37599  -5.37055  -5.36399  -5.35882  -3.73595
 Alpha  occ. eigenvalues --   -3.73563  -3.73492  -3.73104  -3.73034  -3.72927
 Alpha  occ. eigenvalues --   -3.72460  -3.72361  -3.72229  -3.71883  -3.71824
 Alpha  occ. eigenvalues --   -3.71795  -2.12478  -1.28847  -1.28527  -1.28142
 Alpha  occ. eigenvalues --   -1.06679  -1.05441  -1.04510  -1.03345  -1.02901
 Alpha  occ. eigenvalues --   -1.02373  -1.01559  -1.01016  -1.00329  -1.00223
 Alpha  occ. eigenvalues --   -0.99851  -0.99463  -0.97773  -0.96946  -0.96169
 Alpha  occ. eigenvalues --   -0.95414  -0.62752  -0.61144  -0.60114  -0.57048
 Alpha  occ. eigenvalues --   -0.55909  -0.55331  -0.53585  -0.53262  -0.52537
 Alpha  occ. eigenvalues --   -0.52310  -0.51215  -0.50519  -0.50388  -0.50036
 Alpha  occ. eigenvalues --   -0.49238  -0.45927  -0.44116  -0.43787  -0.42925
 Alpha  occ. eigenvalues --   -0.42526  -0.42219  -0.41628  -0.40782  -0.40231
 Alpha  occ. eigenvalues --   -0.39125  -0.38937  -0.38404  -0.37761  -0.37471
 Alpha  occ. eigenvalues --   -0.37206  -0.36975  -0.36631  -0.36224  -0.35927
 Alpha  occ. eigenvalues --   -0.35674  -0.35622  -0.35133  -0.35088  -0.34523
 Alpha  occ. eigenvalues --   -0.34217  -0.33910  -0.33392  -0.33150  -0.32836
 Alpha  occ. eigenvalues --   -0.32624  -0.32344  -0.32274  -0.31840
 Alpha virt. eigenvalues --   -0.04109  -0.02799  -0.02198  -0.01894  -0.01522
 Alpha virt. eigenvalues --   -0.01269  -0.00459   0.00207   0.00620   0.01225
 Alpha virt. eigenvalues --    0.01370   0.01545   0.02366   0.02566   0.02746
 Alpha virt. eigenvalues --    0.03173   0.03343   0.03432   0.03735   0.03924
 Alpha virt. eigenvalues --    0.04159   0.04559   0.04917   0.05713   0.06300
 Alpha virt. eigenvalues --    0.06577   0.07139   0.07506   0.08002   0.08420
 Alpha virt. eigenvalues --    0.08697   0.08886   0.09204   0.09569   0.09817
 Alpha virt. eigenvalues --    0.10303   0.10466   0.10767   0.11028   0.11326
 Alpha virt. eigenvalues --    0.11623   0.12026   0.12354   0.12678   0.12972
 Alpha virt. eigenvalues --    0.13466   0.13945   0.14201   0.14382   0.14859
 Alpha virt. eigenvalues --    0.15050   0.15492   0.15776   0.16149   0.16442
 Alpha virt. eigenvalues --    0.16823   0.17263   0.17623   0.17747   0.18333
 Alpha virt. eigenvalues --    0.18393   0.18788   0.19165   0.19749   0.20122
 Alpha virt. eigenvalues --    0.20403   0.20691   0.21356   0.21477   0.22030
 Alpha virt. eigenvalues --    0.22212   0.22567   0.22948   0.23157   0.23498
 Alpha virt. eigenvalues --    0.23991   0.24210   0.24321   0.24645   0.24971
 Alpha virt. eigenvalues --    0.25258   0.25503   0.25804   0.26139   0.26711
 Alpha virt. eigenvalues --    0.26895   0.27058   0.27360   0.27747   0.28140
 Alpha virt. eigenvalues --    0.28344   0.28621   0.28705   0.29027   0.29456
 Alpha virt. eigenvalues --    0.29619   0.29783   0.30494   0.30717   0.31061
 Alpha virt. eigenvalues --    0.31214   0.31551   0.31680   0.32250   0.32420
 Alpha virt. eigenvalues --    0.32754   0.33302   0.33639   0.34065   0.34721
 Alpha virt. eigenvalues --    0.34818   0.35155   0.35676   0.36503   0.37132
 Alpha virt. eigenvalues --    0.37152   0.37304   0.37857   0.38674   0.38863
 Alpha virt. eigenvalues --    0.39245   0.39996   0.40801   0.41496   0.41819
 Alpha virt. eigenvalues --    0.42366   0.42444   0.43005   0.43775   0.43955
 Alpha virt. eigenvalues --    0.44844   0.45274   0.45497   0.46117   0.46665
 Alpha virt. eigenvalues --    0.47027   0.47692   0.49245   0.49737   0.50361
 Alpha virt. eigenvalues --    0.50654   0.51636   0.52249   0.52915   0.54459
 Alpha virt. eigenvalues --    0.54831   0.55312   0.55785   0.57050   0.57188
 Alpha virt. eigenvalues --    0.57596   0.58257   0.60607   0.60925   0.61212
 Alpha virt. eigenvalues --    0.61953   0.63350   0.63983   0.64207   0.64460
 Alpha virt. eigenvalues --    0.66386   0.66769   0.67525   0.68250   0.69355
 Alpha virt. eigenvalues --    0.70256   0.71226   0.71994   0.72096   0.73506
 Alpha virt. eigenvalues --    0.74080   0.74516   0.75365   0.77485   0.77878
 Alpha virt. eigenvalues --    0.80082   0.81276   0.82200   0.82964   0.84030
 Alpha virt. eigenvalues --    0.85663   0.86056   0.88369   0.89402   0.93409
 Alpha virt. eigenvalues --    0.94195   0.95267   0.95620   0.96790   0.97592
 Alpha virt. eigenvalues --    0.97995   0.99293   1.00191   1.00533   1.02090
 Alpha virt. eigenvalues --    1.02430   1.04315   1.05110   1.05974   1.06251
 Alpha virt. eigenvalues --    1.07804   1.08667   1.09403   1.09829   1.11503
 Alpha virt. eigenvalues --    1.12475   1.13969   1.15026   1.15706   1.16731
 Alpha virt. eigenvalues --    1.18574   1.19467   1.20818   1.21158   1.21634
 Alpha virt. eigenvalues --    1.22495   1.22847   1.23183   1.23536   1.24244
 Alpha virt. eigenvalues --    1.24418   1.25451   1.25620   1.26229   1.26679
 Alpha virt. eigenvalues --    1.26869   1.27135   1.27834   1.28896   1.29450
 Alpha virt. eigenvalues --    1.29501   1.30263   1.30873   1.31333   1.31382
 Alpha virt. eigenvalues --    1.31873   1.32289   1.33186   1.34088   1.34482
 Alpha virt. eigenvalues --    1.34951   1.35401   1.36217   1.36596   1.37495
 Alpha virt. eigenvalues --    1.38279   1.38398   1.39452   1.40104   1.40981
 Alpha virt. eigenvalues --    1.42622   1.43153   1.44354   1.44978   1.46285
 Alpha virt. eigenvalues --    1.47261   1.48490   1.50388   1.52398   1.53006
 Alpha virt. eigenvalues --    1.55599   1.56296   1.58164   1.59088   1.59469
 Alpha virt. eigenvalues --    1.59840   1.60978   1.61792   1.62641   1.63182
 Alpha virt. eigenvalues --    1.64186   1.65891   1.66347   1.66655   1.67284
 Alpha virt. eigenvalues --    1.67989   1.68817   1.69528   1.70078   1.70566
 Alpha virt. eigenvalues --    1.71333   1.71492   1.72627   1.73399   1.73540
 Alpha virt. eigenvalues --    1.73918   1.74792   1.75005   1.75776   1.76523
 Alpha virt. eigenvalues --    1.77634   1.78215   1.78409   1.78666   1.79100
 Alpha virt. eigenvalues --    1.80450   1.80678   1.81148   1.82104   1.82974
 Alpha virt. eigenvalues --    1.83941   1.84854   1.85398   1.86470   1.87372
 Alpha virt. eigenvalues --    1.87603   1.88830   1.89770   1.90798   1.91677
 Alpha virt. eigenvalues --    1.92090   1.92202   1.94099   1.95121   1.95612
 Alpha virt. eigenvalues --    1.97054   1.97275   1.98243   1.98488   1.99589
 Alpha virt. eigenvalues --    2.00840   2.01829   2.02976   2.03917   2.04401
 Alpha virt. eigenvalues --    2.04800   2.05139   2.06979   2.08403   2.08719
 Alpha virt. eigenvalues --    2.09300   2.12183   2.13908   2.14087   2.15250
 Alpha virt. eigenvalues --    2.17116   2.18477   2.19230   2.22743   2.23334
 Alpha virt. eigenvalues --    2.27331   2.31458   2.32950   2.38157   2.38524
 Alpha virt. eigenvalues --    2.39264   2.39963   2.40451   2.41754   2.42508
 Alpha virt. eigenvalues --    2.44166   2.44278   2.46865   2.47389   2.48786
 Alpha virt. eigenvalues --    2.49416   2.51236   2.51772   2.52135   2.54816
 Alpha virt. eigenvalues --    2.56150   2.58207   2.59285   2.59948   2.60136
 Alpha virt. eigenvalues --    2.60713   2.61086   2.61246   2.62233   2.63205
 Alpha virt. eigenvalues --    2.63802   2.64785   2.65443   2.66118   2.66194
 Alpha virt. eigenvalues --    2.67050   2.67969   2.70703   2.71736   2.72191
 Alpha virt. eigenvalues --    2.72661   2.73199   2.74620   2.75582   2.76362
 Alpha virt. eigenvalues --    2.77268   2.77659   2.78032   2.78717   2.81437
 Alpha virt. eigenvalues --    2.82230   2.83987   2.84242   2.85285   2.86513
 Alpha virt. eigenvalues --    2.87120   2.89052   2.89714   2.92876   2.96373
 Alpha virt. eigenvalues --    2.99916   3.04863   3.18213   3.27662   3.46338
 Alpha virt. eigenvalues --    3.48114   3.49071   3.50137   3.52027   3.56501
 Alpha virt. eigenvalues --    3.59868   3.60815   3.61473   3.63973   3.72059
 Alpha virt. eigenvalues --    3.75124   4.01202   4.13094   6.57452  30.88051
          Condensed to atoms (all electrons):
               1          2          3          4          5          6
     1  Si  23.905421  -1.120101  -2.584214  -1.561709  -3.873993  -0.191926
     2  O   -1.120101  10.064489   0.473574  -0.127697   0.211225  -0.127159
     3  O   -2.584214   0.473574  11.091222   0.398558   1.038651   0.058582
     4  O   -1.561709  -0.127697   0.398558   9.813449   0.542838  -0.579995
     5  O   -3.873993   0.211225   1.038651   0.542838  10.472870  -0.006110
     6  Si  -0.191926  -0.127159   0.058582  -0.579995  -0.006110  13.676957
     7  Si  -1.671189  -0.172555  -1.773764  -0.000022   0.301416   0.044693
     8  Si  -0.197705  -0.572152  -0.125691   0.043035   0.041841  -0.209750
     9  Zr  -1.275586   0.061424  -0.488159  -0.007735   0.237528   0.019996
    10  O   -0.023636   0.001165   0.010650   0.000914  -0.025753  -0.000871
    11  O    0.076519  -0.003547  -0.065408  -0.002069  -0.040468  -0.000362
    12  O    0.042887   0.004130  -0.031582  -0.009824  -0.023483  -0.002029
    13  O   -0.020590   0.238286   0.001646  -0.005733  -0.002493   0.065021
    14  O   -0.038761   0.387263   0.115172  -0.020400  -0.012672   0.011352
    15  O    0.012067   0.088961   0.006049   0.002294  -0.004559  -0.011119
    16  O    0.066624   0.015320  -0.007171   0.274424  -0.014206  -0.523442
    17  O   -0.070820  -0.034328   0.033510   0.256600   0.019091  -0.362248
    18  O   -0.083017  -0.005773  -0.011740   0.180020   0.005960  -0.305562
    19  O    0.154834  -0.008446   0.506821   0.017576  -0.009571  -0.007100
    20  O    0.217481  -0.005634   0.430078  -0.005075  -0.031458   0.001046
    21  O   -0.014284   0.045613   0.222001  -0.006765  -0.006169  -0.000040
    22  H   -0.000092  -0.000004   0.004234   0.000159   0.000191  -0.000170
    23  H   -0.001376   0.000001  -0.000112   0.000002  -0.000113   0.000016
    24  H   -0.010789   0.000445   0.003199   0.000024   0.000256   0.000017
    25  H   -0.000887  -0.005818  -0.000123   0.002905   0.000004   0.005015
    26  H   -0.008920  -0.015533   0.000389  -0.000090   0.000157  -0.000108
    27  H    0.012060  -0.032960  -0.014150  -0.004854  -0.000158   0.005944
    28  H   -0.007018  -0.000135  -0.000487   0.000331   0.001124  -0.000445
    29  H   -0.003502  -0.006758  -0.026745   0.000879  -0.000186  -0.000452
    30  H   -0.002384  -0.000098  -0.009948  -0.000203   0.000156   0.000103
    31  H   -0.001006  -0.002584   0.000043  -0.023092   0.000097   0.078884
    32  H    0.000618  -0.000177   0.000389   0.001658   0.000188   0.030463
    33  H   -0.017692   0.001295  -0.005251  -0.011983  -0.000311   0.052031
               7          8          9         10         11         12
     1  Si  -1.671189  -0.197705  -1.275586  -0.023636   0.076519   0.042887
     2  O   -0.172555  -0.572152   0.061424   0.001165  -0.003547   0.004130
     3  O   -1.773764  -0.125691  -0.488159   0.010650  -0.065408  -0.031582
     4  O   -0.000022   0.043035  -0.007735   0.000914  -0.002069  -0.009824
     5  O    0.301416   0.041841   0.237528  -0.025753  -0.040468  -0.023483
     6  Si   0.044693  -0.209750   0.019996  -0.000871  -0.000362  -0.002029
     7  Si  16.400555   0.170181   0.289545   0.004233  -0.035340  -0.009023
     8  Si   0.170181  12.905892   0.084183  -0.000869   0.001843   0.002066
     9  Zr   0.289545   0.084183  11.907716  -0.092509   0.151493   0.099960
    10  O    0.004233  -0.000869  -0.092509   8.789305  -0.045357  -0.042572
    11  O   -0.035340   0.001843   0.151493  -0.045357   8.376714  -0.020643
    12  O   -0.009023   0.002066   0.099960  -0.042572  -0.020643   8.539538
    13  O    0.010558  -0.165730  -0.006910  -0.000001  -0.000069  -0.000006
    14  O   -0.139018  -0.497402  -0.033110  -0.000007   0.000137   0.000028
    15  O   -0.016134  -0.088144  -0.011432  -0.000005   0.000217   0.000017
    16  O   -0.003125  -0.014931  -0.015118  -0.000000   0.000008   0.000053
    17  O   -0.070588   0.117669  -0.014601  -0.000016  -0.000091   0.000024
    18  O   -0.004610   0.112351  -0.003034   0.000001  -0.000018  -0.000016
    19  O   -0.744420  -0.031088  -0.070533  -0.000059   0.000144  -0.003160
    20  O   -0.819524   0.005716  -0.078218  -0.000676   0.002541  -0.013617
    21  O   -0.180479  -0.041157  -0.004781  -0.000015   0.006409   0.001311
    22  H   -0.000572   0.000033  -0.027891  -0.001958   0.000233   0.267780
    23  H   -0.000272   0.000034  -0.080173   0.342918  -0.000181  -0.000127
    24  H    0.002721  -0.000943  -0.057616   0.000519   0.315811  -0.002168
    25  H   -0.000800   0.042819  -0.000478  -0.000000   0.000000   0.000000
    26  H    0.000713   0.062440   0.000041   0.000000   0.000050   0.000000
    27  H    0.016180   0.089534   0.003036   0.000000  -0.000006  -0.000001
    28  H    0.022110  -0.000324   0.003371   0.000451  -0.000899   0.032158
    29  H    0.069881   0.022998  -0.001617  -0.000000  -0.000172   0.000005
    30  H    0.053991   0.000210   0.002261  -0.000000   0.000003   0.000085
    31  H    0.000461  -0.003627   0.000108  -0.000000   0.000000   0.000000
    32  H   -0.000497   0.000090   0.001046   0.000000  -0.000000  -0.000002
    33  H    0.022067  -0.003140   0.000156   0.000000   0.000004   0.000011
              13         14         15         16         17         18
     1  Si  -0.020590  -0.038761   0.012067   0.066624  -0.070820  -0.083017
     2  O    0.238286   0.387263   0.088961   0.015320  -0.034328  -0.005773
     3  O    0.001646   0.115172   0.006049  -0.007171   0.033510  -0.011740
     4  O   -0.005733  -0.020400   0.002294   0.274424   0.256600   0.180020
     5  O   -0.002493  -0.012672  -0.004559  -0.014206   0.019091   0.005960
     6  Si   0.065021   0.011352  -0.011119  -0.523442  -0.362248  -0.305562
     7  Si   0.010558  -0.139018  -0.016134  -0.003125  -0.070588  -0.004610
     8  Si  -0.165730  -0.497402  -0.088144  -0.014931   0.117669   0.112351
     9  Zr  -0.006910  -0.033110  -0.011432  -0.015118  -0.014601  -0.003034
    10  O   -0.000001  -0.000007  -0.000005  -0.000000  -0.000016   0.000001
    11  O   -0.000069   0.000137   0.000217   0.000008  -0.000091  -0.000018
    12  O   -0.000006   0.000028   0.000017   0.000053   0.000024  -0.000016
    13  O    8.630629   0.008486  -0.078955   0.003335  -0.024508  -0.044456
    14  O    0.008486   8.985679   0.086603   0.006186  -0.059642  -0.026743
    15  O   -0.078955   0.086603   8.614957  -0.000219   0.003509   0.002087
    16  O    0.003335   0.006186  -0.000219   8.947794  -0.121924  -0.074424
    17  O   -0.024508  -0.059642   0.003509  -0.121924   8.998481   0.170964
    18  O   -0.044456  -0.026743   0.002087  -0.074424   0.170964   8.898114
    19  O    0.000378   0.019435   0.000617  -0.001777  -0.014268  -0.000608
    20  O   -0.000026  -0.003408   0.000311   0.000000   0.001760   0.000042
    21  O   -0.001054   0.044092   0.005004  -0.000072  -0.010747  -0.000067
    22  H   -0.000000  -0.000000   0.000000  -0.000000   0.000001  -0.000000
    23  H   -0.000000  -0.000000   0.000000   0.000000   0.000000   0.000000
    24  H    0.000003  -0.000026   0.000007   0.000000   0.000002   0.000000
    25  H    0.227667  -0.008533   0.006804   0.000174   0.000366   0.010867
    26  H   -0.007383   0.003519   0.232882   0.000000  -0.000013   0.000009
    27  H   -0.002397   0.187954   0.001616  -0.000172   0.012990   0.000997
    28  H    0.000000  -0.000003  -0.000002  -0.000003  -0.000009   0.000000
    29  H    0.000566   0.002331   0.000149  -0.000010  -0.000254   0.000026
    30  H   -0.000002  -0.000436   0.000000  -0.000068   0.000309  -0.000007
    31  H    0.002132  -0.000079  -0.000012  -0.001458   0.001836   0.215369
    32  H   -0.000002  -0.000013   0.000000   0.231292  -0.002952   0.004479
    33  H    0.000661   0.000360  -0.000153   0.000204   0.212365   0.003184
              19         20         21         22         23         24
     1  Si   0.154834   0.217481  -0.014284  -0.000092  -0.001376  -0.010789
     2  O   -0.008446  -0.005634   0.045613  -0.000004   0.000001   0.000445
     3  O    0.506821   0.430078   0.222001   0.004234  -0.000112   0.003199
     4  O    0.017576  -0.005075  -0.006765   0.000159   0.000002   0.000024
     5  O   -0.009571  -0.031458  -0.006169   0.000191  -0.000113   0.000256
     6  Si  -0.007100   0.001046  -0.000040  -0.000170   0.000016   0.000017
     7  Si  -0.744420  -0.819524  -0.180479  -0.000572  -0.000272   0.002721
     8  Si  -0.031088   0.005716  -0.041157   0.000033   0.000034  -0.000943
     9  Zr  -0.070533  -0.078218  -0.004781  -0.027891  -0.080173  -0.057616
    10  O   -0.000059  -0.000676  -0.000015  -0.001958   0.342918   0.000519
    11  O    0.000144   0.002541   0.006409   0.000233  -0.000181   0.315811
    12  O   -0.003160  -0.013617   0.001311   0.267780  -0.000127  -0.002168
    13  O    0.000378  -0.000026  -0.001054  -0.000000  -0.000000   0.000003
    14  O    0.019435  -0.003408   0.044092  -0.000000  -0.000000  -0.000026
    15  O    0.000617   0.000311   0.005004   0.000000   0.000000   0.000007
    16  O   -0.001777   0.000000  -0.000072  -0.000000   0.000000   0.000000
    17  O   -0.014268   0.001760  -0.010747   0.000001   0.000000   0.000002
    18  O   -0.000608   0.000042  -0.000067  -0.000000   0.000000   0.000000
    19  O    9.044657   0.047868  -0.067198   0.000064  -0.000000   0.000063
    20  O    0.047868   8.740151   0.090597   0.003129  -0.000005  -0.000579
    21  O   -0.067198   0.090597   8.590908  -0.000001  -0.000000  -0.000518
    22  H    0.000064   0.003129  -0.000001   0.358141   0.000010  -0.000006
    23  H   -0.000000  -0.000005  -0.000000   0.000010   0.366672   0.000009
    24  H    0.000063  -0.000579  -0.000518  -0.000006   0.000009   0.361953
    25  H   -0.000033   0.000001  -0.000003  -0.000000   0.000000  -0.000000
    26  H   -0.000000  -0.000001   0.000010  -0.000000  -0.000000  -0.000001
    27  H   -0.001781   0.000060  -0.002997   0.000000   0.000000  -0.000000
    28  H   -0.006101   0.237000  -0.001249  -0.001824   0.000000   0.000036
    29  H   -0.006259   0.004375   0.208776   0.000000  -0.000000   0.000019
    30  H    0.219473  -0.007515  -0.003349   0.000000  -0.000000   0.000000
    31  H    0.000018  -0.000000  -0.000000   0.000000  -0.000000  -0.000000
    32  H    0.000020  -0.000002   0.000000   0.000000  -0.000000   0.000000
    33  H    0.013731   0.000165   0.002646  -0.000000  -0.000000  -0.000000
              25         26         27         28         29         30
     1  Si  -0.000887  -0.008920   0.012060  -0.007018  -0.003502  -0.002384
     2  O   -0.005818  -0.015533  -0.032960  -0.000135  -0.006758  -0.000098
     3  O   -0.000123   0.000389  -0.014150  -0.000487  -0.026745  -0.009948
     4  O    0.002905  -0.000090  -0.004854   0.000331   0.000879  -0.000203
     5  O    0.000004   0.000157  -0.000158   0.001124  -0.000186   0.000156
     6  Si   0.005015  -0.000108   0.005944  -0.000445  -0.000452   0.000103
     7  Si  -0.000800   0.000713   0.016180   0.022110   0.069881   0.053991
     8  Si   0.042819   0.062440   0.089534  -0.000324   0.022998   0.000210
     9  Zr  -0.000478   0.000041   0.003036   0.003371  -0.001617   0.002261
    10  O   -0.000000   0.000000   0.000000   0.000451  -0.000000  -0.000000
    11  O    0.000000   0.000050  -0.000006  -0.000899  -0.000172   0.000003
    12  O    0.000000   0.000000  -0.000001   0.032158   0.000005   0.000085
    13  O    0.227667  -0.007383  -0.002397   0.000000   0.000566  -0.000002
    14  O   -0.008533   0.003519   0.187954  -0.000003   0.002331  -0.000436
    15  O    0.006804   0.232882   0.001616  -0.000002   0.000149   0.000000
    16  O    0.000174   0.000000  -0.000172  -0.000003  -0.000010  -0.000068
    17  O    0.000366  -0.000013   0.012990  -0.000009  -0.000254   0.000309
    18  O    0.010867   0.000009   0.000997   0.000000   0.000026  -0.000007
    19  O   -0.000033  -0.000000  -0.001781  -0.006101  -0.006259   0.219473
    20  O    0.000001  -0.000001   0.000060   0.237000   0.004375  -0.007515
    21  O   -0.000003   0.000010  -0.002997  -0.001249   0.208776  -0.003349
    22  H   -0.000000  -0.000000   0.000000  -0.001824   0.000000   0.000000
    23  H    0.000000  -0.000000   0.000000   0.000000  -0.000000  -0.000000
    24  H   -0.000000  -0.000001  -0.000000   0.000036   0.000019   0.000000
    25  H    0.304215  -0.000011  -0.000115  -0.000000  -0.000001   0.000000
    26  H   -0.000011   0.360577  -0.000053   0.000000   0.000011   0.000000
    27  H   -0.000115  -0.000053   0.309187   0.000000  -0.000363   0.000053
    28  H   -0.000000   0.000000   0.000000   0.281413  -0.000022   0.000065
    29  H   -0.000001   0.000011  -0.000363  -0.000022   0.299186   0.000139
    30  H    0.000000   0.000000   0.000053   0.000065   0.000139   0.332394
    31  H   -0.000326   0.000000   0.000010   0.000000   0.000000   0.000000
    32  H   -0.000001  -0.000000  -0.000000   0.000000  -0.000000   0.000000
    33  H   -0.000005   0.000000  -0.001503  -0.000003   0.000075  -0.000440
              31         32         33
     1  Si  -0.001006   0.000618  -0.017692
     2  O   -0.002584  -0.000177   0.001295
     3  O    0.000043   0.000389  -0.005251
     4  O   -0.023092   0.001658  -0.011983
     5  O    0.000097   0.000188  -0.000311
     6  Si   0.078884   0.030463   0.052031
     7  Si   0.000461  -0.000497   0.022067
     8  Si  -0.003627   0.000090  -0.003140
     9  Zr   0.000108   0.001046   0.000156
    10  O   -0.000000   0.000000   0.000000
    11  O    0.000000  -0.000000   0.000004
    12  O    0.000000  -0.000002   0.000011
    13  O    0.002132  -0.000002   0.000661
    14  O   -0.000079  -0.000013   0.000360
    15  O   -0.000012   0.000000  -0.000153
    16  O   -0.001458   0.231292   0.000204
    17  O    0.001836  -0.002952   0.212365
    18  O    0.215369   0.004479   0.003184
    19  O    0.000018   0.000020   0.013731
    20  O   -0.000000  -0.000002   0.000165
    21  O   -0.000000   0.000000   0.002646
    22  H    0.000000   0.000000  -0.000000
    23  H   -0.000000  -0.000000  -0.000000
    24  H   -0.000000   0.000000  -0.000000
    25  H   -0.000326  -0.000001  -0.000005
    26  H    0.000000  -0.000000   0.000000
    27  H    0.000010  -0.000000  -0.001503
    28  H    0.000000   0.000000  -0.000003
    29  H    0.000000  -0.000000   0.000075
    30  H    0.000000   0.000000  -0.000440
    31  H    0.335404   0.000015  -0.000047
    32  H    0.000015   0.348016   0.000127
    33  H   -0.000047   0.000127   0.278198
 Mulliken charges:
               1
     1  Si   2.292688
     2  O   -1.351731
     3  O   -1.250222
     4  O   -1.168419
     5  O   -0.821887
     6  Si   2.278770
     7  Si   2.232626
     8  Si   2.249717
     9  Zr   1.407636
    10  O   -0.915850
    11  O   -0.717498
    12  O   -0.831799
    13  O   -0.829056
    14  O   -1.018343
    15  O   -0.853419
    16  O   -0.767294
    17  O   -1.042468
    18  O   -1.044398
    19  O   -1.053295
    20  O   -0.816580
    21  O   -0.876421
    22  H    0.398545
    23  H    0.372698
    24  H    0.387560
    25  H    0.416294
    26  H    0.371313
    27  H    0.421889
    28  H    0.440465
    29  H    0.436925
    30  H    0.415209
    31  H    0.397854
    32  H    0.385243
    33  H    0.453249
 Sum of Mulliken charges =  -0.00000
 Mulliken charges with hydrogens summed into heavy atoms:
               1
     1  Si   2.292688
     2  O   -1.351731
     3  O   -1.250222
     4  O   -1.168419
     5  O   -0.821887
     6  Si   2.278770
     7  Si   2.232626
     8  Si   2.249717
     9  Zr   1.407636
    10  O   -0.543153
    11  O   -0.329938
    12  O   -0.433254
    13  O   -0.412762
    14  O   -0.596453
    15  O   -0.482106
    16  O   -0.382051
    17  O   -0.589220
    18  O   -0.646544
    19  O   -0.638086
    20  O   -0.376115
    21  O   -0.439496
 Electronic spatial extent (au):  <R**2>=           8107.3501
 Charge=             -0.0000 electrons
 Dipole moment (field-independent basis, Debye):
    X=             -2.2946    Y=             -3.7161    Z=             -2.5687  Tot=              5.0668
 Quadrupole moment (field-independent basis, Debye-Ang):
   XX=           -156.4459   YY=           -156.2088   ZZ=           -160.5169
   XY=             -4.1004   XZ=              2.2745   YZ=             -7.6557
 Traceless Quadrupole moment (field-independent basis, Debye-Ang):
   XX=              1.2780   YY=              1.5151   ZZ=             -2.7931
   XY=             -4.1004   XZ=              2.2745   YZ=             -7.6557
 Octapole moment (field-independent basis, Debye-Ang**2):
  XXX=           -211.8596  YYY=            -17.9637  ZZZ=            -41.2873  XYY=            -60.1031
  XXY=            -35.9635  XXZ=            -68.1547  XZZ=              9.0047  YZZ=            -27.0750
  YYZ=            -29.9921  XYZ=              7.9680
 Hexadecapole moment (field-independent basis, Debye-Ang**3):
 XXXX=          -5387.1995 YYYY=          -2174.6354 ZZZZ=          -2157.0129 XXXY=             16.6084
 XXXZ=            142.4359 YYYX=             19.8812 YYYZ=            -91.3950 ZZZX=            168.9084
 ZZZY=           -107.1311 XXYY=          -1465.3684 XXZZ=          -1133.0784 YYZZ=           -714.7019
 XXYZ=             14.0146 YYXZ=            -30.5368 ZZXY=            -96.2751
 N-N= 3.028547845414D+03 E-N=-1.176903199579D+04  KE= 2.373109150221D+03
 PrsmSu:  requested number of processors reduced to:   2 ShMem   1 Linda.
 PrsmSu:  requested number of processors reduced to:  10 ShMem   1 Linda.
   1 Symmetry operations used in ECPInt.
 ECPInt:  NShTT=   13203 NPrTT=   78401 LenC2=   11895 LenP2D=   45083.
 LDataN:  DoStor=T MaxTD1= 9 Len=  602
 Number of processors reduced to  14 by ecpmxn.
 Calling FoFJK, ICntrl=      2127 FMM=F ISym2X=0 I1Cent= 0 IOpClX= 0 NMat=1 NMatS=1 NMatT=0.
 CoulSu:  requested number of processors reduced to:  10 ShMem   1 Linda.
 Defaulting to unpruned grid for atomic number  40.
 Defaulting to unpruned grid for atomic number  40.
 Defaulting to unpruned grid for atomic number  40.
 Defaulting to unpruned grid for atomic number  40.
 Defaulting to unpruned grid for atomic number  40.
 Defaulting to unpruned grid for atomic number  40.
 Defaulting to unpruned grid for atomic number  40.
 Defaulting to unpruned grid for atomic number  40.
 Defaulting to unpruned grid for atomic number  40.
 Defaulting to unpruned grid for atomic number  40.
 Defaulting to unpruned grid for atomic number  40.
 Defaulting to unpruned grid for atomic number  40.
 Defaulting to unpruned grid for atomic number  40.
 Defaulting to unpruned grid for atomic number  40.
 Defaulting to unpruned grid for atomic number  40.
 Defaulting to unpruned grid for atomic number  40.
 ***** Axes restored to original set *****
 -------------------------------------------------------------------
 Center     Atomic                   Forces (Hartrees/Bohr)
 Number     Number              X              Y              Z
 -------------------------------------------------------------------
      1       14           0.001614975   -0.000084053    0.001076396
      2        8          -0.000076410   -0.000070235   -0.000113972
      3        8          -0.000005897    0.000116712    0.000835757
      4        8          -0.000128184    0.000081157   -0.000108976
      5        8           0.000301910    0.000030953   -0.000535947
      6       14           0.000110439   -0.000104818   -0.000023792
      7       14          -0.000965210   -0.000712774   -0.001926626
      8       14           0.000102421    0.000046777   -0.000009422
      9       40          -0.000537025    0.001086753   -0.000032056
     10        8          -0.000183101    0.000015370    0.000174997
     11        8          -0.000399602    0.000018566    0.000358041
     12        8          -0.001545827   -0.001312211    0.000025502
     13        8          -0.000032292   -0.000022353   -0.000030579
     14        8          -0.000041284   -0.000004624    0.000023340
     15        8          -0.000016617   -0.000029749   -0.000008954
     16        8          -0.000022811    0.000054859    0.000008560
     17        8          -0.000024675    0.000037744    0.000032437
     18        8          -0.000011984    0.000018362   -0.000003673
     19        8           0.000177461    0.000089954    0.000266699
     20        8           0.002077121    0.000990165   -0.001675477
     21        8           0.000162208    0.000219453    0.000282324
     22        1          -0.000239982   -0.000027728    0.000396051
     23        1          -0.000018557   -0.000051604    0.000032031
     24        1           0.000077316   -0.000047601   -0.000089662
     25        1           0.000006837    0.000010209    0.000012990
     26        1          -0.000001616    0.000009246   -0.000001039
     27        1           0.000015318   -0.000009560   -0.000006022
     28        1          -0.000325901   -0.000357319    0.001101778
     29        1           0.000018168    0.000020485   -0.000044694
     30        1          -0.000072340    0.000031392    0.000020441
     31        1           0.000006159   -0.000002525    0.000012336
     32        1          -0.000005295   -0.000013481   -0.000004971
     33        1          -0.000015720   -0.000027524   -0.000043818
 -------------------------------------------------------------------
 Cartesian Forces:  Max     0.002077121 RMS     0.000513694

 GradGradGradGradGradGradGradGradGradGradGradGradGradGradGradGradGradGrad
 Berny optimization.
 FormGI is forming the generalized inverse of G from B-inverse, IUseBI=4.
 Internal  Forces:  Max     0.006633164 RMS     0.000915733
 Search for a local minimum.
 Step number   1 out of a maximum of  164
 All quantities printed in internal units (Hartrees-Bohrs-Radians)
 Mixed Optimization -- En-DIIS/RFO-DIIS
 Second derivative matrix not updated -- first step.
 ITU=  0
     Eigenvalues ---    0.00230   0.00230   0.00230   0.00541   0.03211
     Eigenvalues ---    0.03439   0.03520   0.03558   0.03586   0.03627
     Eigenvalues ---    0.03673   0.03711   0.03747   0.03753   0.03833
     Eigenvalues ---    0.03844   0.03910   0.03946   0.03957   0.04440
     Eigenvalues ---    0.04857   0.08366   0.08601   0.10790   0.11319
     Eigenvalues ---    0.11516   0.11815   0.11842   0.12054   0.12258
     Eigenvalues ---    0.12943   0.12968   0.13045   0.13232   0.14947
     Eigenvalues ---    0.15384   0.16000   0.16000   0.16000   0.16000
     Eigenvalues ---    0.16000   0.16000   0.16000   0.16000   0.16000
     Eigenvalues ---    0.16000   0.16000   0.16000   0.17756   0.18549
     Eigenvalues ---    0.18975   0.20145   0.20369   0.20384   0.21054
     Eigenvalues ---    0.21061   0.21266   0.21449   0.21864   0.22129
     Eigenvalues ---    0.22787   0.25000   0.25000   0.25000   0.36480
     Eigenvalues ---    0.37725   0.40032   0.40890   0.41311   0.41617
     Eigenvalues ---    0.42076   0.42599   0.43032   0.43450   0.43522
     Eigenvalues ---    0.44473   0.44608   0.45420   0.45878   0.46010
     Eigenvalues ---    0.50565   0.51158   0.51894   0.52645   0.52665
     Eigenvalues ---    0.54349   0.54581   0.54655   0.54658   0.54845
     Eigenvalues ---    0.55241   0.557771000.000001000.000001000.00000
     Eigenvalues --- 1000.000001000.000001000.000001000.000001000.00000
     Eigenvalues --- 1000.000001000.000001000.000001000.000001000.00000
     Eigenvalues --- 1000.000001000.000001000.000001000.000001000.00000
     Eigenvalues --- 1000.000001000.000001000.000001000.000001000.00000
     Eigenvalues --- 1000.000001000.000001000.000001000.000001000.00000
     Eigenvalues --- 1000.000001000.000001000.000001000.000001000.00000
     Eigenvalues --- 1000.000001000.000001000.000001000.000001000.00000
     Eigenvalues --- 1000.000001000.000001000.000001000.000001000.00000
     Eigenvalues --- 1000.000001000.000001000.000001000.000001000.00000
     Eigenvalues --- 1000.000001000.000001000.000001000.000001000.00000
     Eigenvalues --- 1000.000001000.000001000.000001000.000001000.00000
     Eigenvalues --- 1000.000001000.000001000.000001000.00000
 RFO step:  Lambda=-9.76112670D-04 EMin= 2.30000000D-03
 Linear search not attempted -- first point.
 Iteration  1 RMS(Cart)=  0.07681150 RMS(Int)=  0.00136554
 Iteration  2 RMS(Cart)=  0.00224525 RMS(Int)=  0.00008520
 Iteration  3 RMS(Cart)=  0.00000123 RMS(Int)=  0.00008520
 Iteration  4 RMS(Cart)=  0.00000000 RMS(Int)=  0.00008520
 Iteration  1 RMS(Cart)=  0.00002539 RMS(Int)=  0.00001345
 Iteration  2 RMS(Cart)=  0.00001797 RMS(Int)=  0.00001478
 Iteration  3 RMS(Cart)=  0.00001272 RMS(Int)=  0.00001703
 Iteration  4 RMS(Cart)=  0.00000900 RMS(Int)=  0.00001907
 Iteration  5 RMS(Cart)=  0.00000637 RMS(Int)=  0.00002066
 Iteration  6 RMS(Cart)=  0.00000451 RMS(Int)=  0.00002185
 Iteration  7 RMS(Cart)=  0.00000319 RMS(Int)=  0.00002271
 Iteration  8 RMS(Cart)=  0.00000226 RMS(Int)=  0.00002334
 Iteration  9 RMS(Cart)=  0.00000160 RMS(Int)=  0.00002379
 Iteration 10 RMS(Cart)=  0.00000113 RMS(Int)=  0.00002410
 Iteration 11 RMS(Cart)=  0.00000080 RMS(Int)=  0.00002433
 Variable       Old X    -DE/DX   Delta X   Delta X   Delta X     New X
                                 (Linear)    (Quad)   (Total)
    R1        3.07970   0.00009   0.00000   0.00020   0.00020   3.07989
    R2        3.15210  -0.00054   0.00000  -0.00136  -0.00136   3.15075
    R3        3.11330   0.00011   0.00000   0.00025   0.00025   3.11356
    R4        3.06222   0.00049   0.00000  -0.00373  -0.00361   3.05861
    R5        5.75747  -0.00293   0.00000  -0.01159  -0.01159   5.74588
    R6        3.13114  -0.00002   0.00000  -0.00005  -0.00005   3.13109
    R7        3.12526  -0.00204   0.00000  -0.00485  -0.00485   3.12041
    R8        3.11868  -0.00006   0.00000  -0.00013  -0.00013   3.11854
    R9        3.82373   0.00027   0.00000  -0.00991  -0.01000   3.81373
   R10        3.10818   0.00005   0.00000   0.00011   0.00011   3.10829
   R11        3.10731  -0.00001   0.00000  -0.00003  -0.00003   3.10728
   R12        3.13510  -0.00001   0.00000  -0.00002  -0.00002   3.13508
   R13        3.18468   0.00005   0.00000   0.00014   0.00014   3.18481
   R14        3.07820   0.00150   0.00000   0.00326   0.00326   3.08146
   R15        3.08491  -0.00017   0.00000  -0.00037  -0.00037   3.08454
   R16        3.09593   0.00003   0.00000   0.00007   0.00007   3.09600
   R17        3.14061   0.00002   0.00000   0.00004   0.00004   3.14066
   R18        3.09434   0.00001   0.00000   0.00003   0.00003   3.09437
   R19        3.64114  -0.00029   0.00000  -0.00130  -0.00130   3.63984
[...]
 Alpha virt. eigenvalues --    2.99792   3.04765   3.18233   3.27813   3.46377
 Alpha virt. eigenvalues --    3.48119   3.49144   3.50200   3.52547   3.56566
 Alpha virt. eigenvalues --    3.60000   3.61030   3.61905   3.63958   3.72359
 Alpha virt. eigenvalues --    3.76036   4.01982   4.12772   6.62568  30.88704
          Condensed to atoms (all electrons):
               1          2          3          4          5          6
     1  Si  24.102067  -1.160263  -2.651018  -1.563855  -3.904472  -0.187941
     2  O   -1.160263  10.063091   0.491492  -0.134468   0.225766  -0.120023
     3  O   -2.651018   0.491492  11.148219   0.403911   1.049349   0.056804
     4  O   -1.563855  -0.134468   0.403911   9.810550   0.546069  -0.567248
     5  O   -3.904472   0.225766   1.049349   0.546069  10.470975  -0.008530
     6  Si  -0.187941  -0.120023   0.056804  -0.567248  -0.008530  13.651921
     7  Si  -1.718353  -0.166409  -1.814254  -0.001537   0.304465   0.042492
     8  Si  -0.196948  -0.564328  -0.125418   0.044629   0.040038  -0.210222
     9  Zr  -1.305577   0.065540  -0.490468  -0.007567   0.242161   0.019462
    10  O   -0.023460   0.001170   0.010625   0.000869  -0.025879  -0.000842
    11  O    0.078040  -0.003838  -0.064357  -0.002022  -0.041678  -0.000362
    12  O    0.043846   0.004317  -0.032935  -0.010265  -0.023829  -0.002224
    13  O   -0.021777   0.234422   0.001663  -0.005933  -0.002382   0.064987
    14  O   -0.037778   0.386448   0.115602  -0.021303  -0.012144   0.011410
    15  O    0.011896   0.086532   0.006239   0.002474  -0.004654  -0.011244
    16  O    0.066647   0.014913  -0.007032   0.270476  -0.013881  -0.515195
    17  O   -0.071274  -0.037657   0.034860   0.255021   0.019827  -0.361533
    18  O   -0.083017  -0.006303  -0.012282   0.179477   0.006107  -0.306227
    19  O    0.153229  -0.007437   0.513741   0.018106  -0.009635  -0.007644
    20  O    0.222456  -0.006411   0.435352  -0.004955  -0.031659   0.001034
    21  O   -0.012081   0.046145   0.234740  -0.006558  -0.006830   0.000194
    22  H   -0.000239  -0.000005   0.004508   0.000185   0.000264  -0.000180
    23  H   -0.001489   0.000002  -0.000105   0.000002  -0.000121   0.000015
    24  H   -0.010898   0.000454   0.003212   0.000023   0.000276   0.000026
    25  H   -0.000858  -0.005728  -0.000115   0.002913  -0.000002   0.005052
    26  H   -0.008948  -0.015530   0.000398  -0.000088   0.000156  -0.000106
    27  H    0.012598  -0.033068  -0.014706  -0.004821  -0.000178   0.005649
    28  H   -0.007152  -0.000126  -0.001485   0.000327   0.001199  -0.000442
    29  H   -0.003964  -0.006683  -0.027035   0.000856  -0.000181  -0.000471
    30  H   -0.002281  -0.000092  -0.010119  -0.000203   0.000151   0.000015
    31  H   -0.000898  -0.002543   0.000046  -0.023010   0.000087   0.078815
    32  H    0.000548  -0.000173   0.000403   0.001835   0.000184   0.030235
    33  H   -0.017796   0.001399  -0.005474  -0.012075  -0.000332   0.052515
               7          8          9         10         11         12
     1  Si  -1.718353  -0.196948  -1.305577  -0.023460   0.078040   0.043846
     2  O   -0.166409  -0.564328   0.065540   0.001170  -0.003838   0.004317
     3  O   -1.814254  -0.125418  -0.490468   0.010625  -0.064357  -0.032935
     4  O   -0.001537   0.044629  -0.007567   0.000869  -0.002022  -0.010265
     5  O    0.304465   0.040038   0.242161  -0.025879  -0.041678  -0.023829
     6  Si   0.042492  -0.210222   0.019462  -0.000842  -0.000362  -0.002224
     7  Si  16.523042   0.167633   0.290308   0.004418  -0.037533  -0.003257
     8  Si   0.167633  12.885590   0.084530  -0.000869   0.001940   0.002178
     9  Zr   0.290308   0.084530  11.928246  -0.089990   0.149827   0.091983
    10  O    0.004418  -0.000869  -0.089990   8.784698  -0.044847  -0.042268
    11  O   -0.037533   0.001940   0.149827  -0.044847   8.380310  -0.021300
    12  O   -0.003257   0.002178   0.091983  -0.042268  -0.021300   8.560522
    13  O    0.010633  -0.159039  -0.006782  -0.000001  -0.000070  -0.000006
    14  O   -0.138090  -0.495362  -0.033348  -0.000005   0.000067   0.000011
    15  O   -0.015837  -0.083885  -0.011544  -0.000004   0.000233   0.000020
    16  O   -0.002971  -0.015010  -0.015278  -0.000000   0.000008   0.000055
    17  O   -0.071440   0.118561  -0.014258  -0.000016  -0.000090   0.000035
    18  O   -0.004544   0.112911  -0.002962   0.000001  -0.000018  -0.000017
    19  O   -0.752728  -0.030488  -0.070617  -0.000066   0.000203  -0.003369
    20  O   -0.833623   0.005555  -0.077345  -0.000750   0.002888  -0.019305
    21  O   -0.205805  -0.041228  -0.006096  -0.000018   0.006728   0.001170
    22  H   -0.000809   0.000030  -0.028281  -0.002004   0.000238   0.267876
    23  H   -0.000289   0.000033  -0.079880   0.342543  -0.000226  -0.000173
    24  H    0.002830  -0.000939  -0.058698   0.000480   0.316839  -0.002221
    25  H   -0.000802   0.042931  -0.000482  -0.000000   0.000000   0.000000
    26  H    0.000706   0.062613   0.000022   0.000000   0.000051   0.000000
    27  H    0.016722   0.089452   0.003082   0.000000  -0.000006  -0.000001
    28  H    0.023675  -0.000329   0.003503   0.000491  -0.000951   0.033104
    29  H    0.070986   0.022864  -0.001609  -0.000000  -0.000188   0.000010
    30  H    0.054376   0.000202   0.002257  -0.000000   0.000003   0.000095
    31  H    0.000460  -0.003703   0.000104  -0.000000   0.000000   0.000000
    32  H   -0.000511   0.000092   0.001084   0.000000  -0.000000  -0.000002
    33  H    0.022372  -0.003099   0.000199   0.000000   0.000004   0.000012
              13         14         15         16         17         18
     1  Si  -0.021777  -0.037778   0.011896   0.066647  -0.071274  -0.083017
     2  O    0.234422   0.386448   0.086532   0.014913  -0.037657  -0.006303
     3  O    0.001663   0.115602   0.006239  -0.007032   0.034860  -0.012282
     4  O   -0.005933  -0.021303   0.002474   0.270476   0.255021   0.179477
     5  O   -0.002382  -0.012144  -0.004654  -0.013881   0.019827   0.006107
     6  Si   0.064987   0.011410  -0.011244  -0.515195  -0.361533  -0.306227
     7  Si   0.010633  -0.138090  -0.015837  -0.002971  -0.071440  -0.004544
     8  Si  -0.159039  -0.495362  -0.083885  -0.015010   0.118561   0.112911
     9  Zr  -0.006782  -0.033348  -0.011544  -0.015278  -0.014258  -0.002962
    10  O   -0.000001  -0.000005  -0.000004  -0.000000  -0.000016   0.000001
    11  O   -0.000070   0.000067   0.000233   0.000008  -0.000090  -0.000018
    12  O   -0.000006   0.000011   0.000020   0.000055   0.000035  -0.000017
    13  O    8.630172   0.007607  -0.079398   0.003303  -0.024417  -0.044424
    14  O    0.007607   8.987116   0.086004   0.006217  -0.060570  -0.027013
    15  O   -0.079398   0.086004   8.613290  -0.000218   0.003543   0.002049
    16  O    0.003303   0.006217  -0.000218   8.943901  -0.122968  -0.074688
    17  O   -0.024417  -0.060570   0.003543  -0.122968   9.003179   0.171897
    18  O   -0.044424  -0.027013   0.002049  -0.074688   0.171897   8.899510
    19  O    0.000368   0.019559   0.000596  -0.001615  -0.013397  -0.000617
    20  O   -0.000025  -0.003512   0.000303  -0.000013   0.001757   0.000045
    21  O   -0.001067   0.044907   0.004913  -0.000058  -0.010630  -0.000080
    22  H   -0.000000  -0.000001   0.000000  -0.000000   0.000001  -0.000000
    23  H   -0.000000  -0.000000   0.000000   0.000000  -0.000000   0.000000
    24  H    0.000003  -0.000025   0.000004   0.000000   0.000002   0.000000
    25  H    0.227560  -0.008533   0.006849   0.000185   0.000325   0.010833
    26  H   -0.007331   0.003550   0.232748   0.000000  -0.000013   0.000009
    27  H   -0.002326   0.187596   0.001617  -0.000175   0.013298   0.001029
    28  H    0.000000   0.000001  -0.000002  -0.000003  -0.000009   0.000000
    29  H    0.000555   0.002184   0.000137  -0.000010  -0.000260   0.000026
    30  H   -0.000002  -0.000412   0.000001  -0.000063   0.000275  -0.000007
    31  H    0.002163  -0.000081  -0.000012  -0.001456   0.001829   0.215230
    32  H   -0.000002  -0.000013   0.000000   0.231418  -0.002916   0.004467
    33  H    0.000647   0.000283  -0.000151   0.000274   0.211842   0.003163
              19         20         21         22         23         24
     1  Si   0.153229   0.222456  -0.012081  -0.000239  -0.001489  -0.010898
     2  O   -0.007437  -0.006411   0.046145  -0.000005   0.000002   0.000454
     3  O    0.513741   0.435352   0.234740   0.004508  -0.000105   0.003212
     4  O    0.018106  -0.004955  -0.006558   0.000185   0.000002   0.000023
     5  O   -0.009635  -0.031659  -0.006830   0.000264  -0.000121   0.000276
     6  Si  -0.007644   0.001034   0.000194  -0.000180   0.000015   0.000026
     7  Si  -0.752728  -0.833623  -0.205805  -0.000809  -0.000289   0.002830
     8  Si  -0.030488   0.005555  -0.041228   0.000030   0.000033  -0.000939
     9  Zr  -0.070617  -0.077345  -0.006096  -0.028281  -0.079880  -0.058698
    10  O   -0.000066  -0.000750  -0.000018  -0.002004   0.342543   0.000480
    11  O    0.000203   0.002888   0.006728   0.000238  -0.000226   0.316839
    12  O   -0.003369  -0.019305   0.001170   0.267876  -0.000173  -0.002221
    13  O    0.000368  -0.000025  -0.001067  -0.000000  -0.000000   0.000003
    14  O    0.019559  -0.003512   0.044907  -0.000001  -0.000000  -0.000025
    15  O    0.000596   0.000303   0.004913   0.000000   0.000000   0.000004
    16  O   -0.001615  -0.000013  -0.000058  -0.000000   0.000000   0.000000
    17  O   -0.013397   0.001757  -0.010630   0.000001  -0.000000   0.000002
    18  O   -0.000617   0.000045  -0.000080  -0.000000   0.000000   0.000000
    19  O    9.042583   0.049159  -0.064672   0.000080  -0.000000   0.000059
    20  O    0.049159   8.748308   0.093280   0.003453  -0.000006  -0.000529
    21  O   -0.064672   0.093280   8.598926  -0.000003  -0.000000  -0.000514
    22  H    0.000080   0.003453  -0.000003   0.357317   0.000010  -0.000005
    23  H   -0.000000  -0.000006  -0.000000   0.000010   0.366462   0.000008
    24  H    0.000059  -0.000529  -0.000514  -0.000005   0.000008   0.361674
    25  H   -0.000032   0.000001  -0.000001  -0.000000   0.000000  -0.000000
    26  H   -0.000000  -0.000001   0.000010  -0.000000  -0.000000  -0.000001
    27  H   -0.001934   0.000063  -0.003214   0.000000   0.000000  -0.000000
    28  H   -0.006065   0.235046  -0.001405  -0.002087   0.000000   0.000036
    29  H   -0.006431   0.004249   0.208509   0.000000  -0.000000   0.000020
    30  H    0.219598  -0.007726  -0.003391   0.000000  -0.000000   0.000000
    31  H    0.000017  -0.000000  -0.000000   0.000000  -0.000000  -0.000000
    32  H    0.000019  -0.000002   0.000000   0.000000  -0.000000   0.000000
    33  H    0.013830   0.000151   0.002615  -0.000000  -0.000000  -0.000000
              25         26         27         28         29         30
     1  Si  -0.000858  -0.008948   0.012598  -0.007152  -0.003964  -0.002281
     2  O   -0.005728  -0.015530  -0.033068  -0.000126  -0.006683  -0.000092
     3  O   -0.000115   0.000398  -0.014706  -0.001485  -0.027035  -0.010119
     4  O    0.002913  -0.000088  -0.004821   0.000327   0.000856  -0.000203
     5  O   -0.000002   0.000156  -0.000178   0.001199  -0.000181   0.000151
     6  Si   0.005052  -0.000106   0.005649  -0.000442  -0.000471   0.000015
     7  Si  -0.000802   0.000706   0.016722   0.023675   0.070986   0.054376
     8  Si   0.042931   0.062613   0.089452  -0.000329   0.022864   0.000202
     9  Zr  -0.000482   0.000022   0.003082   0.003503  -0.001609   0.002257
    10  O   -0.000000   0.000000   0.000000   0.000491  -0.000000  -0.000000
    11  O    0.000000   0.000051  -0.000006  -0.000951  -0.000188   0.000003
    12  O    0.000000   0.000000  -0.000001   0.033104   0.000010   0.000095
    13  O    0.227560  -0.007331  -0.002326   0.000000   0.000555  -0.000002
    14  O   -0.008533   0.003550   0.187596   0.000001   0.002184  -0.000412
    15  O    0.006849   0.232748   0.001617  -0.000002   0.000137   0.000001
    16  O    0.000185   0.000000  -0.000175  -0.000003  -0.000010  -0.000063
    17  O    0.000325  -0.000013   0.013298  -0.000009  -0.000260   0.000275
    18  O    0.010833   0.000009   0.001029   0.000000   0.000026  -0.000007
    19  O   -0.000032  -0.000000  -0.001934  -0.006065  -0.006431   0.219598
    20  O    0.000001  -0.000001   0.000063   0.235046   0.004249  -0.007726
    21  O   -0.000001   0.000010  -0.003214  -0.001405   0.208509  -0.003391
    22  H   -0.000000  -0.000000   0.000000  -0.002087   0.000000   0.000000
    23  H    0.000000  -0.000000   0.000000   0.000000  -0.000000  -0.000000
    24  H   -0.000000  -0.000001  -0.000000   0.000036   0.000020   0.000000
    25  H    0.304347  -0.000012  -0.000114  -0.000000  -0.000001   0.000000
    26  H   -0.000012   0.360596  -0.000053   0.000000   0.000011  -0.000000
    27  H   -0.000114  -0.000053   0.308865  -0.000000  -0.000310   0.000053
    28  H   -0.000000   0.000000  -0.000000   0.278760  -0.000022   0.000063
    29  H   -0.000001   0.000011  -0.000310  -0.000022   0.300255   0.000140
    30  H    0.000000  -0.000000   0.000053   0.000063   0.000140   0.332728
    31  H   -0.000345   0.000000   0.000010   0.000000   0.000000   0.000000
    32  H   -0.000001  -0.000000  -0.000000   0.000000  -0.000000   0.000000
    33  H   -0.000005   0.000000  -0.001480  -0.000003   0.000076  -0.000442
              31         32         33
     1  Si  -0.000898   0.000548  -0.017796
     2  O   -0.002543  -0.000173   0.001399
     3  O    0.000046   0.000403  -0.005474
     4  O   -0.023010   0.001835  -0.012075
     5  O    0.000087   0.000184  -0.000332
     6  Si   0.078815   0.030235   0.052515
     7  Si   0.000460  -0.000511   0.022372
     8  Si  -0.003703   0.000092  -0.003099
     9  Zr   0.000104   0.001084   0.000199
    10  O   -0.000000   0.000000   0.000000
    11  O    0.000000  -0.000000   0.000004
    12  O    0.000000  -0.000002   0.000012
    13  O    0.002163  -0.000002   0.000647
    14  O   -0.000081  -0.000013   0.000283
    15  O   -0.000012   0.000000  -0.000151
    16  O   -0.001456   0.231418   0.000274
    17  O    0.001829  -0.002916   0.211842
    18  O    0.215230   0.004467   0.003163
    19  O    0.000017   0.000019   0.013830
    20  O   -0.000000  -0.000002   0.000151
    21  O   -0.000000   0.000000   0.002615
    22  H    0.000000   0.000000  -0.000000
    23  H   -0.000000  -0.000000  -0.000000
    24  H   -0.000000   0.000000  -0.000000
    25  H   -0.000345  -0.000001  -0.000005
    26  H    0.000000  -0.000000   0.000000
    27  H    0.000010  -0.000000  -0.001480
    28  H    0.000000   0.000000  -0.000003
    29  H    0.000000  -0.000000   0.000076
    30  H    0.000000   0.000000  -0.000442
    31  H    0.335577   0.000014  -0.000047
    32  H    0.000014   0.348146   0.000127
    33  H   -0.000047   0.000127   0.277593
 Mulliken charges:
               1
     1  Si   2.301011
     2  O   -1.350608
     3  O   -1.254363
     4  O   -1.171815
     5  O   -0.820686
     6  Si   2.279811
     7  Si   2.233674
     8  Si   2.249082
     9  Zr   1.418475
    10  O   -0.914279
    11  O   -0.719891
    12  O   -0.844060
    13  O   -0.829105
    14  O   -1.020372
    15  O   -0.852500
    16  O   -0.766764
    17  O   -1.044807
    18  O   -1.044554
    19  O   -1.054400
    20  O   -0.817242
    21  O   -0.878486
    22  H    0.399653
    23  H    0.373214
    24  H    0.387880
    25  H    0.416034
    26  H    0.371212
    27  H    0.422352
    28  H    0.443876
    29  H    0.436286
    30  H    0.414781
    31  H    0.397743
    32  H    0.385044
    33  H    0.453803
 Sum of Mulliken charges =  -0.00000
 Mulliken charges with hydrogens summed into heavy atoms:
               1
     1  Si   2.301011
     2  O   -1.350608
     3  O   -1.254363
     4  O   -1.171815
     5  O   -0.820686
     6  Si   2.279811
     7  Si   2.233674
     8  Si   2.249082
     9  Zr   1.418475
    10  O   -0.541065
    11  O   -0.332011
    12  O   -0.444407
    13  O   -0.413071
    14  O   -0.598020
    15  O   -0.481288
    16  O   -0.381720
    17  O   -0.591004
    18  O   -0.646811
    19  O   -0.639619
    20  O   -0.373365
    21  O   -0.442201
 Electronic spatial extent (au):  <R**2>=           8090.7108
 Charge=              0.0000 electrons
 Dipole moment (field-independent basis, Debye):
    X=             -2.3803    Y=             -3.6989    Z=             -2.6352  Tot=              5.1276
 Quadrupole moment (field-independent basis, Debye-Ang):
   XX=           -156.1810   YY=           -155.9717   ZZ=           -160.8234
   XY=             -3.9598   XZ=              2.2613   YZ=             -7.6289
 Traceless Quadrupole moment (field-independent basis, Debye-Ang):
   XX=              1.4777   YY=              1.6870   ZZ=             -3.1647
   XY=             -3.9598   XZ=              2.2613   YZ=             -7.6289
 Octapole moment (field-independent basis, Debye-Ang**2):
  XXX=           -212.0770  YYY=            -17.2150  ZZZ=            -41.2010  XYY=            -60.5559
  XXY=            -35.4200  XXZ=            -68.6083  XZZ=              9.2495  YZZ=            -27.1799
  YYZ=            -30.0092  XYZ=              8.2301
 Hexadecapole moment (field-independent basis, Debye-Ang**3):
 XXXX=          -5364.0002 YYYY=          -2172.7583 ZZZZ=          -2156.6032 XXXY=             10.4494
 XXXZ=            141.0143 YYYX=             24.3723 YYYZ=            -91.2981 ZZZX=            168.5303
 ZZZY=           -107.4764 XXYY=          -1460.4956 XXZZ=          -1132.8942 YYZZ=           -713.7921
 XXYZ=             12.4382 YYXZ=            -32.2707 ZZXY=            -95.1627
 N-N= 3.030833991501D+03 E-N=-1.177365549261D+04  KE= 2.373131294561D+03
 1\1\GINC-GRA723\FOpt\RB3LYP\Gen\H12O16Si4Zr1\SARASHS\29-Jul-2020\0\\#n
  B3LYP/Gen Pseudo=cards EmpiricalDispersion=GD3 Opt=modredundant\\Titl
 e\\0,1\Si,-0.1387861573,0.1508018795,-0.891514605\O,-1.0066197267,-1.2
 234637558,-1.0152429292\O,0.5716601091,0.2434751313,0.6116918481\O,-1.
 1321952921,1.4461537642,-1.1171268151\O,1.182314036,0.1851546473,-1.82
 97154508\Si,-2.6873629702,1.7438953613,-0.6525432618\Si,0.4588883411,0
 .312542255,2.257748972\Si,-2.1551733711,-2.121802626,-0.2275220155\Zr,
 2.8974849675,-0.0135003953,-0.7842515275\O,4.3242941266,0.0541440483,-
 2.0777379855\O,2.9575145992,-1.7204484015,0.1153921285\O,3.2824077943,
 1.4698089021,0.5089499674\O,-3.5622506274,-2.0034291621,-1.0585458409\
 O,-2.2779529807,-1.573471744,1.3364258402\O,-1.6748812878,-3.680530194
 6,-0.081475712\O,-2.9960480912,3.3348506386,-0.9343285467\O,-2.9079484
 189,1.2233497427,0.8914340489\O,-3.7876457683,0.8447651786,-1.50907245
 31\O,-0.7506217628,1.4559014757,2.5244020819\O,1.8909812531,0.80083423
 75,2.8627536218\O,0.0530732643,-1.1288464178,2.9086701786\H,4.02199981
 97,2.0872830897,0.5327948556\H,5.0358578915,-0.2232876642,-2.657160758
 3\H,2.6525855174,-2.3171717516,0.8041082136\H,-3.7964084612,-1.1080366
 829,-1.3605518647\H,-1.5761020544,-4.1915660198,-0.8916268274\H,-2.794
 348675,-0.7506650238,1.4021761721\H,2.4989194919,1.1627886864,2.183643
 755\H,-0.7797510314,-1.497938986,2.5549696102\H,-0.8278366075,1.780464
 3071,3.4301797165\H,-4.1579124535,1.2635059173,-2.2946924921\H,-2.2329
 826629,3.906835207,-1.0740991753\H,-2.1967328115,1.451164356,1.5326772
 506\\Version=ES64L-G16RevB.01\State=1-A\HF=-2416.9437349\RMSD=4.894e-0
 9\RMSF=1.517e-04\Dipole=0.9241536,1.4536593,-1.0500088\Quadrupole=1.07
 56844,1.2787696,-2.354454,-2.8951595,-1.7145288,5.6861695\PG=C01 [X(H1
 2O16Si4Zr1)]\\@


 YOU CAN WIPE THE SLATE CLEAN, BUT YOU'LL STILL
 HAVE TO EAT A LITTLE CHALK DUST.
 Job cpu time:       1 days  3 hours 26 minutes  7.6 seconds.
 Elapsed time:       0 days  2 hours  4 minutes 24.9 seconds.
 File lengths (MBytes):  RWF=    167 Int=      0 D2E=      0 Chk=     21 Scr=      1
 Normal termination of Gaussian 16 at Wed Jul 29 22:10:41 2020.
