 Entering Gaussian System, Link 0=g16
 Initial command:
 /opt/software/gaussian/g16.b01/l1.exe "/localscratch/sarashs.36567447.0/Gau-20882.inp" -scrdir="/localscratch/sarashs.36567447.0/"
 Entering Link 1 = /opt/software/gaussian/g16.b01/l1.exe PID=     20888.
  
 Copyright (c) 1988-2017, Gaussian, Inc.  All Rights Reserved.
  
 This is part of the Gaussian(R) 16 program.  It is based on
 the Gaussian(R) 09 system (copyright 2009, Gaussian, Inc.),
 the Gaussian(R) 03 system (copyright 2003, Gaussian, Inc.),
 the Gaussian(R) 98 system (copyright 1998, Gaussian, Inc.),
 the Gaussian(R) 94 system (copyright 1995, Gaussian, Inc.),
 the Gaussian 92(TM) system (copyright 1992, Gaussian, Inc.),
 the Gaussian 90(TM) system (copyright 1990, Gaussian, Inc.),
 the Gaussian 88(TM) system (copyright 1988, Gaussian, Inc.),
 the Gaussian 86(TM) system (copyright 1986, Carnegie Mellon
 University), and the Gaussian 82(TM) system (copyright 1983,
 Carnegie Mellon University). Gaussian is a federally registered
 trademark of Gaussian, Inc.
  
 This software contains proprietary and confidential information,
 including trade secrets, belonging to Gaussian, Inc.
  
 This software is provided under written license and may be
 used, copied, transmitted, or stored only in accord with that
 written license.
  
 The following legend is applicable only to US Government
 contracts under FAR:
  
                    RESTRICTED RIGHTS LEGEND
  
 Use, reproduction and disclosure by the US Government is
 subject to restrictions as set forth in subparagraphs (a)
 and (c) of the Commercial Computer Software - Restricted
 Rights clause in FAR 52.227-19.
  
 Gaussian, Inc.
 340 Quinnipiac St., Bldg. 40, Wallingford CT 06492
  
  
 ---------------------------------------------------------------
 Warning -- This program may not be used in any manner that
 competes with the business of Gaussian, Inc. or will provide
 assistance to any competitor of Gaussian, Inc.  The licensee
 of this program is prohibited from giving any competitor of
 Gaussian, Inc. access to this program.  By using this program,
 the user acknowledges that Gaussian, Inc. is engaged in the
 business of creating and licensing software in the field of
 computational chemistry and represents and warrants to the
 licensee that it is not a competitor of Gaussian, Inc. and that
 it will not use this program in any manner prohibited above.
 ---------------------------------------------------------------
  

 Cite this work as:
 Gaussian 16, Revision B.01,
 M. J. Frisch, G. W. Trucks, H. B. Schlegel, G. E. Scuseria, 
 M. A. Robb, J. R. Cheeseman, G. Scalmani, V. Barone, 
 G. A. Petersson, H. Nakatsuji, X. Li, M. Caricato, A. V. Marenich, 
 J. Bloino, B. G. Janesko, R. Gomperts, B. Mennucci, H. P. Hratchian, 
 J. V. Ortiz, A. F. Izmaylov, J. L. Sonnenberg, D. Williams-Young, 
 F. Ding, F. Lipparini, F. Egidi, J. Goings, B. Peng, A. Petrone, 
 T. Henderson, D. Ranasinghe, V. G. Zakrzewski, J. Gao, N. Rega, 
 G. Zheng, W. Liang, M. Hada, M. Ehara, K. Toyota, R. Fukuda, 
 J. Hasegawa, M. Ishida, T. Nakajima, Y. Honda, O. Kitao, H. Nakai, 
 T. Vreven, K. Throssell, J. A. Montgomery, Jr., J. E. Peralta, 
 F. Ogliaro, M. J. Bearpark, J. J. Heyd, E. N. Brothers, K. N. Kudin, 
 V. N. Staroverov, T. A. Keith, R. Kobayashi, J. Normand, 
 K. Raghavachari, A. P. Rendell, J. C. Burant, S. S. Iyengar, 
 J. Tomasi, M. Cossi, J. M. Millam, M. Klene, C. Adamo, R. Cammi, 
 J. W. Ochterski, R. L. Martin, K. Morokuma, O. Farkas, 
 J. B. Foresman, and D. J. Fox, Gaussian, Inc., Wallingford CT, 2016.
 
 ******************************************
 Gaussian 16:  ES64L-G16RevB.01 20-Dec-2017
                29-Jul-2020 
 ******************************************
 %NProcShared=16
 Will use up to   16 processors via shared memory.
 ------------------------------------------------------------------
 #n B3LYP/Gen Pseudo=cards EmpiricalDispersion=GD3 Opt=modredundant
 ------------------------------------------------------------------
 1/18=120,19=15,26=3,38=1/1,3;
 2/9=110,12=2,17=6,18=5,40=1/2;
 3/5=7,11=2,16=1,17=8,25=1,30=1,71=1,74=-5,124=31/1,2,3;
 4//1;
 5/5=2,38=5/2;
 6/7=2,8=2,9=2,10=2,28=1/1;
 7//1,2,3,16;
 1/18=20,19=15,26=3/3(2);
 2/9=110/2;
 99//99;
 2/9=110/2;
 3/5=7,6=1,11=2,16=1,17=8,25=1,30=1,71=1,74=-5,82=7,124=31/1,2,3;
 4/5=5,16=3,69=1/1;
 5/5=2,38=5/2;
 7//1,2,3,16;
 1/18=20,19=15,26=3/3(-5);
 2/9=110/2;
 6/7=2,8=2,9=2,10=2,19=2,28=1/1;
 99/9=1/99;
 -----
 Title
 -----
 Symbolic Z-matrix:
 Charge =  0 Multiplicity = 1
 Si                   -0.13817   0.15907  -0.88672 
 O                    -1.00571  -1.21557  -1.00367 
 O                     0.58179   0.25267   0.61501 
 O                    -1.1339    1.45311  -1.10627 
 O                     1.18134   0.19206  -1.82677 
 Si                   -2.69339   1.74371  -0.65114 
 Si                    0.45246   0.31404   2.26262 
 Si                   -2.1548   -2.1204   -0.22503 
 Zr                    3.0597    0.01235  -1.0962 
 O                     4.22559   0.10538  -2.62743 
 O                     3.31281  -1.70059  -0.24143 
 O                     3.66973   1.49748   0.10781 
 O                    -3.55825  -2.00436  -1.06221 
 O                    -2.28687  -1.57711   1.34004 
 O                    -1.66915  -3.67748  -0.08045 
 O                    -3.00596   3.33412  -0.93077 
 O                    -2.92057   1.21838   0.89035 
 O                    -3.78511   0.84272  -1.51643 
 O                    -0.76335   1.45159   2.52316 
 O                     1.87673   0.80442   2.88257 
 O                     0.04596  -1.13257   2.9006 
 H                     4.40052   2.11462  -0.01073 
 H                     4.82204  -0.15291  -3.332 
 H                     3.14167  -2.3008    0.48942 
 H                    -3.79221  -1.10963  -1.36628 
 H                    -1.5614   -4.18568  -0.89124 
 H                    -2.80623  -0.75615   1.40497 
 H                     2.4905    1.16992   2.20997 
 H                    -0.78842  -1.49858   2.54684 
 H                    -0.84185   1.77955   3.42764 
 H                    -4.15196   1.2615   -2.30365 
 H                    -2.24428   3.9095   -1.06409 
 H                    -2.21087   1.44549   1.53341 
 
 The following ModRedundant input section has been read:
 A       1       5       9 F                                                   
 

 GradGradGradGradGradGradGradGradGradGradGradGradGradGradGradGradGradGrad
 Berny optimization.
 Initialization pass.
                           ----------------------------
                           !    Initial Parameters    !
                           ! (Angstroms and Degrees)  !
 --------------------------                            --------------------------
 ! Name  Definition              Value          Derivative Info.                !
 --------------------------------------------------------------------------------
 ! R1    R(1,2)                  1.6297         estimate D2E/DX2                !
 ! R2    R(1,3)                  1.668          estimate D2E/DX2                !
 ! R3    R(1,4)                  1.6475         estimate D2E/DX2                !
 ! R4    R(1,5)                  1.6205         estimate D2E/DX2                !
 ! R5    R(2,8)                  1.6569         estimate D2E/DX2                !
 ! R6    R(3,7)                  1.6538         estimate D2E/DX2                !
 ! R7    R(4,6)                  1.6503         estimate D2E/DX2                !
 ! R8    R(5,9)                  2.0234         estimate D2E/DX2                !
 ! R9    R(6,16)                 1.6448         estimate D2E/DX2                !
 ! R10   R(6,17)                 1.6443         estimate D2E/DX2                !
 ! R11   R(6,18)                 1.659          estimate D2E/DX2                !
 ! R12   R(7,19)                 1.6853         estimate D2E/DX2                !
 ! R13   R(7,20)                 1.6289         estimate D2E/DX2                !
 ! R14   R(7,21)                 1.6325         estimate D2E/DX2                !
 ! R15   R(8,13)                 1.6383         estimate D2E/DX2                !
 ! R16   R(8,14)                 1.6619         estimate D2E/DX2                !
 ! R17   R(8,15)                 1.6375         estimate D2E/DX2                !
 ! R18   R(9,10)                 1.9268         estimate D2E/DX2                !
 ! R19   R(9,11)                 1.931          estimate D2E/DX2                !
 ! R20   R(9,12)                 2.0068         estimate D2E/DX2                !
 ! R21   R(10,23)                0.9586         estimate D2E/DX2                !
 ! R22   R(11,24)                0.9611         estimate D2E/DX2                !
 ! R23   R(12,22)                0.9638         estimate D2E/DX2                !
 ! R24   R(13,25)                0.9735         estimate D2E/DX2                !
 ! R25   R(14,27)                0.9736         estimate D2E/DX2                !
 ! R26   R(15,26)                0.9629         estimate D2E/DX2                !
 ! R27   R(16,32)                0.9638         estimate D2E/DX2                !
 ! R28   R(17,33)                0.9843         estimate D2E/DX2                !
 ! R29   R(18,31)                0.9642         estimate D2E/DX2                !
 ! R30   R(19,30)                0.9653         estimate D2E/DX2                !
 ! R31   R(20,28)                0.9812         estimate D2E/DX2                !
 ! R32   R(21,29)                0.9774         estimate D2E/DX2                !
 ! A1    A(2,1,3)              109.9808         estimate D2E/DX2                !
 ! A2    A(2,1,4)              109.3435         estimate D2E/DX2                !
 ! A3    A(2,1,5)              114.1426         estimate D2E/DX2                !
 ! A4    A(3,1,4)              109.6804         estimate D2E/DX2                !
 ! A5    A(3,1,5)               99.7688         estimate D2E/DX2                !
 ! A6    A(4,1,5)              113.5061         estimate D2E/DX2                !
 ! A7    A(1,2,8)              142.7567         estimate D2E/DX2                !
 ! A8    A(1,3,7)              149.9119         estimate D2E/DX2                !
 ! A9    A(1,4,6)              132.2743         estimate D2E/DX2                !
 ! A10   A(1,5,9)              123.0001         Frozen                          !
 ! A11   A(4,6,16)             107.6353         estimate D2E/DX2                !
 ! A12   A(4,6,17)             109.4409         estimate D2E/DX2                !
 ! A13   A(4,6,18)             112.4799         estimate D2E/DX2                !
 ! A14   A(16,6,17)            116.2345         estimate D2E/DX2                !
 ! A15   A(16,6,18)            108.144          estimate D2E/DX2                !
 ! A16   A(17,6,18)            102.9751         estimate D2E/DX2                !
 ! A17   A(3,7,19)             103.6202         estimate D2E/DX2                !
 ! A18   A(3,7,20)             108.7814         estimate D2E/DX2                !
 ! A19   A(3,7,21)             112.0818         estimate D2E/DX2                !
 ! A20   A(19,7,20)            111.639          estimate D2E/DX2                !
 ! A21   A(19,7,21)            110.9828         estimate D2E/DX2                !
 ! A22   A(20,7,21)            109.6189         estimate D2E/DX2                !
 ! A23   A(2,8,13)             108.3776         estimate D2E/DX2                !
 ! A24   A(2,8,14)             108.6105         estimate D2E/DX2                !
 ! A25   A(2,8,15)             110.799          estimate D2E/DX2                !
 ! A26   A(13,8,14)            112.954          estimate D2E/DX2                !
 ! A27   A(13,8,15)            111.5028         estimate D2E/DX2                !
 ! A28   A(14,8,15)            104.553          estimate D2E/DX2                !
 ! A29   A(5,9,10)             105.6933         estimate D2E/DX2                !
 ! A30   A(5,9,11)             111.1176         estimate D2E/DX2                !
 ! A31   A(5,9,12)             115.6628         estimate D2E/DX2                !
 ! A32   A(10,9,11)            108.3783         estimate D2E/DX2                !
 ! A33   A(10,9,12)            104.8992         estimate D2E/DX2                !
 ! A34   A(11,9,12)            110.5512         estimate D2E/DX2                !
 ! A35   A(9,10,23)            161.369          estimate D2E/DX2                !
 ! A36   A(9,11,24)            150.1409         estimate D2E/DX2                !
 ! A37   A(9,12,22)            129.0897         estimate D2E/DX2                !
 ! A38   A(8,13,25)            115.5044         estimate D2E/DX2                !
 ! A39   A(8,14,27)            112.3856         estimate D2E/DX2                !
 ! A40   A(8,15,26)            117.432          estimate D2E/DX2                !
 ! A41   A(6,16,32)            116.7803         estimate D2E/DX2                !
 ! A42   A(6,17,33)            116.0494         estimate D2E/DX2                !
 ! A43   A(6,18,31)            116.1247         estimate D2E/DX2                !
 ! A44   A(7,19,30)            115.6491         estimate D2E/DX2                !
 ! A45   A(7,20,28)            113.4661         estimate D2E/DX2                !
 ! A46   A(7,21,29)            113.7637         estimate D2E/DX2                !
 ! D1    D(3,1,2,8)             50.0624         estimate D2E/DX2                !
 ! D2    D(4,1,2,8)            -70.4297         estimate D2E/DX2                !
 ! D3    D(5,1,2,8)            161.2125         estimate D2E/DX2                !
 ! D4    D(2,1,3,7)            -60.1512         estimate D2E/DX2                !
 ! D5    D(4,1,3,7)             60.1373         estimate D2E/DX2                !
 ! D6    D(5,1,3,7)            179.5701         estimate D2E/DX2                !
 ! D7    D(2,1,4,6)             37.0076         estimate D2E/DX2                !
 ! D8    D(3,1,4,6)            -83.6678         estimate D2E/DX2                !
 ! D9    D(5,1,4,6)            165.7183         estimate D2E/DX2                !
 ! D10   D(2,1,5,9)           -106.8937         estimate D2E/DX2                !
 ! D11   D(3,1,5,9)             10.3088         estimate D2E/DX2                !
 ! D12   D(4,1,5,9)            126.8945         estimate D2E/DX2                !
 ! D13   D(1,2,8,13)           108.4711         estimate D2E/DX2                !
 ! D14   D(1,2,8,14)           -14.5876         estimate D2E/DX2                !
 ! D15   D(1,2,8,15)          -128.8886         estimate D2E/DX2                !
 ! D16   D(1,3,7,19)           -46.0619         estimate D2E/DX2                !
 ! D17   D(1,3,7,20)          -164.9541         estimate D2E/DX2                !
 ! D18   D(1,3,7,21)            73.6681         estimate D2E/DX2                !
 ! D19   D(1,4,6,16)           169.4411         estimate D2E/DX2                !
 ! D20   D(1,4,6,17)            42.2775         estimate D2E/DX2                !
 ! D21   D(1,4,6,18)           -71.5346         estimate D2E/DX2                !
 ! D22   D(1,5,9,10)           179.6049         estimate D2E/DX2                !
 ! D23   D(1,5,9,11)            62.2444         estimate D2E/DX2                !
 ! D24   D(1,5,9,12)           -64.8453         estimate D2E/DX2                !
 ! D25   D(4,6,16,32)          -16.3726         estimate D2E/DX2                !
 ! D26   D(17,6,16,32)         106.7215         estimate D2E/DX2                !
 ! D27   D(18,6,16,32)        -138.134          estimate D2E/DX2                !
 ! D28   D(4,6,17,33)           44.2632         estimate D2E/DX2                !
 ! D29   D(16,6,17,33)         -77.8848         estimate D2E/DX2                !
 ! D30   D(18,6,17,33)         164.0932         estimate D2E/DX2                !
 ! D31   D(4,6,18,31)          -92.9354         estimate D2E/DX2                !
 ! D32   D(16,6,18,31)          25.7911         estimate D2E/DX2                !
 ! D33   D(17,6,18,31)         149.3552         estimate D2E/DX2                !
 ! D34   D(3,7,19,30)         -166.1155         estimate D2E/DX2                !
 ! D35   D(20,7,19,30)         -49.2104         estimate D2E/DX2                !
 ! D36   D(21,7,19,30)          73.4066         estimate D2E/DX2                !
 ! D37   D(3,7,20,28)           12.9879         estimate D2E/DX2                !
 ! D38   D(19,7,20,28)        -100.7463         estimate D2E/DX2                !
 ! D39   D(21,7,20,28)         135.8599         estimate D2E/DX2                !
 ! D40   D(3,7,21,29)          -57.2164         estimate D2E/DX2                !
 ! D41   D(19,7,21,29)          58.1093         estimate D2E/DX2                !
 ! D42   D(20,7,21,29)        -178.1114         estimate D2E/DX2                !
 ! D43   D(2,8,13,25)          -43.843          estimate D2E/DX2                !
 ! D44   D(14,8,13,25)          76.5485         estimate D2E/DX2                !
 ! D45   D(15,8,13,25)        -166.0547         estimate D2E/DX2                !
 ! D46   D(2,8,14,27)           78.098          estimate D2E/DX2                !
 ! D47   D(13,8,14,27)         -42.1603         estimate D2E/DX2                !
 ! D48   D(15,8,14,27)        -163.5737         estimate D2E/DX2                !
 ! D49   D(2,8,15,26)          -65.1514         estimate D2E/DX2                !
 ! D50   D(13,8,15,26)          55.6545         estimate D2E/DX2                !
 ! D51   D(14,8,15,26)         178.0211         estimate D2E/DX2                !
 ! D52   D(5,9,10,23)         -105.0471         estimate D2E/DX2                !
 ! D53   D(11,9,10,23)          14.1419         estimate D2E/DX2                !
 ! D54   D(12,9,10,23)         132.2525         estimate D2E/DX2                !
 ! D55   D(5,9,11,24)          -71.4525         estimate D2E/DX2                !
 ! D56   D(10,9,11,24)         172.8347         estimate D2E/DX2                !
 ! D57   D(12,9,11,24)          58.3841         estimate D2E/DX2                !
 ! D58   D(5,9,12,22)         -118.0994         estimate D2E/DX2                !
 ! D59   D(10,9,12,22)          -2.0998         estimate D2E/DX2                !
 ! D60   D(11,9,12,22)         114.5272         estimate D2E/DX2                !
 --------------------------------------------------------------------------------
 Trust Radius=3.00D-01 FncErr=1.00D-07 GrdErr=1.00D-06 EigMax=2.50D+02 EigMin=1.00D-04
 Number of steps in this run=    148 maximum allowed number of steps=    198.
 GradGradGradGradGradGradGradGradGradGradGradGradGradGradGradGradGradGrad

                          Input orientation:                          
 ---------------------------------------------------------------------
 Center     Atomic      Atomic             Coordinates (Angstroms)
 Number     Number       Type             X           Y           Z
 ---------------------------------------------------------------------
      1         14           0       -0.138170    0.159070   -0.886720
      2          8           0       -1.005710   -1.215570   -1.003670
      3          8           0        0.581790    0.252670    0.615010
      4          8           0       -1.133900    1.453110   -1.106270
      5          8           0        1.181340    0.192060   -1.826770
      6         14           0       -2.693390    1.743710   -0.651140
      7         14           0        0.452460    0.314040    2.262620
      8         14           0       -2.154800   -2.120400   -0.225030
      9         40           0        3.059700    0.012350   -1.096200
     10          8           0        4.225590    0.105380   -2.627430
     11          8           0        3.312810   -1.700590   -0.241430
     12          8           0        3.669730    1.497480    0.107810
     13          8           0       -3.558250   -2.004360   -1.062210
     14          8           0       -2.286870   -1.577110    1.340040
     15          8           0       -1.669150   -3.677480   -0.080450
     16          8           0       -3.005960    3.334120   -0.930770
     17          8           0       -2.920570    1.218380    0.890350
     18          8           0       -3.785110    0.842720   -1.516430
     19          8           0       -0.763350    1.451590    2.523160
     20          8           0        1.876730    0.804420    2.882570
     21          8           0        0.045960   -1.132570    2.900600
     22          1           0        4.400520    2.114620   -0.010730
     23          1           0        4.822040   -0.152910   -3.332000
     24          1           0        3.141670   -2.300800    0.489420
     25          1           0       -3.792210   -1.109630   -1.366280
     26          1           0       -1.561400   -4.185680   -0.891240
     27          1           0       -2.806230   -0.756150    1.404970
     28          1           0        2.490500    1.169920    2.209970
     29          1           0       -0.788420   -1.498580    2.546840
     30          1           0       -0.841850    1.779550    3.427640
     31          1           0       -4.151960    1.261500   -2.303650
     32          1           0       -2.244280    3.909500   -1.064090
     33          1           0       -2.210870    1.445490    1.533410
 ---------------------------------------------------------------------
                    Distance matrix (angstroms):
                    1          2          3          4          5
     1  Si   0.000000
     2  O    1.629705   0.000000
     3  O    1.668022   2.701113   0.000000
     4  O    1.647489   2.673726   2.710619   0.000000
     5  O    1.620459   2.728022   2.515039   2.733076   0.000000
     6  Si   3.015913   3.424891   3.814858   1.650334   4.336272
     7  Si   3.207990   3.890323   1.653817   3.894026   4.155629
     8  Si   3.114581   1.656926   3.718340   3.819528   4.363814
     9  Zr   3.208081   4.247812   3.020932   4.434205   2.023429
    10  O    4.698442   5.634537   4.879794   5.731879   3.148973
    11  O    3.972908   4.412014   3.465138   5.519692   3.261685
    12  O    4.156986   5.518674   3.367815   4.954878   3.411569
    13  O    4.050700   2.672279   5.004716   4.222974   5.279444
    14  O    3.548196   2.695377   3.478933   4.061528   5.018678
    15  O    4.208692   2.711732   4.582191   5.259444   5.113538
    16  O    4.278680   4.970512   4.975613   2.659625   5.311199
    17  O    3.467256   3.630167   3.643478   2.689569   5.026106
    18  O    3.763520   3.496362   4.894999   2.751313   5.018495
    19  O    3.699830   4.428432   2.624471   3.648297   4.928501
    20  O    4.322481   5.243251   2.668919   5.039398   4.799629
    21  O    4.005750   4.044283   2.725789   4.912516   5.039024
    22  H    5.019088   6.426774   4.294311   5.680458   4.166216
    23  H    5.538990   6.364985   5.807160   6.557926   3.954670
    24  H    4.324589   4.539582   3.617868   5.909193   3.927083
    25  H    3.897638   2.811991   4.991317   3.701601   5.161652
    26  H    4.571920   3.023737   5.153737   5.659059   5.249995
    27  H    3.634283   3.042119   3.622214   3.739498   5.219575
    28  H    4.185835   5.314276   2.651117   4.920764   4.354926
    29  H    3.867811   3.568393   2.945559   4.709251   5.085930
    30  H    4.662062   5.351084   3.502713   4.555019   5.849978
    31  H    4.396994   4.210073   5.651965   3.252556   5.460330
    32  H    4.304984   5.272954   4.917159   2.696029   5.112330
    33  H    3.436276   3.869163   3.172574   2.850935   4.936495
                    6          7          8          9         10
     6  Si   0.000000
     7  Si   4.519992   0.000000
     8  Si   3.924665   4.348874   0.000000
     9  Zr   6.024428   4.262674   5.700752   0.000000
    10  O    7.379846   6.180019   7.171820   1.926816   0.000000
    11  O    6.935813   4.302395   5.483728   1.931026   3.128529
    12  O    6.412950   4.049020   6.864764   2.006835   3.119048
    13  O    3.868461   5.702216   1.638294   6.918492   8.215174
    14  O    3.893315   3.454205   1.661942   6.086662   7.809208
    15  O    5.546535   5.091506   1.637455   6.083471   7.452858
    16  O    1.644779   5.592789   5.565459   6.917641   8.099304
    17  O    1.644316   3.752104   3.602489   6.415958   8.042459
    18  O    1.659025   5.702431   3.620180   6.907788   8.120918
    19  O    3.726469   1.685258   4.716757   5.457737   7.295915
    20  O    5.852809   1.628912   5.870689   4.225802   6.030415
    21  O    5.328403   1.632465   3.948255   5.134966   7.039953
    22  H    7.132409   4.898713   7.807275   2.719482   3.303750
    23  H    8.201577   7.114144   7.886734   2.851658   0.958585
    24  H    7.190748   4.148913   5.347483   2.805632   4.084035
    25  H    3.140124   5.763070   2.237235   6.948414   8.206818
    26  H    6.041251   5.852345   2.249742   6.246601   7.410587
    27  H    3.238768   3.535524   2.223160   6.423051   8.151624
    28  H    5.948773   2.211088   6.191465   3.548904   5.248259
    29  H    4.936439   2.214984   3.152288   5.510234   7.381467
    30  H    4.479501   2.276012   5.502313   6.229785   8.071287
    31  H    2.256267   6.553563   4.443710   7.417975   8.463143
    32  H    2.250083   5.591667   6.088655   6.581870   7.666458
    33  H    2.256993   2.984167   3.976283   6.061984   7.780521
                   11         12         13         14         15
    11  O    0.000000
    12  O    3.236821   0.000000
    13  O    6.926574   8.116374   0.000000
    14  O    5.820027   6.815613   2.751319   0.000000
    15  O    5.362269   7.437694   2.707745   2.609775   0.000000
    16  O    8.108659   7.001195   5.368582   5.458374   7.188368
    17  O    6.975410   6.642463   3.821672   2.901476   5.145673
    18  O    7.646863   7.657774   2.891997   4.032334   5.193412
    19  O    5.847587   5.048586   5.710511   3.590809   5.822939
    20  O    4.254031   3.375570   7.279392   5.038517   6.437405
    21  O    4.568075   5.277172   5.427173   2.841665   4.278414
    22  H    3.973935   0.963830   9.022950   7.757231   8.390124
    23  H    3.771566   3.985461   8.877448   8.625132   8.070361
    24  H    0.961084   3.853752   6.883630   5.542231   5.036267
    25  H    7.217744   8.040554   0.973518   3.131893   3.571358
    26  H    5.509614   7.788526   2.962228   3.508497   0.962942
    27  H    6.406657   6.978505   2.865404   0.973615   3.468947
    28  H    3.863338   2.432479   7.574338   5.579087   6.785720
    29  H    4.963401   5.899182   4.577446   1.925587   3.525045
    30  H    6.544818   5.608493   6.469587   4.208720   6.539900
    31  H    8.291533   8.188386   3.543939   4.981239   5.958229
    32  H    7.939215   6.493589   6.058074   5.990371   7.672065
    33  H    6.599918   6.051156   4.522625   3.029732   5.398410
                   16         17         18         19         20
    16  O    0.000000
    17  O    2.792870   0.000000
    18  O    2.675284   2.584790   0.000000
    19  O    4.528007   2.715521   5.081343   0.000000
    20  O    6.691906   5.210987   7.170014   2.741902   0.000000
    21  O    6.629097   4.285834   6.171630   2.734104   2.665328
    22  H    7.562381   7.430582   8.419584   5.790143   4.056763
    23  H    8.899599   8.925059   8.852717   8.249479   6.943501
    24  H    8.459469   7.021120   7.866730   5.784956   4.119421
    25  H    4.533737   3.357345   1.958128   5.555320   7.338474
    26  H    7.657396   5.850237   5.533584   6.638812   7.138871
    27  H    4.714433   2.043692   3.471191   3.209022   5.152552
    28  H    6.690223   5.569867   7.305915   3.281001   0.981170
    29  H    6.353443   3.830391   5.565249   2.950372   3.538297
    30  H    5.108405   3.327736   5.829602   0.965300   2.939159
    31  H    2.737493   3.423422   0.964194   5.900585   7.965608
    32  H    0.963843   3.394014   3.461778   4.593783   6.496181
    33  H    3.204883   0.984266   3.484693   1.753555   4.351974
                   21         22         23         24         25
    21  O    0.000000
    22  H    6.162976   0.000000
    23  H    7.913026   4.043539   0.000000
    24  H    4.094139   4.618527   4.694713   0.000000
    25  H    5.739193   8.908093   8.887332   7.276070   0.000000
    26  H    5.126708   8.718576   7.935291   5.251463   3.829394
    27  H    3.242466   7.885605   8.999627   6.213026   2.962589
    28  H    3.428441   3.077685   6.156248   3.928131   7.580129
    29  H    0.977394   6.820665   8.237041   4.508009   4.948388
    30  H    3.089728   6.278304   9.028111   6.414891   6.327215
    31  H    7.101994   8.895516   9.142797   8.584187   2.574945
    32  H    6.810759   6.963083   8.460465   8.365983   5.261090
    33  H    3.689022   6.822212   8.699938   6.616214   4.175820
                   26         27         28         29         30
    26  H    0.000000
    27  H    4.310900   0.000000
    28  H    7.397151   5.693252   0.000000
    29  H    4.431523   2.434466   4.240954   0.000000
    30  H    7.399625   3.792065   3.599851   3.394820   0.000000
    31  H    6.194972   4.431226   8.031403   6.516034   6.638742
    32  H    8.125770   5.308515   6.375179   6.663758   5.165185
    33  H    6.165291   2.284331   4.757789   3.423150   2.360915
                   31         32         33
    31  H    0.000000
    32  H    3.491082   0.000000
    33  H    4.304034   3.580428   0.000000
 Stoichiometry    H12O16Si4Zr
 Framework group  C1[X(H12O16Si4Zr)]
 Deg. of freedom    93
 Full point group                 C1      NOp   1
 Largest Abelian subgroup         C1      NOp   1
 Largest concise Abelian subgroup C1      NOp   1
                         Standard orientation:                         
 ---------------------------------------------------------------------
 Center     Atomic      Atomic             Coordinates (Angstroms)
 Number     Number       Type             X           Y           Z
 ---------------------------------------------------------------------
      1         14           0        0.119160   -0.245031   -0.762094
      2          8           0        0.981145    1.088945   -1.127373
      3          8           0       -0.453579   -0.143198    0.801202
      4          8           0        1.079937   -1.574541   -0.915491
      5          8           0       -1.284895   -0.366498   -1.561948
      6         14           0        2.673889   -1.837264   -0.578009
      7         14           0       -0.166725   -0.007686    2.424305
      8         14           0        2.206224    2.059438   -0.577164
      9         40           0       -3.082905   -0.064761   -0.684236
     10          8           0       -4.391377   -0.320045   -2.075405
     11          8           0       -3.240424    1.743259   -0.024606
     12          8           0       -3.584748   -1.382031    0.744169
     13          8           0        3.521732    1.816928   -1.523015
     14          8           0        2.484445    1.706625    1.022888
     15          8           0        1.747797    3.631412   -0.578196
     16          8           0        2.946811   -3.455373   -0.689960
     17          8           0        3.052085   -1.134085    0.859448
     18          8           0        3.683630   -1.067908   -1.646128
     19          8           0        1.060418   -1.128062    2.705330
     20          8           0       -1.528163   -0.392883    3.231440
     21          8           0        0.309535    1.497472    2.839776
     22          1           0       -4.327912   -1.995162    0.771474
     23          1           0       -5.051018   -0.137543   -2.746562
     24          1           0       -2.995491    2.423973    0.608102
     25          1           0        3.718992    0.887814   -1.736495
     26          1           0        1.566125    4.039974   -1.431032
     27          1           0        3.001808    0.889914    1.137974
     28          1           0       -2.206390   -0.825319    2.669566
     29          1           0        1.108571    1.802410    2.366645
     30          1           0        1.223271   -1.345878    3.631526
     31          1           0        3.970037   -1.585436   -2.407578
     32          1           0        2.171774   -4.028261   -0.679425
     33          1           0        2.405974   -1.268585    1.589674
 ---------------------------------------------------------------------
 Rotational constants (GHZ):           0.2530909           0.1282035           0.1273891
 General basis read from cards:  (5D, 7F)
 ======================================================================================================
                                       Pseudopotential Parameters
 ======================================================================================================
  Center     Atomic      Valence      Angular      Power
  Number     Number     Electrons     Momentum     of R      Exponent        Coefficient   SO-Coeffient
 ======================================================================================================
    1         14
                                   No pseudopotential on this center.
    2          8
                                   No pseudopotential on this center.
    3          8
                                   No pseudopotential on this center.
    4          8
                                   No pseudopotential on this center.
    5          8
                                   No pseudopotential on this center.
    6         14
                                   No pseudopotential on this center.
    7         14
                                   No pseudopotential on this center.
    8         14
                                   No pseudopotential on this center.
    9         40           12
                                      G and up 
                                                     2        1.0000000        0.00000000    0.00000000
                                      S - G
                                                     2        8.6365280      150.24299400    0.00000000
                                                     2        3.7176390       18.78003600    0.00000000
                                      P - G
                                                     2        7.6267280       33.19279100    0.00000000
                                                     2        7.4532070       66.38903900    0.00000000
                                                     2        3.3583890        4.62072600    0.00000000
                                                     2        3.2297380        9.26027000    0.00000000
                                      D - G
                                                     2        5.9380860       13.99338300    0.00000000
                                                     2        5.8255440       20.99588200    0.00000000
                                                     2        2.2050190        2.28516600    0.00000000
                                                     2        2.2062920        3.44126000    0.00000000
                                      F - G
                                                     2        4.8002150       -5.23932000    0.00000000
                                                     2        4.7989920       -6.98742400    0.00000000
   10          8
                                   No pseudopotential on this center.
   11          8
                                   No pseudopotential on this center.
   12          8
                                   No pseudopotential on this center.
   13          8
                                   No pseudopotential on this center.
   14          8
                                   No pseudopotential on this center.
   15          8
                                   No pseudopotential on this center.
   16          8
                                   No pseudopotential on this center.
   17          8
                                   No pseudopotential on this center.
   18          8
                                   No pseudopotential on this center.
   19          8
                                   No pseudopotential on this center.
   20          8
                                   No pseudopotential on this center.
   21          8
                                   No pseudopotential on this center.
   22          1
                                   No pseudopotential on this center.
   23          1
                                   No pseudopotential on this center.
   24          1
                                   No pseudopotential on this center.
   25          1
                                   No pseudopotential on this center.
   26          1
                                   No pseudopotential on this center.
   27          1
                                   No pseudopotential on this center.
   28          1
                                   No pseudopotential on this center.
   29          1
                                   No pseudopotential on this center.
   30          1
                                   No pseudopotential on this center.
   31          1
                                   No pseudopotential on this center.
   32          1
                                   No pseudopotential on this center.
   33          1
                                   No pseudopotential on this center.
 ======================================================================================================
 There are   570 symmetry adapted cartesian basis functions of A   symmetry.
 There are   524 symmetry adapted basis functions of A   symmetry.
   524 basis functions,  1074 primitive gaussians,   570 cartesian basis functions
   104 alpha electrons      104 beta electrons
       nuclear repulsion energy      2993.1645882492 Hartrees.
 NAtoms=   33 NActive=   33 NUniq=   33 SFac= 1.00D+00 NAtFMM=   60 NAOKFM=F Big=F
 Integral buffers will be    131072 words long.
 Raffenetti 2 integral format.
 Two-electron integral symmetry is turned on.
 Nuclear repulsion after empirical dispersion term =     2993.1194501144 Hartrees.
 One-electron integrals computed using PRISM.
 PrsmSu:  requested number of processors reduced to:   4 ShMem   1 Linda.
   1 Symmetry operations used in ECPInt.
 ECPInt:  NShTT=   13203 NPrTT=   78401 LenC2=   11832 LenP2D=   44518.
 LDataN:  DoStor=T MaxTD1= 8 Len=  415
 Number of processors reduced to  13 by ecpmxn.
 NBasis=   524 RedAO= T EigKep=  2.49D-05  NBF=   524
 NBsUse=   524 1.00D-06 EigRej= -1.00D+00 NBFU=   524
 Defaulting to unpruned grid for atomic number  40.
 ExpMin= 1.01D-02 ExpMax= 1.61D+04 ExpMxC= 2.43D+03 IAcc=3 IRadAn=         5 AccDes= 0.00D+00
 Harris functional with IExCor=  402 and IRadAn=       5 diagonalized for initial guess.
 HarFok:  IExCor=  402 AccDes= 0.00D+00 IRadAn=         5 IDoV= 1 UseB2=F ITyADJ=14
 ICtDFT=  3500011 ScaDFX=  1.000000  1.000000  1.000000  1.000000
 Defaulting to unpruned grid for atomic number  40.
 FoFCou: FMM=F IPFlag=           0 FMFlag=      100000 FMFlg1=           0
         NFxFlg=           0 DoJE=T BraDBF=F KetDBF=T FulRan=T
         wScrn=  0.000000 ICntrl=       500 IOpCl=  0 I1Cent=   200000004 NGrid=           0
         NMat0=    1 NMatS0=      1 NMatT0=    0 NMatD0=    1 NMtDS0=    0 NMtDT0=    0
 Petite list used in FoFCou.
 Requested convergence on RMS density matrix=1.00D-08 within 128 cycles.
 Requested convergence on MAX density matrix=1.00D-06.
 Requested convergence on             energy=1.00D-06.
 No special actions if energy rises.
 Defaulting to unpruned grid for atomic number  40.
 Defaulting to unpruned grid for atomic number  40.
 Defaulting to unpruned grid for atomic number  40.
 Defaulting to unpruned grid for atomic number  40.
 Defaulting to unpruned grid for atomic number  40.
 Defaulting to unpruned grid for atomic number  40.
 Defaulting to unpruned grid for atomic number  40.
 Defaulting to unpruned grid for atomic number  40.
 Defaulting to unpruned grid for atomic number  40.
 Defaulting to unpruned grid for atomic number  40.
 Defaulting to unpruned grid for atomic number  40.
 Defaulting to unpruned grid for atomic number  40.
 Defaulting to unpruned grid for atomic number  40.
 Defaulting to unpruned grid for atomic number  40.
 Defaulting to unpruned grid for atomic number  40.
 Defaulting to unpruned grid for atomic number  40.
 SCF Done:  E(RB3LYP) =  -2416.93754072     A.U. after   14 cycles
            NFock= 14  Conv=0.33D-08     -V/T= 2.0185

 **********************************************************************

            Population analysis using the SCF Density.

 **********************************************************************

 Orbital symmetries:
       Occupied  (A) (A) (A) (A) (A) (A) (A) (A) (A) (A) (A) (A)
                 (A) (A) (A) (A) (A) (A) (A) (A) (A) (A) (A) (A)
                 (A) (A) (A) (A) (A) (A) (A) (A) (A) (A) (A) (A)
                 (A) (A) (A) (A) (A) (A) (A) (A) (A) (A) (A) (A)
                 (A) (A) (A) (A) (A) (A) (A) (A) (A) (A) (A) (A)
                 (A) (A) (A) (A) (A) (A) (A) (A) (A) (A) (A) (A)
                 (A) (A) (A) (A) (A) (A) (A) (A) (A) (A) (A) (A)
                 (A) (A) (A) (A) (A) (A) (A) (A) (A) (A) (A) (A)
                 (A) (A) (A) (A) (A) (A) (A) (A)
       Virtual   (A) (A) (A) (A) (A) (A) (A) (A) (A) (A) (A) (A)
                 (A) (A) (A) (A) (A) (A) (A) (A) (A) (A) (A) (A)
                 (A) (A) (A) (A) (A) (A) (A) (A) (A) (A) (A) (A)
                 (A) (A) (A) (A) (A) (A) (A) (A) (A) (A) (A) (A)
                 (A) (A) (A) (A) (A) (A) (A) (A) (A) (A) (A) (A)
                 (A) (A) (A) (A) (A) (A) (A) (A) (A) (A) (A) (A)
                 (A) (A) (A) (A) (A) (A) (A) (A) (A) (A) (A) (A)
                 (A) (A) (A) (A) (A) (A) (A) (A) (A) (A) (A) (A)
                 (A) (A) (A) (A) (A) (A) (A) (A) (A) (A) (A) (A)
                 (A) (A) (A) (A) (A) (A) (A) (A) (A) (A) (A) (A)
                 (A) (A) (A) (A) (A) (A) (A) (A) (A) (A) (A) (A)
                 (A) (A) (A) (A) (A) (A) (A) (A) (A) (A) (A) (A)
                 (A) (A) (A) (A) (A) (A) (A) (A) (A) (A) (A) (A)
                 (A) (A) (A) (A) (A) (A) (A) (A) (A) (A) (A) (A)
                 (A) (A) (A) (A) (A) (A) (A) (A) (A) (A) (A) (A)
                 (A) (A) (A) (A) (A) (A) (A) (A) (A) (A) (A) (A)
                 (A) (A) (A) (A) (A) (A) (A) (A) (A) (A) (A) (A)
                 (A) (A) (A) (A) (A) (A) (A) (A) (A) (A) (A) (A)
                 (A) (A) (A) (A) (A) (A) (A) (A) (A) (A) (A) (A)
                 (A) (A) (A) (A) (A) (A) (A) (A) (A) (A) (A) (A)
                 (A) (A) (A) (A) (A) (A) (A) (A) (A) (A) (A) (A)
                 (A) (A) (A) (A) (A) (A) (A) (A) (A) (A) (A) (A)
                 (A) (A) (A) (A) (A) (A) (A) (A) (A) (A) (A) (A)
                 (A) (A) (A) (A) (A) (A) (A) (A) (A) (A) (A) (A)
                 (A) (A) (A) (A) (A) (A) (A) (A) (A) (A) (A) (A)
                 (A) (A) (A) (A) (A) (A) (A) (A) (A) (A) (A) (A)
                 (A) (A) (A) (A) (A) (A) (A) (A) (A) (A) (A) (A)
                 (A) (A) (A) (A) (A) (A) (A) (A) (A) (A) (A) (A)
                 (A) (A) (A) (A) (A) (A) (A) (A) (A) (A) (A) (A)
                 (A) (A) (A) (A) (A) (A) (A) (A) (A) (A) (A) (A)
                 (A) (A) (A) (A) (A) (A) (A) (A) (A) (A) (A) (A)
                 (A) (A) (A) (A) (A) (A) (A) (A) (A) (A) (A) (A)
                 (A) (A) (A) (A) (A) (A) (A) (A) (A) (A) (A) (A)
                 (A) (A) (A) (A) (A) (A) (A) (A) (A) (A) (A) (A)
                 (A) (A) (A) (A) (A) (A) (A) (A) (A) (A) (A) (A)
 The electronic state is 1-A.
 Alpha  occ. eigenvalues --  -66.23408 -66.22880 -66.22314 -66.21668 -19.18822
 Alpha  occ. eigenvalues --  -19.18803 -19.18008 -19.17077 -19.17020 -19.16578
 Alpha  occ. eigenvalues --  -19.16514 -19.16444 -19.16259 -19.15874 -19.15851
 Alpha  occ. eigenvalues --  -19.15308 -19.15268 -19.15086 -19.14960 -19.14113
 Alpha  occ. eigenvalues --   -5.37471  -5.36736  -5.36367  -5.35718  -3.73465
 Alpha  occ. eigenvalues --   -3.73435  -3.73364  -3.72777  -3.72723  -3.72613
 Alpha  occ. eigenvalues --   -3.72414  -3.72334  -3.72206  -3.71717  -3.71659
 Alpha  occ. eigenvalues --   -3.71631  -2.12554  -1.28933  -1.28565  -1.28108
 Alpha  occ. eigenvalues --   -1.06508  -1.05322  -1.04367  -1.03088  -1.02706
 Alpha  occ. eigenvalues --   -1.02357  -1.01602  -1.01025  -1.00288  -0.99959
 Alpha  occ. eigenvalues --   -0.99675  -0.99158  -0.97609  -0.96719  -0.96270
 Alpha  occ. eigenvalues --   -0.95107  -0.62523  -0.60925  -0.59951  -0.56972
 Alpha  occ. eigenvalues --   -0.55801  -0.55361  -0.53404  -0.52827  -0.52330
 Alpha  occ. eigenvalues --   -0.52142  -0.51163  -0.50387  -0.50260  -0.50226
 Alpha  occ. eigenvalues --   -0.49045  -0.45737  -0.43990  -0.43621  -0.42861
 Alpha  occ. eigenvalues --   -0.42350  -0.42082  -0.41265  -0.40690  -0.39955
 Alpha  occ. eigenvalues --   -0.38973  -0.38703  -0.38276  -0.37591  -0.37281
 Alpha  occ. eigenvalues --   -0.37019  -0.36828  -0.36568  -0.36160  -0.35789
 Alpha  occ. eigenvalues --   -0.35697  -0.35496  -0.35020  -0.34714  -0.34443
 Alpha  occ. eigenvalues --   -0.34151  -0.33737  -0.33343  -0.32964  -0.32782
 Alpha  occ. eigenvalues --   -0.32663  -0.32284  -0.32126  -0.31598
 Alpha virt. eigenvalues --   -0.04153  -0.02890  -0.02250  -0.01786  -0.01603
 Alpha virt. eigenvalues --   -0.01223  -0.00608   0.00041   0.00595   0.01054
 Alpha virt. eigenvalues --    0.01359   0.01545   0.01818   0.02387   0.02608
 Alpha virt. eigenvalues --    0.03141   0.03178   0.03285   0.03737   0.03860
 Alpha virt. eigenvalues --    0.03963   0.04318   0.04889   0.05635   0.06182
 Alpha virt. eigenvalues --    0.06525   0.06915   0.07248   0.08045   0.08448
 Alpha virt. eigenvalues --    0.08535   0.08855   0.09013   0.09546   0.09781
 Alpha virt. eigenvalues --    0.10263   0.10433   0.10770   0.11164   0.11374
 Alpha virt. eigenvalues --    0.11530   0.11901   0.12360   0.12748   0.12828
 Alpha virt. eigenvalues --    0.13232   0.13879   0.14142   0.14419   0.14918
 Alpha virt. eigenvalues --    0.14978   0.15507   0.15833   0.16076   0.16464
 Alpha virt. eigenvalues --    0.16780   0.17078   0.17325   0.17623   0.18170
 Alpha virt. eigenvalues --    0.18392   0.18746   0.18865   0.19221   0.19662
 Alpha virt. eigenvalues --    0.20191   0.20542   0.21245   0.21417   0.22038
 Alpha virt. eigenvalues --    0.22333   0.22491   0.22585   0.22934   0.23216
 Alpha virt. eigenvalues --    0.23868   0.24014   0.24355   0.24582   0.24663
 Alpha virt. eigenvalues --    0.25120   0.25519   0.25736   0.25954   0.26280
 Alpha virt. eigenvalues --    0.26942   0.27124   0.27562   0.27664   0.27826
 Alpha virt. eigenvalues --    0.27993   0.28317   0.28525   0.28797   0.29356
 Alpha virt. eigenvalues --    0.29525   0.29686   0.29901   0.30429   0.30541
 Alpha virt. eigenvalues --    0.31007   0.31154   0.31652   0.31860   0.32067
 Alpha virt. eigenvalues --    0.32454   0.33261   0.33649   0.33937   0.34515
 Alpha virt. eigenvalues --    0.34771   0.34964   0.35269   0.36221   0.36437
 Alpha virt. eigenvalues --    0.36651   0.37271   0.37417   0.38244   0.38823
 Alpha virt. eigenvalues --    0.39216   0.39667   0.40533   0.40887   0.41550
 Alpha virt. eigenvalues --    0.41806   0.42333   0.43169   0.43732   0.43866
 Alpha virt. eigenvalues --    0.44884   0.45108   0.45290   0.46124   0.46592
 Alpha virt. eigenvalues --    0.46996   0.47681   0.48356   0.49399   0.50002
 Alpha virt. eigenvalues --    0.50524   0.51683   0.51851   0.52792   0.53525
 Alpha virt. eigenvalues --    0.54032   0.54253   0.55624   0.56127   0.56509
 Alpha virt. eigenvalues --    0.57315   0.58067   0.60102   0.60868   0.61528
 Alpha virt. eigenvalues --    0.61888   0.62329   0.62433   0.63025   0.64735
 Alpha virt. eigenvalues --    0.65830   0.66188   0.67158   0.68511   0.69199
 Alpha virt. eigenvalues --    0.69997   0.70836   0.71489   0.71701   0.72534
 Alpha virt. eigenvalues --    0.73132   0.74545   0.75301   0.76234   0.76861
 Alpha virt. eigenvalues --    0.79542   0.80438   0.81114   0.82354   0.83361
 Alpha virt. eigenvalues --    0.83990   0.85678   0.86414   0.89287   0.92473
 Alpha virt. eigenvalues --    0.93966   0.95043   0.95702   0.96014   0.96895
 Alpha virt. eigenvalues --    0.97698   0.99018   0.99780   1.00618   1.01548
 Alpha virt. eigenvalues --    1.02328   1.04123   1.04940   1.05327   1.06301
 Alpha virt. eigenvalues --    1.06737   1.07246   1.08475   1.09884   1.11040
 Alpha virt. eigenvalues --    1.11883   1.13096   1.14251   1.14971   1.16602
 Alpha virt. eigenvalues --    1.18396   1.19332   1.20477   1.21017   1.21196
 Alpha virt. eigenvalues --    1.22175   1.22484   1.22705   1.23151   1.23932
 Alpha virt. eigenvalues --    1.24213   1.24736   1.25490   1.25602   1.26010
 Alpha virt. eigenvalues --    1.26612   1.26863   1.27612   1.28143   1.28572
 Alpha virt. eigenvalues --    1.29442   1.29662   1.29774   1.30409   1.31059
 Alpha virt. eigenvalues --    1.31622   1.32119   1.32781   1.33280   1.33654
 Alpha virt. eigenvalues --    1.34250   1.35057   1.36047   1.36529   1.36632
 Alpha virt. eigenvalues --    1.38063   1.38511   1.39164   1.40034   1.40942
 Alpha virt. eigenvalues --    1.42308   1.42937   1.44217   1.44444   1.45906
 Alpha virt. eigenvalues --    1.47119   1.48948   1.50538   1.51671   1.53257
 Alpha virt. eigenvalues --    1.55637   1.56748   1.57859   1.58397   1.58746
 Alpha virt. eigenvalues --    1.59766   1.60238   1.61663   1.62232   1.63098
 Alpha virt. eigenvalues --    1.63593   1.64347   1.65574   1.66004   1.66287
 Alpha virt. eigenvalues --    1.68080   1.68365   1.68669   1.69619   1.69990
 Alpha virt. eigenvalues --    1.71187   1.71640   1.71864   1.72507   1.73503
 Alpha virt. eigenvalues --    1.73599   1.74098   1.74871   1.75362   1.76026
 Alpha virt. eigenvalues --    1.76087   1.77313   1.77682   1.78088   1.78652
 Alpha virt. eigenvalues --    1.79634   1.80240   1.80409   1.81967   1.82630
 Alpha virt. eigenvalues --    1.82730   1.83387   1.84850   1.85238   1.85799
 Alpha virt. eigenvalues --    1.86895   1.87560   1.87887   1.89402   1.89814
 Alpha virt. eigenvalues --    1.91144   1.91428   1.92242   1.93044   1.93856
 Alpha virt. eigenvalues --    1.95114   1.96485   1.97433   1.98278   1.99291
 Alpha virt. eigenvalues --    1.99416   2.01376   2.01852   2.02186   2.03501
 Alpha virt. eigenvalues --    2.04165   2.04603   2.06257   2.07056   2.07965
 Alpha virt. eigenvalues --    2.08799   2.09831   2.10599   2.13125   2.14402
 Alpha virt. eigenvalues --    2.16475   2.17375   2.17930   2.20402   2.22812
 Alpha virt. eigenvalues --    2.23198   2.25199   2.31741   2.34264   2.37077
 Alpha virt. eigenvalues --    2.38074   2.38653   2.39632   2.40149   2.41830
 Alpha virt. eigenvalues --    2.42238   2.44037   2.45342   2.45624   2.47199
 Alpha virt. eigenvalues --    2.48077   2.49345   2.50165   2.51107   2.52438
 Alpha virt. eigenvalues --    2.54712   2.56327   2.57167   2.59318   2.60082
 Alpha virt. eigenvalues --    2.60639   2.60860   2.61067   2.62275   2.62635
 Alpha virt. eigenvalues --    2.63355   2.64460   2.65146   2.65308   2.66351
 Alpha virt. eigenvalues --    2.67075   2.67909   2.69808   2.70432   2.71393
 Alpha virt. eigenvalues --    2.71985   2.72581   2.73963   2.75354   2.76040
 Alpha virt. eigenvalues --    2.77021   2.77071   2.77686   2.78306   2.80207
 Alpha virt. eigenvalues --    2.81510   2.82997   2.83844   2.84440   2.85526
 Alpha virt. eigenvalues --    2.86122   2.86615   2.89345   2.93681   2.95745
 Alpha virt. eigenvalues --    2.98705   3.03715   3.15583   3.26680   3.46332
 Alpha virt. eigenvalues --    3.47370   3.48449   3.49556   3.49823   3.55875
 Alpha virt. eigenvalues --    3.56840   3.60257   3.61178   3.63956   3.69522
 Alpha virt. eigenvalues --    3.71842   3.99215   4.11547   5.67189  30.81665
          Condensed to atoms (all electrons):
               1          2          3          4          5          6
     1  Si  21.958831  -1.142000  -2.079632  -1.485681  -3.403017  -0.041086
     2  O   -1.142000   9.927360   0.471417  -0.027220   0.231349  -0.103868
     3  O   -2.079632   0.471417  10.589083   0.378955   0.840497   0.029767
     4  O   -1.485681  -0.027220   0.378955   9.721503   0.546279  -0.619683
     5  O   -3.403017   0.231349   0.840497   0.546279  10.265675  -0.038915
     6  Si  -0.041086  -0.103868   0.029767  -0.619683  -0.038915  13.617708
     7  Si  -1.272493  -0.171430  -1.565227  -0.008796   0.252916   0.036250
     8  Si  -0.151813  -0.576313  -0.136073   0.061710   0.035916  -0.209726
     9  Zr  -0.710860   0.051201  -0.288816  -0.026570   0.140599   0.000744
    10  O   -0.024039   0.001058   0.003660   0.001212  -0.010764  -0.000901
    11  O    0.039315  -0.003548  -0.028446  -0.000904  -0.033370  -0.000287
    12  O    0.025506   0.002287  -0.003991  -0.006457  -0.023443  -0.001214
    13  O   -0.018448   0.241753   0.000234  -0.007632  -0.003099   0.064717
    14  O   -0.071834   0.381986   0.119758  -0.020931  -0.010407   0.013437
    15  O    0.007745   0.093026   0.006215   0.001663  -0.004803  -0.012287
    16  O    0.053400   0.014150  -0.005708   0.270218  -0.012773  -0.508875
    17  O   -0.100127  -0.031782   0.043442   0.265904   0.023456  -0.369802
    18  O   -0.090547  -0.005909  -0.010671   0.179070   0.006576  -0.304158
    19  O    0.139792  -0.008618   0.452929   0.014911  -0.009681  -0.007589
    20  O    0.171437  -0.006502   0.353026  -0.004708  -0.025430   0.002743
    21  O   -0.016625   0.048334   0.240592  -0.007149  -0.006892   0.000440
    22  H    0.001207  -0.000002   0.001288   0.000053   0.000105  -0.000116
    23  H   -0.001027   0.000002  -0.000068   0.000001  -0.000501   0.000007
    24  H   -0.007375   0.000317   0.001286   0.000014   0.000092  -0.000022
    25  H   -0.000862  -0.006304  -0.000100   0.002984   0.000057   0.005232
    26  H   -0.008670  -0.015858   0.000341  -0.000081   0.000161  -0.000087
    27  H    0.015013  -0.032495  -0.014126  -0.004674  -0.000353   0.006382
    28  H   -0.007132  -0.000124   0.006486   0.000381   0.000860  -0.000492
    29  H   -0.001319  -0.006579  -0.027133   0.000777  -0.000228  -0.000506
    30  H   -0.003170  -0.000065  -0.007684  -0.000191   0.000170   0.000347
    31  H   -0.000127  -0.002572   0.000050  -0.022974   0.000089   0.078095
    32  H    0.001033  -0.000180   0.000296   0.002036   0.000166   0.030121
    33  H   -0.015603   0.001126  -0.006321  -0.012323  -0.000445   0.051837
               7          8          9         10         11         12
     1  Si  -1.272493  -0.151813  -0.710860  -0.024039   0.039315   0.025506
     2  O   -0.171430  -0.576313   0.051201   0.001058  -0.003548   0.002287
     3  O   -1.565227  -0.136073  -0.288816   0.003660  -0.028446  -0.003991
     4  O   -0.008796   0.061710  -0.026570   0.001212  -0.000904  -0.006457
     5  O    0.252916   0.035916   0.140599  -0.010764  -0.033370  -0.023443
     6  Si   0.036250  -0.209726   0.000744  -0.000901  -0.000287  -0.001214
     7  Si  15.732926   0.175118   0.159841   0.000070  -0.008215  -0.021384
     8  Si   0.175118  12.887736   0.047486  -0.000496   0.000993   0.000781
     9  Zr   0.159841   0.047486  11.379124  -0.045694   0.118245   0.128151
    10  O    0.000070  -0.000496  -0.045694   8.666877  -0.036394  -0.031241
    11  O   -0.008215   0.000993   0.118245  -0.036394   8.386663  -0.027379
    12  O   -0.021384   0.000781   0.128151  -0.031241  -0.027379   8.427189
    13  O    0.010068  -0.168905  -0.007267  -0.000001  -0.000040  -0.000003
    14  O   -0.135633  -0.493153  -0.019706  -0.000004   0.000144   0.000027
    15  O   -0.015325  -0.093031  -0.009143  -0.000007   0.000264   0.000004
    16  O   -0.004265  -0.014690  -0.009501   0.000001   0.000005   0.000028
    17  O   -0.060400   0.121647  -0.011396  -0.000006  -0.000055  -0.000008
    18  O   -0.002979   0.112928  -0.005990   0.000001  -0.000009  -0.000006
    19  O   -0.688118  -0.030759  -0.041638  -0.000025   0.000006  -0.001085
    20  O   -0.684865   0.005144  -0.028003  -0.000335  -0.000655   0.004802
    21  O   -0.148490  -0.045273  -0.022383   0.000005   0.001637   0.000922
    22  H    0.000111   0.000026  -0.028835  -0.002542   0.000405   0.270991
    23  H   -0.000040   0.000041  -0.082494   0.341059  -0.000407  -0.000228
    24  H   -0.000881  -0.000669  -0.057433   0.000430   0.316418  -0.001650
    25  H   -0.000852   0.042753  -0.000212  -0.000000   0.000000   0.000000
    26  H    0.000589   0.062907   0.000290   0.000000   0.000021   0.000000
    27  H    0.016097   0.088330   0.001528   0.000000  -0.000002  -0.000000
    28  H    0.014581  -0.000267  -0.000753   0.000143  -0.000031   0.020075
    29  H    0.064318   0.022979  -0.000457  -0.000000   0.000062  -0.000006
    30  H    0.051767   0.000107   0.001753   0.000000  -0.000000   0.000016
    31  H    0.000422  -0.003783   0.000182   0.000000   0.000000   0.000000
    32  H   -0.000396   0.000076   0.000628  -0.000000  -0.000000  -0.000001
    33  H    0.020858  -0.003596  -0.000642   0.000000   0.000001   0.000003
              13         14         15         16         17         18
     1  Si  -0.018448  -0.071834   0.007745   0.053400  -0.100127  -0.090547
     2  O    0.241753   0.381986   0.093026   0.014150  -0.031782  -0.005909
     3  O    0.000234   0.119758   0.006215  -0.005708   0.043442  -0.010671
     4  O   -0.007632  -0.020931   0.001663   0.270218   0.265904   0.179070
     5  O   -0.003099  -0.010407  -0.004803  -0.012773   0.023456   0.006576
     6  Si   0.064717   0.013437  -0.012287  -0.508875  -0.369802  -0.304158
     7  Si   0.010068  -0.135633  -0.015325  -0.004265  -0.060400  -0.002979
     8  Si  -0.168905  -0.493153  -0.093031  -0.014690   0.121647   0.112928
     9  Zr  -0.007267  -0.019706  -0.009143  -0.009501  -0.011396  -0.005990
    10  O   -0.000001  -0.000004  -0.000007   0.000001  -0.000006   0.000001
    11  O   -0.000040   0.000144   0.000264   0.000005  -0.000055  -0.000009
    12  O   -0.000003   0.000027   0.000004   0.000028  -0.000008  -0.000006
    13  O    8.630139   0.012846  -0.078489   0.003358  -0.025198  -0.043786
    14  O    0.012846   8.990350   0.086282   0.006075  -0.060648  -0.026677
    15  O   -0.078489   0.086282   8.623477  -0.000217   0.003537   0.002153
    16  O    0.003358   0.006075  -0.000217   8.947198  -0.123948  -0.073820
    17  O   -0.025198  -0.060648   0.003537  -0.123948   8.999340   0.170654
    18  O   -0.043786  -0.026677   0.002153  -0.073820   0.170654   8.900635
    19  O    0.000404   0.020437   0.000652  -0.001616  -0.020693  -0.000717
    20  O   -0.000020  -0.003701   0.000312  -0.000001   0.001615   0.000036
    21  O   -0.001195   0.044445   0.005223  -0.000070  -0.008711  -0.000022
    22  H   -0.000000  -0.000000   0.000000   0.000000   0.000000  -0.000000
    23  H   -0.000000   0.000000   0.000000   0.000000   0.000000   0.000000
    24  H    0.000001   0.000000   0.000005   0.000000   0.000000   0.000000
    25  H    0.227665  -0.008598   0.006849   0.000162   0.000321   0.010731
    26  H   -0.007319   0.003586   0.231618   0.000000  -0.000012   0.000011
    27  H   -0.002735   0.187973   0.001597  -0.000132   0.012700   0.000888
    28  H    0.000000  -0.000013  -0.000002  -0.000003  -0.000010   0.000000
    29  H    0.000560   0.003105   0.000058  -0.000010  -0.000275   0.000026
    30  H   -0.000002  -0.000462   0.000000  -0.000077   0.000747  -0.000003
    31  H    0.002104  -0.000081  -0.000013  -0.001271   0.001785   0.214856
    32  H   -0.000002  -0.000013   0.000000   0.231182  -0.002857   0.004427
    33  H    0.000671   0.000522  -0.000153   0.000185   0.214504   0.003518
              19         20         21         22         23         24
     1  Si   0.139792   0.171437  -0.016625   0.001207  -0.001027  -0.007375
     2  O   -0.008618  -0.006502   0.048334  -0.000002   0.000002   0.000317
     3  O    0.452929   0.353026   0.240592   0.001288  -0.000068   0.001286
     4  O    0.014911  -0.004708  -0.007149   0.000053   0.000001   0.000014
     5  O   -0.009681  -0.025430  -0.006892   0.000105  -0.000501   0.000092
     6  Si  -0.007589   0.002743   0.000440  -0.000116   0.000007  -0.000022
     7  Si  -0.688118  -0.684865  -0.148490   0.000111  -0.000040  -0.000881
     8  Si  -0.030759   0.005144  -0.045273   0.000026   0.000041  -0.000669
     9  Zr  -0.041638  -0.028003  -0.022383  -0.028835  -0.082494  -0.057433
    10  O   -0.000025  -0.000335   0.000005  -0.002542   0.341059   0.000430
    11  O    0.000006  -0.000655   0.001637   0.000405  -0.000407   0.316418
    12  O   -0.001085   0.004802   0.000922   0.270991  -0.000228  -0.001650
    13  O    0.000404  -0.000020  -0.001195  -0.000000  -0.000000   0.000001
    14  O    0.020437  -0.003701   0.044445  -0.000000   0.000000   0.000000
    15  O    0.000652   0.000312   0.005223   0.000000   0.000000   0.000005
    16  O   -0.001616  -0.000001  -0.000070   0.000000   0.000000   0.000000
    17  O   -0.020693   0.001615  -0.008711   0.000000   0.000000   0.000000
    18  O   -0.000717   0.000036  -0.000022  -0.000000   0.000000   0.000000
    19  O    9.020320   0.039062  -0.047248   0.000011  -0.000000   0.000029
    20  O    0.039062   8.671651   0.069022   0.000872  -0.000002  -0.000184
    21  O   -0.047248   0.069022   8.543878   0.000001  -0.000000  -0.000576
    22  H    0.000011   0.000872   0.000001   0.364476  -0.000006  -0.000005
    23  H   -0.000000  -0.000002  -0.000000  -0.000006   0.368517   0.000009
    24  H    0.000029  -0.000184  -0.000576  -0.000005   0.000009   0.364498
    25  H   -0.000033   0.000001  -0.000000  -0.000000   0.000000  -0.000000
    26  H   -0.000001  -0.000000   0.000003  -0.000000  -0.000000  -0.000000
    27  H   -0.001614   0.000056  -0.003236   0.000000   0.000000   0.000000
    28  H   -0.006203   0.250175  -0.000060  -0.000319   0.000000   0.000009
    29  H   -0.006283   0.004741   0.211958   0.000000  -0.000000   0.000003
    30  H    0.220357  -0.006476  -0.003786   0.000000  -0.000000   0.000000
    31  H    0.000018  -0.000000  -0.000000   0.000000  -0.000000  -0.000000
    32  H    0.000023  -0.000001   0.000000   0.000000  -0.000000   0.000000
    33  H    0.013130   0.000227   0.002251  -0.000000  -0.000000  -0.000000
              25         26         27         28         29         30
     1  Si  -0.000862  -0.008670   0.015013  -0.007132  -0.001319  -0.003170
     2  O   -0.006304  -0.015858  -0.032495  -0.000124  -0.006579  -0.000065
     3  O   -0.000100   0.000341  -0.014126   0.006486  -0.027133  -0.007684
     4  O    0.002984  -0.000081  -0.004674   0.000381   0.000777  -0.000191
     5  O    0.000057   0.000161  -0.000353   0.000860  -0.000228   0.000170
     6  Si   0.005232  -0.000087   0.006382  -0.000492  -0.000506   0.000347
     7  Si  -0.000852   0.000589   0.016097   0.014581   0.064318   0.051767
     8  Si   0.042753   0.062907   0.088330  -0.000267   0.022979   0.000107
     9  Zr  -0.000212   0.000290   0.001528  -0.000753  -0.000457   0.001753
    10  O   -0.000000   0.000000   0.000000   0.000143  -0.000000   0.000000
    11  O    0.000000   0.000021  -0.000002  -0.000031   0.000062  -0.000000
    12  O    0.000000   0.000000  -0.000000   0.020075  -0.000006   0.000016
    13  O    0.227665  -0.007319  -0.002735   0.000000   0.000560  -0.000002
    14  O   -0.008598   0.003586   0.187973  -0.000013   0.003105  -0.000462
    15  O    0.006849   0.231618   0.001597  -0.000002   0.000058   0.000000
    16  O    0.000162   0.000000  -0.000132  -0.000003  -0.000010  -0.000077
    17  O    0.000321  -0.000012   0.012700  -0.000010  -0.000275   0.000747
    18  O    0.010731   0.000011   0.000888   0.000000   0.000026  -0.000003
    19  O   -0.000033  -0.000001  -0.001614  -0.006203  -0.006283   0.220357
    20  O    0.000001  -0.000000   0.000056   0.250175   0.004741  -0.006476
    21  O   -0.000000   0.000003  -0.003236  -0.000060   0.211958  -0.003786
    22  H   -0.000000  -0.000000   0.000000  -0.000319   0.000000   0.000000
    23  H    0.000000  -0.000000   0.000000   0.000000  -0.000000  -0.000000
    24  H   -0.000000  -0.000000   0.000000   0.000009   0.000003   0.000000
    25  H    0.304331  -0.000012  -0.000095  -0.000000  -0.000001   0.000000
    26  H   -0.000012   0.361644  -0.000054   0.000000   0.000011   0.000000
    27  H   -0.000095  -0.000054   0.309530   0.000000  -0.000412   0.000049
    28  H   -0.000000   0.000000   0.000000   0.303059  -0.000028   0.000067
    29  H   -0.000001   0.000011  -0.000412  -0.000028   0.297216   0.000119
    30  H    0.000000   0.000000   0.000049   0.000067   0.000119   0.334625
    31  H   -0.000309   0.000000   0.000010   0.000000   0.000000   0.000000
    32  H   -0.000001  -0.000000  -0.000000   0.000000  -0.000000   0.000000
    33  H   -0.000004   0.000000  -0.001572  -0.000003   0.000089  -0.000532
              31         32         33
     1  Si  -0.000127   0.001033  -0.015603
     2  O   -0.002572  -0.000180   0.001126
     3  O    0.000050   0.000296  -0.006321
     4  O   -0.022974   0.002036  -0.012323
     5  O    0.000089   0.000166  -0.000445
     6  Si   0.078095   0.030121   0.051837
     7  Si   0.000422  -0.000396   0.020858
     8  Si  -0.003783   0.000076  -0.003596
     9  Zr   0.000182   0.000628  -0.000642
    10  O    0.000000  -0.000000   0.000000
    11  O    0.000000  -0.000000   0.000001
    12  O    0.000000  -0.000001   0.000003
    13  O    0.002104  -0.000002   0.000671
    14  O   -0.000081  -0.000013   0.000522
    15  O   -0.000013   0.000000  -0.000153
    16  O   -0.001271   0.231182   0.000185
    17  O    0.001785  -0.002857   0.214504
    18  O    0.214856   0.004427   0.003518
    19  O    0.000018   0.000023   0.013130
    20  O   -0.000000  -0.000001   0.000227
    21  O   -0.000000   0.000000   0.002251
    22  H    0.000000   0.000000  -0.000000
    23  H   -0.000000  -0.000000  -0.000000
    24  H   -0.000000   0.000000  -0.000000
    25  H   -0.000309  -0.000001  -0.000004
    26  H    0.000000  -0.000000   0.000000
    27  H    0.000010  -0.000000  -0.001572
    28  H    0.000000   0.000000  -0.000003
    29  H    0.000000  -0.000000   0.000089
    30  H    0.000000   0.000000  -0.000532
    31  H    0.336022   0.000016  -0.000048
    32  H    0.000016   0.348246   0.000126
    33  H   -0.000048   0.000126   0.278489
 Mulliken charges:
               1
     1  Si   2.240208
     2  O   -1.323998
     3  O   -1.365324
     4  O   -1.191694
     5  O   -0.760842
     6  Si   2.281785
     7  Si   2.253857
     8  Si   2.261870
     9  Zr   1.368024
    10  O   -0.862065
    11  O   -0.724436
    12  O   -0.762685
    13  O   -0.830377
    14  O   -1.019112
    15  O   -0.857209
    16  O   -0.768984
    17  O   -1.043724
    18  O   -1.041217
    19  O   -1.050161
    20  O   -0.814037
    21  O   -0.856991
    22  H    0.392280
    23  H    0.375136
    24  H    0.385687
    25  H    0.416299
    26  H    0.370913
    27  H    0.421346
    28  H    0.419605
    29  H    0.437214
    30  H    0.412322
    31  H    0.397529
    32  H    0.385075
    33  H    0.453705
 Sum of Mulliken charges =  -0.00000
 Mulliken charges with hydrogens summed into heavy atoms:
               1
     1  Si   2.240208
     2  O   -1.323998
     3  O   -1.365324
     4  O   -1.191694
     5  O   -0.760842
     6  Si   2.281785
     7  Si   2.253857
     8  Si   2.261870
     9  Zr   1.368024
    10  O   -0.486929
    11  O   -0.338749
    12  O   -0.370405
    13  O   -0.414078
    14  O   -0.597765
    15  O   -0.486296
    16  O   -0.383910
    17  O   -0.590019
    18  O   -0.643688
    19  O   -0.637839
    20  O   -0.394432
    21  O   -0.419777
 Electronic spatial extent (au):  <R**2>=           8411.2440
 Charge=              0.0000 electrons
 Dipole moment (field-independent basis, Debye):
    X=             -2.7845    Y=             -3.9789    Z=             -2.1563  Tot=              5.3137
 Quadrupole moment (field-independent basis, Debye-Ang):
   XX=           -156.8282   YY=           -158.1078   ZZ=           -157.3714
   XY=             -4.9975   XZ=              3.7531   YZ=             -7.4871
 Traceless Quadrupole moment (field-independent basis, Debye-Ang):
   XX=              0.6076   YY=             -0.6720   ZZ=              0.0644
   XY=             -4.9975   XZ=              3.7531   YZ=             -7.4871
 Octapole moment (field-independent basis, Debye-Ang**2):
  XXX=           -225.3820  YYY=            -27.3851  ZZZ=            -45.9310  XYY=            -64.1440
  XXY=            -42.4319  XXZ=            -52.8253  XZZ=              2.2127  YZZ=            -28.9650
  YYZ=            -31.4652  XYZ=             11.2303
 Hexadecapole moment (field-independent basis, Debye-Ang**3):
 XXXX=          -5724.2058 YYYY=          -2222.1993 ZZZZ=          -2252.7598 XXXY=             58.5709
 XXXZ=            177.7575 YYYX=             -2.6703 YYYZ=            -98.4957 ZZZX=            212.2377
 ZZZY=           -111.2665 XXYY=          -1503.4344 XXZZ=          -1171.5338 YYZZ=           -744.3370
 XXYZ=             55.3882 YYXZ=            -46.0417 ZZXY=            -84.7272
 N-N= 2.993119450114D+03 E-N=-1.169836849136D+04  KE= 2.373027168796D+03
 PrsmSu:  requested number of processors reduced to:   2 ShMem   1 Linda.
 PrsmSu:  requested number of processors reduced to:  10 ShMem   1 Linda.
   1 Symmetry operations used in ECPInt.
 ECPInt:  NShTT=   13203 NPrTT=   78401 LenC2=   11832 LenP2D=   44518.
 LDataN:  DoStor=T MaxTD1= 9 Len=  602
 Number of processors reduced to  14 by ecpmxn.
 Calling FoFJK, ICntrl=      2127 FMM=F ISym2X=0 I1Cent= 0 IOpClX= 0 NMat=1 NMatS=1 NMatT=0.
 CoulSu:  requested number of processors reduced to:  10 ShMem   1 Linda.
 Defaulting to unpruned grid for atomic number  40.
 Defaulting to unpruned grid for atomic number  40.
 Defaulting to unpruned grid for atomic number  40.
 Defaulting to unpruned grid for atomic number  40.
 Defaulting to unpruned grid for atomic number  40.
 Defaulting to unpruned grid for atomic number  40.
 Defaulting to unpruned grid for atomic number  40.
 Defaulting to unpruned grid for atomic number  40.
 Defaulting to unpruned grid for atomic number  40.
 Defaulting to unpruned grid for atomic number  40.
 Defaulting to unpruned grid for atomic number  40.
 Defaulting to unpruned grid for atomic number  40.
 Defaulting to unpruned grid for atomic number  40.
 Defaulting to unpruned grid for atomic number  40.
 Defaulting to unpruned grid for atomic number  40.
 Defaulting to unpruned grid for atomic number  40.
 ***** Axes restored to original set *****
 -------------------------------------------------------------------
 Center     Atomic                   Forces (Hartrees/Bohr)
 Number     Number              X              Y              Z
 -------------------------------------------------------------------
      1       14           0.011415253   -0.000685954    0.007524543
      2        8          -0.000830103   -0.000602194   -0.000763663
      3        8          -0.002907029    0.001392876    0.006496305
      4        8          -0.000886993    0.000580024   -0.000800912
      5        8           0.002558441    0.000231826   -0.003700123
      6       14           0.000837980   -0.000473705   -0.000081931
      7       14          -0.006425044   -0.004976077   -0.013283385
      8       14           0.000816738    0.000485445    0.000010460
      9       40          -0.002665917    0.007244635   -0.001501041
     10        8          -0.000612267   -0.000027138    0.000942266
     11        8          -0.002078281   -0.000200993    0.002771901
     12        8          -0.007083865   -0.007365691   -0.002990039
     13        8          -0.000260960   -0.000055183   -0.000127724
     14        8          -0.000305245   -0.000043642    0.000134761
     15        8          -0.000164092   -0.000246231   -0.000102758
     16        8          -0.000119466    0.000266173   -0.000020044
     17        8          -0.000156252    0.000209209    0.000172893
     18        8          -0.000162268    0.000035920   -0.000084618
     19        8           0.001064936    0.000810871    0.001799334
     20        8           0.011558152    0.005278042   -0.006737703
     21        8           0.000831885    0.001217312    0.002032301
     22        1          -0.000890380    0.000171784    0.001705629
     23        1          -0.000082522   -0.000340940    0.000201340
     24        1           0.000527637   -0.000411342   -0.000678451
     25        1           0.000072873   -0.000013626    0.000053965
     26        1          -0.000016631    0.000067082    0.000040902
     27        1           0.000147739   -0.000051738   -0.000041991
     28        1          -0.003842071   -0.002578283    0.007479498
     29        1           0.000147908    0.000162076   -0.000331083
     30        1          -0.000471121    0.000168925    0.000116917
     31        1           0.000022700   -0.000011572    0.000048618
     32        1          -0.000004635   -0.000084938    0.000008049
     33        1          -0.000037099   -0.000152952   -0.000294215
 -------------------------------------------------------------------
 Cartesian Forces:  Max     0.013283385 RMS     0.003174979

 GradGradGradGradGradGradGradGradGradGradGradGradGradGradGradGradGradGrad
 Berny optimization.
 FormGI is forming the generalized inverse of G from B-inverse, IUseBI=4.
 Internal  Forces:  Max     0.040807360 RMS     0.004638910
 Search for a local minimum.
 Step number   1 out of a maximum of  148
 All quantities printed in internal units (Hartrees-Bohrs-Radians)
 Mixed Optimization -- RFO/linear search
 Second derivative matrix not updated -- first step.
 ITU=  0
     Eigenvalues ---    0.00230   0.00230   0.00230   0.00230   0.03211
     Eigenvalues ---    0.03439   0.03520   0.03558   0.03586   0.03627
     Eigenvalues ---    0.03673   0.03711   0.03747   0.03753   0.03833
     Eigenvalues ---    0.03844   0.03910   0.03946   0.03957   0.04069
     Eigenvalues ---    0.08320   0.10847   0.10956   0.11220   0.11319
     Eigenvalues ---    0.11516   0.11815   0.11842   0.12054   0.12258
     Eigenvalues ---    0.12369   0.12943   0.12968   0.13045   0.13623
     Eigenvalues ---    0.16000   0.16000   0.16000   0.16000   0.16000
     Eigenvalues ---    0.16000   0.16000   0.16000   0.16000   0.16000
     Eigenvalues ---    0.16000   0.16000   0.16997   0.17756   0.19685
     Eigenvalues ---    0.20143   0.20145   0.20307   0.20369   0.20384
     Eigenvalues ---    0.21054   0.21061   0.21241   0.21266   0.21864
     Eigenvalues ---    0.22128   0.25000   0.25000   0.25000   0.37725
     Eigenvalues ---    0.40032   0.40890   0.41311   0.41617   0.42076
     Eigenvalues ---    0.42599   0.43032   0.43450   0.43522   0.44473
     Eigenvalues ---    0.44608   0.45420   0.45878   0.46010   0.47457
     Eigenvalues ---    0.50565   0.51158   0.51894   0.52645   0.52665
     Eigenvalues ---    0.54349   0.54581   0.54655   0.54658   0.54845
     Eigenvalues ---    0.55241   0.557791000.000001000.000001000.00000
     Eigenvalues --- 1000.000001000.000001000.000001000.000001000.00000
     Eigenvalues --- 1000.000001000.000001000.000001000.000001000.00000
     Eigenvalues --- 1000.000001000.000001000.000001000.000001000.00000
     Eigenvalues --- 1000.000001000.000001000.000001000.000001000.00000
     Eigenvalues --- 1000.000001000.000001000.000001000.000001000.00000
     Eigenvalues --- 1000.000001000.000001000.000001000.000001000.00000
     Eigenvalues --- 1000.000001000.000001000.000001000.000001000.00000
     Eigenvalues --- 1000.000001000.000001000.000001000.000001000.00000
     Eigenvalues --- 1000.000001000.000001000.00000
 RFO step:  Lambda=-1.13884077D-02 EMin= 2.30000000D-03
 Linear search not attempted -- first point.
 Iteration  1 RMS(Cart)=  0.21348812 RMS(Int)=  0.02681436
 Iteration  2 RMS(Cart)=  0.14257599 RMS(Int)=  0.00603671
 Iteration  3 RMS(Cart)=  0.00975025 RMS(Int)=  0.00037094
 Iteration  4 RMS(Cart)=  0.00003631 RMS(Int)=  0.00037061
 Iteration  5 RMS(Cart)=  0.00000004 RMS(Int)=  0.00037061
 Iteration  1 RMS(Cart)=  0.00000000 RMS(Int)=  0.00000000
 Variable       Old X    -DE/DX   Delta X   Delta X   Delta X     New X
                                 (Linear)    (Quad)   (Total)
    R1        3.07970   0.00073   0.00000   0.00156   0.00156   3.08125
    R2        3.15210  -0.00212   0.00000  -0.00515  -0.00515   3.14695
    R3        3.11330   0.00074   0.00000   0.00167   0.00167   3.11497
    R4        3.06222  -0.00654   0.00000  -0.01346  -0.01346   3.04877
    R5        3.13114  -0.00030   0.00000  -0.00070  -0.00070   3.13043
    R6        3.12526  -0.00911   0.00000  -0.02108  -0.02108   3.10418
    R7        3.11868  -0.00046   0.00000  -0.00106  -0.00106   3.11762
    R8        3.82373  -0.01171   0.00000  -0.06459  -0.06459   3.75914
    R9        3.10818   0.00020   0.00000   0.00045   0.00045   3.10863
   R10        3.10731  -0.00010   0.00000  -0.00023  -0.00023   3.10707
   R11        3.13510   0.00010   0.00000   0.00023   0.00023   3.13533
   R12        3.18468   0.00053   0.00000   0.00136   0.00136   3.18604
   R13        3.07820   0.00784   0.00000   0.01663   0.01663   3.09483
   R14        3.08491  -0.00080   0.00000  -0.00172  -0.00172   3.08320
   R15        3.09593   0.00019   0.00000   0.00043   0.00043   3.09635
   R16        3.14061   0.00007   0.00000   0.00016   0.00016   3.14077
   R17        3.09434   0.00011   0.00000   0.00024   0.00024   3.09458
   R18        3.64115  -0.00135   0.00000  -0.00579  -0.00579   3.63536
   R19        3.64911   0.00127   0.00000   0.00550   0.00550   3.65461
   R20        3.79237  -0.00852   0.00000  -0.04507  -0.04507   3.74730
   R21        1.81146  -0.00011   0.00000  -0.00019  -0.00019   1.81127
   R22        1.81619  -0.00035   0.00000  -0.00063  -0.00063   1.81556
   R23        1.82137  -0.00077   0.00000  -0.00139  -0.00139   1.81999
   R24        1.83968  -0.00005   0.00000  -0.00009  -0.00009   1.83960
   R25        1.83987  -0.00013   0.00000  -0.00023  -0.00023   1.83963
   R26        1.81970  -0.00007   0.00000  -0.00012  -0.00012   1.81957
   R27        1.82140  -0.00006   0.00000  -0.00010  -0.00010   1.82130
   R28        1.85999  -0.00025   0.00000  -0.00049  -0.00049   1.85950
   R29        1.82206  -0.00005   0.00000  -0.00010  -0.00010   1.82197
   R30        1.82415   0.00021   0.00000   0.00037   0.00037   1.82452
   R31        1.85414  -0.00849   0.00000  -0.01624  -0.01624   1.83790
   R32        1.84701  -0.00007   0.00000  -0.00012  -0.00012   1.84688
    A1        1.91953   0.00473   0.00000   0.02593   0.02592   1.94545
    A2        1.90840  -0.00177   0.00000   0.00188   0.00169   1.91009
    A3        1.99216   0.00282   0.00000   0.01359   0.01376   2.00592
    A4        1.91428   0.00168   0.00000   0.00613   0.00579   1.92007
    A5        1.74129  -0.00816   0.00000  -0.04749  -0.04751   1.69379
    A6        1.98106   0.00064   0.00000  -0.00191  -0.00207   1.97898
    A7        2.49157   0.00016   0.00000   0.00062   0.00062   2.49219
    A8        2.61646   0.01601   0.00000   0.06123   0.06123   2.67769
    A9        2.30862   0.00022   0.00000   0.00086   0.00086   2.30948
   A10        2.14676  -0.04081   0.00000   0.00000   0.00000   2.14676
   A11        1.87859  -0.00008   0.00000  -0.00035  -0.00035   1.87824
   A12        1.91010   0.00011   0.00000   0.00075   0.00075   1.91086
   A13        1.96315   0.00014   0.00000   0.00088   0.00088   1.96403
   A14        2.02867  -0.00004   0.00000  -0.00037  -0.00037   2.02830
   A15        1.88747  -0.00007   0.00000  -0.00057  -0.00057   1.88690
   A16        1.79725  -0.00006   0.00000  -0.00028  -0.00028   1.79698
[...]
 Alpha virt. eigenvalues --    3.48173   3.49227   3.49451   3.51664   3.57428
 Alpha virt. eigenvalues --    3.60328   3.61467   3.62976   3.63904   3.73792
 Alpha virt. eigenvalues --    3.79178   4.07568   4.12614   5.92218  30.88363
          Condensed to atoms (all electrons):
               1          2          3          4          5          6
     1  Si  23.591907  -1.538101  -2.599706  -1.524365  -3.595492  -0.000129
     2  O   -1.538101   9.959818   0.635079  -0.057766   0.340342  -0.051537
     3  O   -2.599706   0.635079  10.996168   0.437466   0.899345   0.018334
     4  O   -1.524365  -0.057766   0.437466   9.709064   0.557055  -0.543899
     5  O   -3.595492   0.340342   0.899345   0.557055  10.205113  -0.055759
     6  Si  -0.000129  -0.051537   0.018334  -0.543899  -0.055759  13.432870
     7  Si  -1.776003  -0.089588  -1.908609  -0.007361   0.284026   0.021937
     8  Si  -0.123339  -0.529503  -0.134413   0.064107   0.020099  -0.200914
     9  Zr  -0.856917   0.077250  -0.298862  -0.032235   0.175775  -0.009290
    10  O   -0.017390   0.001090   0.001681   0.000612  -0.015387  -0.000608
    11  O    0.036729  -0.005896  -0.020690  -0.000361  -0.037247  -0.000338
    12  O    0.022358   0.003419  -0.003887  -0.009349  -0.024613  -0.002433
    13  O   -0.023271   0.216345  -0.000151  -0.009059  -0.002401   0.063981
    14  O   -0.073745   0.370673   0.112870  -0.021722  -0.004639   0.008113
    15  O    0.004956   0.067816   0.006095   0.003415  -0.004802  -0.012855
    16  O    0.049469   0.011071  -0.003003   0.240390  -0.009470  -0.439853
    17  O   -0.096600  -0.052388   0.055370   0.256596   0.028394  -0.372606
    18  O   -0.087543  -0.011047  -0.017729   0.176356   0.007416  -0.306941
    19  O    0.136336  -0.002885   0.514676   0.016197  -0.010990  -0.010565
    20  O    0.221175  -0.012621   0.403334  -0.005111  -0.026218   0.000899
    21  O    0.017657   0.046589   0.329465  -0.005541  -0.011448   0.003149
    22  H    0.000483  -0.000005   0.002753   0.000213   0.000649  -0.000207
    23  H   -0.001729   0.000006  -0.000038   0.000001  -0.000732   0.000002
    24  H   -0.007551   0.000463   0.001320   0.000001   0.000280   0.000003
    25  H   -0.000782  -0.005207   0.000026   0.003047   0.000020   0.005783
    26  H   -0.008425  -0.017947   0.000347  -0.000069   0.000141  -0.000147
    27  H    0.021924  -0.034177  -0.019107  -0.004798  -0.000546   0.003983
    28  H   -0.009388  -0.000020   0.000111   0.000381   0.001848  -0.000367
    29  H   -0.004976  -0.005698  -0.028997   0.000523  -0.000195  -0.000741
    30  H   -0.001849  -0.000007  -0.009681  -0.000214   0.000128  -0.000476
    31  H    0.000845  -0.002185   0.000082  -0.022378   0.000006   0.077179
    32  H    0.000361  -0.000156   0.000437   0.003284   0.000142   0.029216
    33  H   -0.017377   0.001762  -0.008452  -0.013306  -0.000607   0.056679
               7          8          9         10         11         12
     1  Si  -1.776003  -0.123339  -0.856917  -0.017390   0.036729   0.022358
     2  O   -0.089588  -0.529503   0.077250   0.001090  -0.005896   0.003419
     3  O   -1.908609  -0.134413  -0.298862   0.001681  -0.020690  -0.003887
     4  O   -0.007361   0.064107  -0.032235   0.000612  -0.000361  -0.009349
     5  O    0.284026   0.020099   0.175775  -0.015387  -0.037247  -0.024613
     6  Si   0.021937  -0.200914  -0.009290  -0.000608  -0.000338  -0.002433
     7  Si  16.813518   0.142193   0.172547  -0.000507  -0.018077   0.001685
     8  Si   0.142193  12.765511   0.053262  -0.000273   0.001975   0.001441
     9  Zr   0.172547   0.053262  11.486348  -0.022771   0.078716   0.078637
    10  O   -0.000507  -0.000273  -0.022771   8.630110  -0.035384  -0.029848
    11  O   -0.018077   0.001975   0.078716  -0.035384   8.470705  -0.032613
    12  O    0.001685   0.001441   0.078637  -0.029848  -0.032613   8.553681
    13  O    0.010869  -0.128287  -0.006631  -0.000001  -0.000041  -0.000003
    14  O   -0.103718  -0.479969  -0.022106   0.000009  -0.000149  -0.000109
    15  O   -0.011356  -0.055809  -0.011149  -0.000001   0.000461   0.000011
    16  O   -0.002608  -0.015481  -0.009972   0.000002   0.000005   0.000042
    17  O   -0.070237   0.119069  -0.009748  -0.000005  -0.000045  -0.000051
    18  O   -0.002733   0.115105  -0.006389   0.000001  -0.000007  -0.000012
    19  O   -0.763824  -0.022800  -0.047623  -0.000036   0.000218  -0.003576
    20  O   -0.801392   0.002813  -0.018701  -0.000486  -0.000084  -0.013855
    21  O   -0.339470  -0.043471  -0.029978   0.000008   0.001419   0.000232
    22  H   -0.001847   0.000008  -0.034504  -0.002496   0.000455   0.274917
    23  H   -0.000128   0.000035  -0.082601   0.340299  -0.001227  -0.000522
    24  H   -0.000380  -0.000658  -0.070251  -0.000132   0.326917  -0.001726
    25  H   -0.000865   0.041785  -0.000147  -0.000000   0.000000   0.000000
    26  H    0.000527   0.067816   0.000081   0.000000   0.000023   0.000000
    27  H    0.018544   0.088786   0.001855   0.000000  -0.000003   0.000000
    28  H    0.019798  -0.000269   0.000360   0.000304  -0.000094   0.032550
    29  H    0.071260   0.021342  -0.000134  -0.000000   0.000088   0.000024
    30  H    0.055835   0.000016   0.001813   0.000000  -0.000001   0.000064
    31  H    0.000383  -0.004366   0.000176  -0.000000   0.000000   0.000000
    32  H   -0.000462   0.000105   0.000791  -0.000000  -0.000000  -0.000002
    33  H    0.024302  -0.002952  -0.000378   0.000000   0.000000   0.000018
              13         14         15         16         17         18
     1  Si  -0.023271  -0.073745   0.004956   0.049469  -0.096600  -0.087543
     2  O    0.216345   0.370673   0.067816   0.011071  -0.052388  -0.011047
     3  O   -0.000151   0.112870   0.006095  -0.003003   0.055370  -0.017729
     4  O   -0.009059  -0.021722   0.003415   0.240390   0.256596   0.176356
     5  O   -0.002401  -0.004639  -0.004802  -0.009470   0.028394   0.007416
     6  Si   0.063981   0.008113  -0.012855  -0.439853  -0.372606  -0.306941
     7  Si   0.010869  -0.103718  -0.011356  -0.002608  -0.070237  -0.002733
     8  Si  -0.128287  -0.479969  -0.055809  -0.015481   0.119069   0.115105
     9  Zr  -0.006631  -0.022106  -0.011149  -0.009972  -0.009748  -0.006389
    10  O   -0.000001   0.000009  -0.000001   0.000002  -0.000005   0.000001
    11  O   -0.000041  -0.000149   0.000461   0.000005  -0.000045  -0.000007
    12  O   -0.000003  -0.000109   0.000011   0.000042  -0.000051  -0.000012
    13  O    8.630041   0.006456  -0.080410   0.003046  -0.023941  -0.043203
    14  O    0.006456   8.997409   0.080330   0.006018  -0.061713  -0.028794
    15  O   -0.080410   0.080330   8.612376  -0.000211   0.003747   0.001970
    16  O    0.003046   0.006018  -0.000211   8.910686  -0.128801  -0.079029
    17  O   -0.023941  -0.061713   0.003747  -0.128801   9.027596   0.181720
    18  O   -0.043203  -0.028794   0.001970  -0.079029   0.181720   8.910992
    19  O    0.000275   0.016421   0.000380  -0.000416  -0.012331  -0.000708
    20  O   -0.000003  -0.004120   0.000236  -0.000107   0.001647   0.000077
    21  O   -0.001218   0.046287   0.004052  -0.000006  -0.007966  -0.000115
    22  H    0.000000  -0.000001   0.000000  -0.000000   0.000001  -0.000000
    23  H   -0.000000   0.000000  -0.000000   0.000000   0.000000   0.000000
    24  H    0.000001   0.000013  -0.000006   0.000000   0.000001   0.000000
    25  H    0.228559  -0.008539   0.007310   0.000245  -0.000154   0.010256
    26  H   -0.007032   0.004062   0.230765   0.000000  -0.000014   0.000007
    27  H   -0.002411   0.184785   0.001671  -0.000172   0.015314   0.001252
    28  H    0.000000   0.000024  -0.000002  -0.000003   0.000005   0.000000
    29  H    0.000476   0.003308  -0.000071  -0.000009  -0.000403   0.000027
    30  H   -0.000001  -0.000201   0.000001  -0.000036   0.000307  -0.000005
    31  H    0.002286  -0.000079  -0.000014  -0.001350   0.001667   0.214346
    32  H   -0.000002  -0.000012   0.000000   0.231756  -0.002706   0.004351
    33  H    0.000543  -0.000168  -0.000128   0.000766   0.210834   0.003237
              19         20         21         22         23         24
     1  Si   0.136336   0.221175   0.017657   0.000483  -0.001729  -0.007551
     2  O   -0.002885  -0.012621   0.046589  -0.000005   0.000006   0.000463
     3  O    0.514676   0.403334   0.329465   0.002753  -0.000038   0.001320
     4  O    0.016197  -0.005111  -0.005541   0.000213   0.000001   0.000001
     5  O   -0.010990  -0.026218  -0.011448   0.000649  -0.000732   0.000280
     6  Si  -0.010565   0.000899   0.003149  -0.000207   0.000002   0.000003
     7  Si  -0.763824  -0.801392  -0.339470  -0.001847  -0.000128  -0.000380
     8  Si  -0.022800   0.002813  -0.043471   0.000008   0.000035  -0.000658
     9  Zr  -0.047623  -0.018701  -0.029978  -0.034504  -0.082601  -0.070251
    10  O   -0.000036  -0.000486   0.000008  -0.002496   0.340299  -0.000132
    11  O    0.000218  -0.000084   0.001419   0.000455  -0.001227   0.326917
    12  O   -0.003576  -0.013855   0.000232   0.274917  -0.000522  -0.001726
    13  O    0.000275  -0.000003  -0.001218   0.000000  -0.000000   0.000001
    14  O    0.016421  -0.004120   0.046287  -0.000001   0.000000   0.000013
    15  O    0.000380   0.000236   0.004052   0.000000  -0.000000  -0.000006
    16  O   -0.000416  -0.000107  -0.000006  -0.000000   0.000000   0.000000
    17  O   -0.012331   0.001647  -0.007966   0.000001   0.000000   0.000001
    18  O   -0.000708   0.000077  -0.000115  -0.000000   0.000000   0.000000
    19  O    8.975374   0.053935  -0.023544   0.000093  -0.000000   0.000018
    20  O    0.053935   8.707138   0.083056   0.003046  -0.000003   0.000079
    21  O   -0.023544   0.083056   8.602271  -0.000024  -0.000000  -0.000467
    22  H    0.000093   0.003046  -0.000024   0.358459   0.000000  -0.000004
    23  H   -0.000000  -0.000003  -0.000000   0.000000   0.368104   0.000005
    24  H    0.000018   0.000079  -0.000467  -0.000004   0.000005   0.364014
    25  H   -0.000023   0.000001   0.000009  -0.000000  -0.000000  -0.000000
    26  H   -0.000000  -0.000000   0.000006  -0.000000  -0.000000  -0.000000
    27  H   -0.002526   0.000082  -0.005242   0.000000   0.000000  -0.000000
    28  H   -0.005447   0.238385  -0.001329  -0.001862   0.000000   0.000007
    29  H   -0.007973   0.003505   0.211363   0.000000  -0.000000   0.000002
    30  H    0.222311  -0.007938  -0.004345   0.000000  -0.000000   0.000000
    31  H    0.000010  -0.000000  -0.000001   0.000000  -0.000000  -0.000000
    32  H    0.000014  -0.000001   0.000000   0.000000  -0.000000   0.000000
    33  H    0.013634  -0.000001   0.001991  -0.000000   0.000000  -0.000000
              25         26         27         28         29         30
     1  Si  -0.000782  -0.008425   0.021924  -0.009388  -0.004976  -0.001849
     2  O   -0.005207  -0.017947  -0.034177  -0.000020  -0.005698  -0.000007
     3  O    0.000026   0.000347  -0.019107   0.000111  -0.028997  -0.009681
     4  O    0.003047  -0.000069  -0.004798   0.000381   0.000523  -0.000214
     5  O    0.000020   0.000141  -0.000546   0.001848  -0.000195   0.000128
     6  Si   0.005783  -0.000147   0.003983  -0.000367  -0.000741  -0.000476
     7  Si  -0.000865   0.000527   0.018544   0.019798   0.071260   0.055835
     8  Si   0.041785   0.067816   0.088786  -0.000269   0.021342   0.000016
     9  Zr  -0.000147   0.000081   0.001855   0.000360  -0.000134   0.001813
    10  O   -0.000000   0.000000   0.000000   0.000304  -0.000000   0.000000
    11  O    0.000000   0.000023  -0.000003  -0.000094   0.000088  -0.000001
    12  O    0.000000   0.000000   0.000000   0.032550   0.000024   0.000064
    13  O    0.228559  -0.007032  -0.002411   0.000000   0.000476  -0.000001
    14  O   -0.008539   0.004062   0.184785   0.000024   0.003308  -0.000201
    15  O    0.007310   0.230765   0.001671  -0.000002  -0.000071   0.000001
    16  O    0.000245   0.000000  -0.000172  -0.000003  -0.000009  -0.000036
    17  O   -0.000154  -0.000014   0.015314   0.000005  -0.000403   0.000307
    18  O    0.010256   0.000007   0.001252   0.000000   0.000027  -0.000005
    19  O   -0.000023  -0.000000  -0.002526  -0.005447  -0.007973   0.222311
    20  O    0.000001  -0.000000   0.000082   0.238385   0.003505  -0.007938
    21  O    0.000009   0.000006  -0.005242  -0.001329   0.211363  -0.004345
    22  H   -0.000000  -0.000000   0.000000  -0.001862   0.000000   0.000000
    23  H   -0.000000  -0.000000   0.000000   0.000000  -0.000000  -0.000000
    24  H   -0.000000  -0.000000  -0.000000   0.000007   0.000002   0.000000
    25  H    0.305303  -0.000019  -0.000075  -0.000000  -0.000001   0.000000
    26  H   -0.000019   0.358960  -0.000054   0.000000   0.000007   0.000000
    27  H   -0.000075  -0.000054   0.306765  -0.000000  -0.000107   0.000030
    28  H   -0.000000   0.000000  -0.000000   0.280847  -0.000029   0.000039
    29  H   -0.000001   0.000007  -0.000107  -0.000029   0.303310   0.000136
    30  H    0.000000   0.000000   0.000030   0.000039   0.000136   0.340119
    31  H   -0.000511   0.000000   0.000012   0.000000   0.000000   0.000000
    32  H   -0.000001  -0.000000  -0.000000   0.000000  -0.000000   0.000000
    33  H   -0.000005   0.000000  -0.001292  -0.000003   0.000102  -0.000689
              31         32         33
     1  Si   0.000845   0.000361  -0.017377
     2  O   -0.002185  -0.000156   0.001762
     3  O    0.000082   0.000437  -0.008452
     4  O   -0.022378   0.003284  -0.013306
     5  O    0.000006   0.000142  -0.000607
     6  Si   0.077179   0.029216   0.056679
     7  Si   0.000383  -0.000462   0.024302
     8  Si  -0.004366   0.000105  -0.002952
     9  Zr   0.000176   0.000791  -0.000378
    10  O   -0.000000  -0.000000   0.000000
    11  O    0.000000  -0.000000   0.000000
    12  O    0.000000  -0.000002   0.000018
    13  O    0.002286  -0.000002   0.000543
    14  O   -0.000079  -0.000012  -0.000168
    15  O   -0.000014   0.000000  -0.000128
    16  O   -0.001350   0.231756   0.000766
    17  O    0.001667  -0.002706   0.210834
    18  O    0.214346   0.004351   0.003237
    19  O    0.000010   0.000014   0.013634
    20  O   -0.000000  -0.000001  -0.000001
    21  O   -0.000001   0.000000   0.001991
    22  H    0.000000   0.000000  -0.000000
    23  H   -0.000000  -0.000000   0.000000
    24  H   -0.000000   0.000000  -0.000000
    25  H   -0.000511  -0.000001  -0.000005
    26  H    0.000000  -0.000000   0.000000
    27  H    0.000012  -0.000000  -0.001292
    28  H    0.000000   0.000000  -0.000003
    29  H    0.000000  -0.000000   0.000102
    30  H    0.000000   0.000000  -0.000689
    31  H    0.337891   0.000014  -0.000046
    32  H    0.000014   0.349405   0.000138
    33  H   -0.000046   0.000138   0.275376
 Mulliken charges:
               1
     1  Si   2.260479
     2  O   -1.314990
     3  O   -1.361633
     4  O   -1.211175
     5  O   -0.720234
     6  Si   2.287534
     7  Si   2.261740
     8  Si   2.237038
     9  Zr   1.442774
    10  O   -0.848791
    11  O   -0.765453
    12  O   -0.846480
    13  O   -0.834811
    14  O   -1.026993
    15  O   -0.848778
    16  O   -0.762968
    17  O   -1.062559
    18  O   -1.042859
    19  O   -1.034626
    20  O   -0.828767
    21  O   -0.873392
    22  H    0.399871
    23  H    0.378528
    24  H    0.388052
    25  H    0.413982
    26  H    0.370965
    27  H    0.425505
    28  H    0.444153
    29  H    0.433861
    30  H    0.404644
    31  H    0.396034
    32  H    0.383328
    33  H    0.456020
 Sum of Mulliken charges =  -0.00000
 Mulliken charges with hydrogens summed into heavy atoms:
               1
     1  Si   2.260479
     2  O   -1.314990
     3  O   -1.361633
     4  O   -1.211175
     5  O   -0.720234
     6  Si   2.287534
     7  Si   2.261740
     8  Si   2.237038
     9  Zr   1.442774
    10  O   -0.470263
    11  O   -0.377401
    12  O   -0.446608
    13  O   -0.420829
    14  O   -0.601489
    15  O   -0.477813
    16  O   -0.379639
    17  O   -0.606539
    18  O   -0.646825
    19  O   -0.629982
    20  O   -0.384614
    21  O   -0.439531
 Electronic spatial extent (au):  <R**2>=           8289.5005
 Charge=             -0.0000 electrons
 Dipole moment (field-independent basis, Debye):
    X=             -3.5217    Y=             -3.1529    Z=             -3.3523  Tot=              5.7950
 Quadrupole moment (field-independent basis, Debye-Ang):
   XX=           -153.6557   YY=           -153.4620   ZZ=           -162.2319
   XY=             -4.7284   XZ=              2.7190   YZ=             -6.4463
 Traceless Quadrupole moment (field-independent basis, Debye-Ang):
   XX=              2.7942   YY=              2.9879   ZZ=             -5.7821
   XY=             -4.7284   XZ=              2.7190   YZ=             -6.4463
 Octapole moment (field-independent basis, Debye-Ang**2):
  XXX=           -230.1710  YYY=             -0.9147  ZZZ=            -61.7254  XYY=            -68.5313
  XXY=            -24.8638  XXZ=            -63.5079  XZZ=              6.2202  YZZ=            -30.0054
  YYZ=            -23.5111  XYZ=             -1.4287
 Hexadecapole moment (field-independent basis, Debye-Ang**3):
 XXXX=          -5532.5701 YYYY=          -2132.8547 ZZZZ=          -2324.5386 XXXY=            -16.3241
 XXXZ=            165.1620 YYYX=             44.3080 YYYZ=            -80.7476 ZZZX=            161.4988
 ZZZY=            -94.1019 XXYY=          -1461.8768 XXZZ=          -1149.9356 YYZZ=           -738.6489
 XXYZ=            -12.7848 YYXZ=            -22.5240 ZZXY=           -119.3627
 N-N= 3.007683024147D+03 E-N=-1.172788917906D+04  KE= 2.373144764298D+03
 1\1\GINC-GRA626\FOpt\RB3LYP\Gen\H12O16Si4Zr1\SARASHS\29-Jul-2020\0\\#n
  B3LYP/Gen Pseudo=cards EmpiricalDispersion=GD3 Opt=modredundant\\Titl
 e\\0,1\Si,-0.1456366669,0.1039535102,-0.9238239482\O,-1.0064105237,-1.
 2754562689,-1.07620106\O,0.4626847729,0.2153566131,0.5998936653\O,-1.1
 312179896,1.3965754102,-1.2146676877\O,1.1862789029,0.1383369847,-1.85
 1192818\Si,-2.6502868701,1.7434860513,-0.6750824715\Si,0.4950797568,0.
 3411864421,2.2289928623\Si,-2.1498811105,-2.1313505629,-0.231830515\Zr
 ,3.0301747084,-0.0034710684,-1.1082589277\O,4.2961231369,0.2273448031,
 -2.5466825683\O,3.2286079345,-1.7261467845,-0.2748683751\O,3.364111116
 8,1.4096476735,0.259005224\O,-3.5785286285,-2.0035872626,-1.0270582474
 \O,-2.2191447491,-1.5505739931,1.3229431488\O,-1.705469617,-3.70090883
 69,-0.0764423126\O,-2.9374576851,3.3360918209,-0.9745581839\O,-2.81272
 7012,1.2596243335,0.8881370616\O,-3.812221913,0.8529362805,-1.45749122
 21\O,-0.6586196877,1.5323581715,2.5408618257\O,1.9865484701,0.80270543
 13,2.7068936539\O,0.0905924395,-1.0552796819,2.9774566715\H,4.00280649
 39,2.1279342661,0.3233424577\H,4.94866959,0.0032634462,-3.2126625112\H
 ,3.1110584056,-2.4462607852,0.3480792483\H,-3.8159864843,-1.1060120929
 ,-1.3195043302\H,-1.7389337632,-4.2467277053,-0.8689911479\H,-2.701549
 6505,-0.7067510868,1.385734007\H,2.561744946,1.0997439801,1.9734336151
 \H,-0.7204024116,-1.4605035534,2.6159250224\H,-0.7619899129,1.79302811
 39,3.4642362689\H,-4.2054223433,1.263302714,-2.236290182\H,-2.16823003
 92,3.8855665903,-1.1623156337\H,-2.0959736162,1.5104370462,1.514887410
 4\\Version=ES64L-G16RevB.01\State=1-A\HF=-2416.942626\RMSD=1.636e-09\R
 MSF=5.367e-04\Dipole=1.2599833,1.3389785,-1.3481766\Quadrupole=1.69429
 85,1.4875481,-3.1818467,-2.9011227,-2.7687404,5.4399424\PG=C01 [X(H12O
 16Si4Zr1)]\\@


 HE THAT WALD REACHE THE SWEITE ROSE
 SULD NOW AND THEN BE SCRATCHED WT THE SCHARPE BREERES.
 -- PROVERBS AND REASONS OF THE YEAR 1585
           AS REPRINTED IN PAISLEY MAGAZINE 1828.
 Job cpu time:       1 days 20 hours 17 minutes 17.5 seconds.
 Elapsed time:       0 days  3 hours 24 minutes 23.1 seconds.
 File lengths (MBytes):  RWF=    167 Int=      0 D2E=      0 Chk=     21 Scr=      1
 Normal termination of Gaussian 16 at Wed Jul 29 23:30:45 2020.
