 Entering Gaussian System, Link 0=g16
 Initial command:
 /opt/software/gaussian/g16.b01/l1.exe "/localscratch/sarashs.36567442.0/Gau-31680.inp" -scrdir="/localscratch/sarashs.36567442.0/"
 Entering Link 1 = /opt/software/gaussian/g16.b01/l1.exe PID=     31684.
  
 Copyright (c) 1988-2017, Gaussian, Inc.  All Rights Reserved.
  
 This is part of the Gaussian(R) 16 program.  It is based on
 the Gaussian(R) 09 system (copyright 2009, Gaussian, Inc.),
 the Gaussian(R) 03 system (copyright 2003, Gaussian, Inc.),
 the Gaussian(R) 98 system (copyright 1998, Gaussian, Inc.),
 the Gaussian(R) 94 system (copyright 1995, Gaussian, Inc.),
 the Gaussian 92(TM) system (copyright 1992, Gaussian, Inc.),
 the Gaussian 90(TM) system (copyright 1990, Gaussian, Inc.),
 the Gaussian 88(TM) system (copyright 1988, Gaussian, Inc.),
 the Gaussian 86(TM) system (copyright 1986, Carnegie Mellon
 University), and the Gaussian 82(TM) system (copyright 1983,
 Carnegie Mellon University). Gaussian is a federally registered
 trademark of Gaussian, Inc.
  
 This software contains proprietary and confidential information,
 including trade secrets, belonging to Gaussian, Inc.
  
 This software is provided under written license and may be
 used, copied, transmitted, or stored only in accord with that
 written license.
  
 The following legend is applicable only to US Government
 contracts under FAR:
  
                    RESTRICTED RIGHTS LEGEND
  
 Use, reproduction and disclosure by the US Government is
 subject to restrictions as set forth in subparagraphs (a)
 and (c) of the Commercial Computer Software - Restricted
 Rights clause in FAR 52.227-19.
  
 Gaussian, Inc.
 340 Quinnipiac St., Bldg. 40, Wallingford CT 06492
  
  
 ---------------------------------------------------------------
 Warning -- This program may not be used in any manner that
 competes with the business of Gaussian, Inc. or will provide
 assistance to any competitor of Gaussian, Inc.  The licensee
 of this program is prohibited from giving any competitor of
 Gaussian, Inc. access to this program.  By using this program,
 the user acknowledges that Gaussian, Inc. is engaged in the
 business of creating and licensing software in the field of
 computational chemistry and represents and warrants to the
 licensee that it is not a competitor of Gaussian, Inc. and that
 it will not use this program in any manner prohibited above.
 ---------------------------------------------------------------
  

 Cite this work as:
 Gaussian 16, Revision B.01,
 M. J. Frisch, G. W. Trucks, H. B. Schlegel, G. E. Scuseria, 
 M. A. Robb, J. R. Cheeseman, G. Scalmani, V. Barone, 
 G. A. Petersson, H. Nakatsuji, X. Li, M. Caricato, A. V. Marenich, 
 J. Bloino, B. G. Janesko, R. Gomperts, B. Mennucci, H. P. Hratchian, 
 J. V. Ortiz, A. F. Izmaylov, J. L. Sonnenberg, D. Williams-Young, 
 F. Ding, F. Lipparini, F. Egidi, J. Goings, B. Peng, A. Petrone, 
 T. Henderson, D. Ranasinghe, V. G. Zakrzewski, J. Gao, N. Rega, 
 G. Zheng, W. Liang, M. Hada, M. Ehara, K. Toyota, R. Fukuda, 
 J. Hasegawa, M. Ishida, T. Nakajima, Y. Honda, O. Kitao, H. Nakai, 
 T. Vreven, K. Throssell, J. A. Montgomery, Jr., J. E. Peralta, 
 F. Ogliaro, M. J. Bearpark, J. J. Heyd, E. N. Brothers, K. N. Kudin, 
 V. N. Staroverov, T. A. Keith, R. Kobayashi, J. Normand, 
 K. Raghavachari, A. P. Rendell, J. C. Burant, S. S. Iyengar, 
 J. Tomasi, M. Cossi, J. M. Millam, M. Klene, C. Adamo, R. Cammi, 
 J. W. Ochterski, R. L. Martin, K. Morokuma, O. Farkas, 
 J. B. Foresman, and D. J. Fox, Gaussian, Inc., Wallingford CT, 2016.
 
 ******************************************
 Gaussian 16:  ES64L-G16RevB.01 20-Dec-2017
                29-Jul-2020 
 ******************************************
 %NProcShared=16
 Will use up to   16 processors via shared memory.
 ------------------------------------------------------------------
 #n B3LYP/Gen Pseudo=cards EmpiricalDispersion=GD3 Opt=modredundant
 ------------------------------------------------------------------
 1/18=120,19=15,26=3,38=1/1,3;
 2/9=110,12=2,17=6,18=5,40=1/2;
 3/5=7,11=2,16=1,17=8,25=1,30=1,71=1,74=-5,124=31/1,2,3;
 4//1;
 5/5=2,38=5/2;
 6/7=2,8=2,9=2,10=2,28=1/1;
 7//1,2,3,16;
 1/18=20,19=15,26=3/3(2);
 2/9=110/2;
 99//99;
 2/9=110/2;
 3/5=7,6=1,11=2,16=1,17=8,25=1,30=1,71=1,74=-5,82=7,124=31/1,2,3;
 4/5=5,16=3,69=1/1;
 5/5=2,38=5/2;
 7//1,2,3,16;
 1/18=20,19=15,26=3/3(-5);
 2/9=110/2;
 6/7=2,8=2,9=2,10=2,19=2,28=1/1;
 99/9=1/99;
 -----
 Title
 -----
 Symbolic Z-matrix:
 Charge =  0 Multiplicity = 1
 Si                   -0.13817   0.15907  -0.88672 
 O                    -1.00571  -1.21557  -1.00367 
 O                     0.58179   0.25267   0.61501 
 O                    -1.1339    1.45311  -1.10627 
 O                     1.18134   0.19206  -1.82677 
 Si                   -2.69339   1.74371  -0.65114 
 Si                    0.45246   0.31404   2.26262 
 Si                   -2.1548   -2.1204   -0.22503 
 Zr                    2.84403  -0.02035  -0.69335 
 O                     4.32421   0.02331  -1.92613 
 O                     2.85571  -1.72601   0.21188 
 O                     3.20811   1.46772   0.60299 
 O                    -3.55825  -2.00436  -1.06221 
 O                    -2.28687  -1.57711   1.34004 
 O                    -1.66915  -3.67748  -0.08045 
 O                    -3.00596   3.33412  -0.93077 
 O                    -2.92057   1.21838   0.89035 
 O                    -3.78511   0.84272  -1.51643 
 O                    -0.76335   1.45159   2.52316 
 O                     1.87673   0.80442   2.88257 
 O                     0.04596  -1.13257   2.9006 
 H                     3.9626    2.066     0.64514 
 H                     5.05599  -0.25897  -2.47724 
 H                     2.51036  -2.31136   0.89143 
 H                    -3.79221  -1.10963  -1.36628 
 H                    -1.5614   -4.18568  -0.89124 
 H                    -2.80623  -0.75615   1.40497 
 H                     2.4905    1.16992   2.20997 
 H                    -0.78842  -1.49858   2.54684 
 H                    -0.84185   1.77955   3.42764 
 H                    -4.15196   1.2615   -2.30365 
 H                    -2.24428   3.9095   -1.06409 
 H                    -2.21087   1.44549   1.53341 
 
 The following ModRedundant input section has been read:
 A       1       5       9 F                                                   
 

 GradGradGradGradGradGradGradGradGradGradGradGradGradGradGradGradGradGrad
 Berny optimization.
 Initialization pass.
                           ----------------------------
                           !    Initial Parameters    !
                           ! (Angstroms and Degrees)  !
 --------------------------                            --------------------------
 ! Name  Definition              Value          Derivative Info.                !
 --------------------------------------------------------------------------------
 ! R1    R(1,2)                  1.6297         estimate D2E/DX2                !
 ! R2    R(1,3)                  1.668          estimate D2E/DX2                !
 ! R3    R(1,4)                  1.6475         estimate D2E/DX2                !
 ! R4    R(1,5)                  1.6205         estimate D2E/DX2                !
 ! R5    R(1,9)                  2.9938         estimate D2E/DX2                !
 ! R6    R(2,8)                  1.6569         estimate D2E/DX2                !
 ! R7    R(3,7)                  1.6538         estimate D2E/DX2                !
 ! R8    R(4,6)                  1.6503         estimate D2E/DX2                !
 ! R9    R(5,9)                  2.0234         estimate D2E/DX2                !
 ! R10   R(6,16)                 1.6448         estimate D2E/DX2                !
 ! R11   R(6,17)                 1.6443         estimate D2E/DX2                !
 ! R12   R(6,18)                 1.659          estimate D2E/DX2                !
 ! R13   R(7,19)                 1.6853         estimate D2E/DX2                !
 ! R14   R(7,20)                 1.6289         estimate D2E/DX2                !
 ! R15   R(7,21)                 1.6325         estimate D2E/DX2                !
 ! R16   R(8,13)                 1.6383         estimate D2E/DX2                !
 ! R17   R(8,14)                 1.6619         estimate D2E/DX2                !
 ! R18   R(8,15)                 1.6375         estimate D2E/DX2                !
 ! R19   R(9,10)                 1.9268         estimate D2E/DX2                !
 ! R20   R(9,11)                 1.931          estimate D2E/DX2                !
 ! R21   R(9,12)                 2.0068         estimate D2E/DX2                !
 ! R22   R(10,23)                0.9586         estimate D2E/DX2                !
 ! R23   R(11,24)                0.9611         estimate D2E/DX2                !
 ! R24   R(12,22)                0.9638         estimate D2E/DX2                !
 ! R25   R(13,25)                0.9735         estimate D2E/DX2                !
 ! R26   R(14,27)                0.9736         estimate D2E/DX2                !
 ! R27   R(15,26)                0.9629         estimate D2E/DX2                !
 ! R28   R(16,32)                0.9638         estimate D2E/DX2                !
 ! R29   R(17,33)                0.9843         estimate D2E/DX2                !
 ! R30   R(18,31)                0.9642         estimate D2E/DX2                !
 ! R31   R(19,30)                0.9653         estimate D2E/DX2                !
 ! R32   R(20,28)                0.9812         estimate D2E/DX2                !
 ! R33   R(21,29)                0.9774         estimate D2E/DX2                !
 ! A1    A(2,1,3)              109.9808         estimate D2E/DX2                !
 ! A2    A(2,1,4)              109.3435         estimate D2E/DX2                !
 ! A3    A(2,1,5)              114.1426         estimate D2E/DX2                !
 ! A4    A(2,1,9)              118.9695         estimate D2E/DX2                !
 ! A5    A(3,1,4)              109.6804         estimate D2E/DX2                !
 ! A6    A(3,1,5)               99.7688         estimate D2E/DX2                !
 ! A7    A(3,1,9)               61.005          estimate D2E/DX2                !
 ! A8    A(4,1,5)              113.5061         estimate D2E/DX2                !
 ! A9    A(4,1,9)              131.1263         estimate D2E/DX2                !
 ! A10   A(1,2,8)              142.7567         estimate D2E/DX2                !
 ! A11   A(1,3,7)              149.9119         estimate D2E/DX2                !
 ! A12   A(1,4,6)              132.2743         estimate D2E/DX2                !
 ! A13   A(1,5,9)              110.0002         Frozen                          !
 ! A14   A(4,6,16)             107.6353         estimate D2E/DX2                !
 ! A15   A(4,6,17)             109.4409         estimate D2E/DX2                !
 ! A16   A(4,6,18)             112.4799         estimate D2E/DX2                !
 ! A17   A(16,6,17)            116.2345         estimate D2E/DX2                !
 ! A18   A(16,6,18)            108.144          estimate D2E/DX2                !
 ! A19   A(17,6,18)            102.9751         estimate D2E/DX2                !
 ! A20   A(3,7,19)             103.6202         estimate D2E/DX2                !
 ! A21   A(3,7,20)             108.7814         estimate D2E/DX2                !
 ! A22   A(3,7,21)             112.0818         estimate D2E/DX2                !
 ! A23   A(19,7,20)            111.639          estimate D2E/DX2                !
 ! A24   A(19,7,21)            110.9828         estimate D2E/DX2                !
 ! A25   A(20,7,21)            109.6189         estimate D2E/DX2                !
 ! A26   A(2,8,13)             108.3776         estimate D2E/DX2                !
 ! A27   A(2,8,14)             108.6105         estimate D2E/DX2                !
 ! A28   A(2,8,15)             110.799          estimate D2E/DX2                !
 ! A29   A(13,8,14)            112.954          estimate D2E/DX2                !
 ! A30   A(13,8,15)            111.5028         estimate D2E/DX2                !
 ! A31   A(14,8,15)            104.553          estimate D2E/DX2                !
 ! A32   A(1,9,10)             136.264          estimate D2E/DX2                !
 ! A33   A(1,9,11)              95.1198         estimate D2E/DX2                !
 ! A34   A(1,9,12)             100.2532         estimate D2E/DX2                !
 ! A35   A(5,9,10)             105.693          estimate D2E/DX2                !
 ! A36   A(5,9,11)             111.1174         estimate D2E/DX2                !
 ! A37   A(5,9,12)             115.6625         estimate D2E/DX2                !
 ! A38   A(10,9,11)            108.3788         estimate D2E/DX2                !
 ! A39   A(10,9,12)            104.8992         estimate D2E/DX2                !
 ! A40   A(11,9,12)            110.5515         estimate D2E/DX2                !
 ! A41   A(9,10,23)            161.3692         estimate D2E/DX2                !
 ! A42   A(9,11,24)            150.1412         estimate D2E/DX2                !
 ! A43   A(9,12,22)            129.0897         estimate D2E/DX2                !
 ! A44   A(8,13,25)            115.5044         estimate D2E/DX2                !
 ! A45   A(8,14,27)            112.3856         estimate D2E/DX2                !
 ! A46   A(8,15,26)            117.432          estimate D2E/DX2                !
 ! A47   A(6,16,32)            116.7803         estimate D2E/DX2                !
 ! A48   A(6,17,33)            116.0494         estimate D2E/DX2                !
 ! A49   A(6,18,31)            116.1247         estimate D2E/DX2                !
 ! A50   A(7,19,30)            115.6491         estimate D2E/DX2                !
 ! A51   A(7,20,28)            113.4661         estimate D2E/DX2                !
 ! A52   A(7,21,29)            113.7637         estimate D2E/DX2                !
 ! D1    D(3,1,2,8)             50.0624         estimate D2E/DX2                !
 ! D2    D(4,1,2,8)            -70.4297         estimate D2E/DX2                !
 ! D3    D(5,1,2,8)            161.2125         estimate D2E/DX2                !
 ! D4    D(9,1,2,8)            117.2164         estimate D2E/DX2                !
 ! D5    D(2,1,3,7)            -60.1512         estimate D2E/DX2                !
 ! D6    D(4,1,3,7)             60.1373         estimate D2E/DX2                !
 ! D7    D(5,1,3,7)            179.5701         estimate D2E/DX2                !
 ! D8    D(9,1,3,7)           -172.9637         estimate D2E/DX2                !
 ! D9    D(2,1,4,6)             37.0076         estimate D2E/DX2                !
 ! D10   D(3,1,4,6)            -83.6678         estimate D2E/DX2                !
 ! D11   D(5,1,4,6)            165.7183         estimate D2E/DX2                !
 ! D12   D(9,1,4,6)           -151.8822         estimate D2E/DX2                !
 ! D13   D(2,1,9,10)            93.05           estimate D2E/DX2                !
 ! D14   D(2,1,9,11)           -30.4224         estimate D2E/DX2                !
 ! D15   D(2,1,9,12)          -142.4085         estimate D2E/DX2                !
 ! D16   D(3,1,9,10)          -168.9175         estimate D2E/DX2                !
 ! D17   D(3,1,9,11)            67.6101         estimate D2E/DX2                !
 ! D18   D(3,1,9,12)           -44.376          estimate D2E/DX2                !
 ! D19   D(4,1,9,10)           -77.356          estimate D2E/DX2                !
 ! D20   D(4,1,9,11)           159.1716         estimate D2E/DX2                !
 ! D21   D(4,1,9,12)            47.1855         estimate D2E/DX2                !
 ! D22   D(1,2,8,13)           108.4711         estimate D2E/DX2                !
 ! D23   D(1,2,8,14)           -14.5876         estimate D2E/DX2                !
 ! D24   D(1,2,8,15)          -128.8886         estimate D2E/DX2                !
 ! D25   D(1,3,7,19)           -46.0619         estimate D2E/DX2                !
 ! D26   D(1,3,7,20)          -164.9541         estimate D2E/DX2                !
 ! D27   D(1,3,7,21)            73.6681         estimate D2E/DX2                !
 ! D28   D(1,4,6,16)           169.4411         estimate D2E/DX2                !
 ! D29   D(1,4,6,17)            42.2775         estimate D2E/DX2                !
 ! D30   D(1,4,6,18)           -71.5346         estimate D2E/DX2                !
 ! D31   D(4,6,16,32)          -16.3726         estimate D2E/DX2                !
 ! D32   D(17,6,16,32)         106.7215         estimate D2E/DX2                !
 ! D33   D(18,6,16,32)        -138.134          estimate D2E/DX2                !
 ! D34   D(4,6,17,33)           44.2632         estimate D2E/DX2                !
 ! D35   D(16,6,17,33)         -77.8848         estimate D2E/DX2                !
 ! D36   D(18,6,17,33)         164.0932         estimate D2E/DX2                !
 ! D37   D(4,6,18,31)          -92.9354         estimate D2E/DX2                !
 ! D38   D(16,6,18,31)          25.7911         estimate D2E/DX2                !
 ! D39   D(17,6,18,31)         149.3552         estimate D2E/DX2                !
 ! D40   D(3,7,19,30)         -166.1155         estimate D2E/DX2                !
 ! D41   D(20,7,19,30)         -49.2104         estimate D2E/DX2                !
 ! D42   D(21,7,19,30)          73.4066         estimate D2E/DX2                !
 ! D43   D(3,7,20,28)           12.9879         estimate D2E/DX2                !
 ! D44   D(19,7,20,28)        -100.7463         estimate D2E/DX2                !
 ! D45   D(21,7,20,28)         135.8599         estimate D2E/DX2                !
 ! D46   D(3,7,21,29)          -57.2164         estimate D2E/DX2                !
 ! D47   D(19,7,21,29)          58.1093         estimate D2E/DX2                !
 ! D48   D(20,7,21,29)        -178.1114         estimate D2E/DX2                !
 ! D49   D(2,8,13,25)          -43.843          estimate D2E/DX2                !
 ! D50   D(14,8,13,25)          76.5485         estimate D2E/DX2                !
 ! D51   D(15,8,13,25)        -166.0547         estimate D2E/DX2                !
 ! D52   D(2,8,14,27)           78.098          estimate D2E/DX2                !
 ! D53   D(13,8,14,27)         -42.1603         estimate D2E/DX2                !
 ! D54   D(15,8,14,27)        -163.5737         estimate D2E/DX2                !
 ! D55   D(2,8,15,26)          -65.1514         estimate D2E/DX2                !
 ! D56   D(13,8,15,26)          55.6545         estimate D2E/DX2                !
 ! D57   D(14,8,15,26)         178.0211         estimate D2E/DX2                !
 ! D58   D(1,9,10,23)         -104.7583         estimate D2E/DX2                !
 ! D59   D(5,9,10,23)         -105.0488         estimate D2E/DX2                !
 ! D60   D(11,9,10,23)          14.14           estimate D2E/DX2                !
 ! D61   D(12,9,10,23)         132.2513         estimate D2E/DX2                !
 ! D62   D(1,9,11,24)          -44.5867         estimate D2E/DX2                !
 ! D63   D(5,9,11,24)          -71.4526         estimate D2E/DX2                !
 ! D64   D(10,9,11,24)         172.8348         estimate D2E/DX2                !
 ! D65   D(12,9,11,24)          58.3837         estimate D2E/DX2                !
 ! D66   D(1,9,12,22)         -145.9944         estimate D2E/DX2                !
 ! D67   D(5,9,12,22)         -118.0992         estimate D2E/DX2                !
 ! D68   D(10,9,12,22)          -2.1001         estimate D2E/DX2                !
 ! D69   D(11,9,12,22)         114.5277         estimate D2E/DX2                !
 --------------------------------------------------------------------------------
 Trust Radius=3.00D-01 FncErr=1.00D-07 GrdErr=1.00D-06 EigMax=2.50D+02 EigMin=1.00D-04
 Number of steps in this run=    164 maximum allowed number of steps=    198.
 GradGradGradGradGradGradGradGradGradGradGradGradGradGradGradGradGradGrad

                          Input orientation:                          
 ---------------------------------------------------------------------
 Center     Atomic      Atomic             Coordinates (Angstroms)
 Number     Number       Type             X           Y           Z
 ---------------------------------------------------------------------
      1         14           0       -0.138170    0.159070   -0.886720
      2          8           0       -1.005710   -1.215570   -1.003670
      3          8           0        0.581790    0.252670    0.615010
      4          8           0       -1.133900    1.453110   -1.106270
      5          8           0        1.181340    0.192060   -1.826770
      6         14           0       -2.693390    1.743710   -0.651140
      7         14           0        0.452460    0.314040    2.262620
      8         14           0       -2.154800   -2.120400   -0.225030
      9         40           0        2.844030   -0.020350   -0.693350
     10          8           0        4.324210    0.023310   -1.926130
     11          8           0        2.855710   -1.726010    0.211880
     12          8           0        3.208110    1.467720    0.602990
     13          8           0       -3.558250   -2.004360   -1.062210
     14          8           0       -2.286870   -1.577110    1.340040
     15          8           0       -1.669150   -3.677480   -0.080450
     16          8           0       -3.005960    3.334120   -0.930770
     17          8           0       -2.920570    1.218380    0.890350
     18          8           0       -3.785110    0.842720   -1.516430
     19          8           0       -0.763350    1.451590    2.523160
     20          8           0        1.876730    0.804420    2.882570
     21          8           0        0.045960   -1.132570    2.900600
     22          1           0        3.962600    2.066000    0.645140
     23          1           0        5.055990   -0.258970   -2.477240
     24          1           0        2.510360   -2.311360    0.891430
     25          1           0       -3.792210   -1.109630   -1.366280
     26          1           0       -1.561400   -4.185680   -0.891240
     27          1           0       -2.806230   -0.756150    1.404970
     28          1           0        2.490500    1.169920    2.209970
     29          1           0       -0.788420   -1.498580    2.546840
     30          1           0       -0.841850    1.779550    3.427640
     31          1           0       -4.151960    1.261500   -2.303650
     32          1           0       -2.244280    3.909500   -1.064090
     33          1           0       -2.210870    1.445490    1.533410
 ---------------------------------------------------------------------
                    Distance matrix (angstroms):
                    1          2          3          4          5
     1  Si   0.000000
     2  O    1.629705   0.000000
     3  O    1.668022   2.701113   0.000000
     4  O    1.647489   2.673726   2.710619   0.000000
     5  O    1.620459   2.728022   2.515039   2.733076   0.000000
     6  Si   3.015913   3.424891   3.814858   1.650334   4.336272
     7  Si   3.207990   3.890323   1.653817   3.894026   4.155629
     8  Si   3.114581   1.656926   3.718340   3.819528   4.363814
     9  Zr   2.993844   4.042938   2.627561   4.262102   2.023437
    10  O    4.583845   5.549216   4.529427   5.701532   3.148965
    11  O    3.704560   4.080279   3.041118   5.268900   3.261687
    12  O    3.889652   5.247636   2.893795   4.666351   3.411574
    13  O    4.050700   2.672279   5.004716   4.222974   5.279444
    14  O    3.548196   2.695377   3.478933   4.061528   5.018678
    15  O    4.208692   2.711732   4.582191   5.259444   5.113538
    16  O    4.278680   4.970512   4.975613   2.659625   5.311199
    17  O    3.467256   3.630167   3.643478   2.689569   5.026106
    18  O    3.763520   3.496362   4.894999   2.751313   5.018495
    19  O    3.699830   4.428432   2.624471   3.648297   4.928501
    20  O    4.322481   5.243251   2.668919   5.039398   4.799629
    21  O    4.005750   4.044283   2.725789   4.912516   5.039024
    22  H    4.774860   6.178299   3.836528   5.423779   4.166221
    23  H    5.448285   6.311157   5.462806   6.567002   3.954675
    24  H    4.034793   4.141848   3.220255   5.607376   3.927088
    25  H    3.897638   2.811991   4.991317   3.701601   5.161652
    26  H    4.571920   3.023737   5.153737   5.659059   5.249995
    27  H    3.634283   3.042119   3.622214   3.739498   5.219575
    28  H    4.185835   5.314276   2.651117   4.920764   4.354926
    29  H    3.867811   3.568393   2.945559   4.709251   5.085930
    30  H    4.662062   5.351084   3.502713   4.555019   5.849978
    31  H    4.396994   4.210073   5.651965   3.252556   5.460330
    32  H    4.304984   5.272954   4.917159   2.696029   5.112330
    33  H    3.436276   3.869163   3.172574   2.850935   4.936495
                    6          7          8          9         10
     6  Si   0.000000
     7  Si   4.519992   0.000000
     8  Si   3.924665   4.348874   0.000000
     9  Zr   5.811773   3.816960   5.442227   0.000000
    10  O    7.337035   5.711445   7.033264   1.926807   0.000000
    11  O    6.601233   3.760711   5.044962   1.931024   3.128530
    12  O    6.039596   3.417449   6.505461   2.006839   3.119046
    13  O    3.868461   5.702216   1.638294   6.712789   8.184802
    14  O    3.893315   3.454205   1.661942   5.734484   7.545568
    15  O    5.546535   5.091506   1.637455   5.841151   7.281672
    16  O    1.644779   5.592789   5.565459   6.747683   8.104542
    17  O    1.644316   3.752104   3.602489   6.105176   7.864324
    18  O    1.659025   5.702431   3.620180   6.735566   8.160904
    19  O    3.726469   1.685258   4.716757   5.052300   6.907925
    20  O    5.852809   1.628912   5.870689   3.795144   5.451962
    21  O    5.328403   1.632465   3.948255   4.688572   6.552618
    22  H    6.788698   4.243429   7.463627   2.719487   3.303751
    23  H    8.209644   6.632277   7.780287   2.851661   0.958596
    24  H    6.775111   3.606638   4.800694   2.805635   4.084040
    25  H    3.140124   5.763070   2.237235   6.758628   8.214211
    26  H    6.041251   5.852345   2.249742   6.066049   7.309377
    27  H    3.238768   3.535524   2.223160   6.072050   7.908664
    28  H    5.948773   2.211088   6.191465   3.157688   4.667390
    29  H    4.936439   2.214984   3.152288   5.087110   6.961508
    30  H    4.479501   2.276012   5.502313   5.814457   7.644306
    31  H    2.256267   6.553563   4.443710   7.292467   8.574444
    32  H    2.250083   5.591667   6.088655   6.439881   7.680537
    33  H    2.256993   2.984167   3.976283   5.714819   7.529826
                   11         12         13         14         15
    11  O    0.000000
    12  O    3.236829   0.000000
    13  O    6.545202   7.785362   0.000000
    14  O    5.266977   6.325270   2.751319   0.000000
    15  O    4.936401   7.122348   2.707745   2.609775   0.000000
    16  O    7.827499   6.667123   5.368582   5.458374   7.188368
    17  O    6.518832   6.140478   3.821672   2.901476   5.145673
    18  O    7.327068   7.334009   2.891997   4.032334   5.193412
    19  O    5.341980   4.411327   5.710511   3.590809   5.822939
    20  O    3.807107   2.721952   7.279392   5.038517   6.437405
    21  O    3.933965   4.694647   5.427173   2.841665   4.278414
    22  H    3.973948   0.963831   8.720439   7.267119   8.076549
    23  H    3.771579   3.985466   8.902462   8.380138   7.915701
    24  H    0.961088   3.853764   6.382710   4.873786   4.503236
    25  H    6.860419   7.715260   0.973518   3.131893   3.571358
    26  H    5.174718   7.545984   2.962228   3.508497   0.962942
    27  H    5.866997   6.462279   2.865404   0.973615   3.468947
    28  H    3.537252   1.784946   7.574338   5.579087   6.785720
    29  H    4.333987   5.343196   4.577446   1.925587   3.525045
    30  H    6.025115   4.947531   6.469587   4.208720   6.539900
    31  H    8.022502   7.915915   3.543939   4.981239   5.958229
    32  H    7.706943   6.202419   6.058074   5.990371   7.672065
    33  H    6.121690   5.498320   4.522625   3.029732   5.398410
                   16         17         18         19         20
    16  O    0.000000
    17  O    2.792870   0.000000
    18  O    2.675284   2.584790   0.000000
    19  O    4.528007   2.715521   5.081343   0.000000
    20  O    6.691906   5.210987   7.170014   2.741902   0.000000
    21  O    6.629097   4.285834   6.171630   2.734104   2.665328
    22  H    7.256201   6.939497   8.136081   5.122408   3.308856
    23  H    8.960854   8.783435   8.961134   7.860963   6.321871
    24  H    8.100719   6.477196   7.441704   5.247810   3.751561
    25  H    4.533737   3.357345   1.958128   5.555320   7.338474
    26  H    7.657396   5.850237   5.533584   6.638812   7.138871
    27  H    4.714433   2.043692   3.471191   3.209022   5.152552
    28  H    6.690223   5.569867   7.305915   3.281001   0.981170
    29  H    6.353443   3.830391   5.565249   2.950372   3.538297
    30  H    5.108405   3.327736   5.829602   0.965300   2.939159
    31  H    2.737493   3.423422   0.964194   5.900585   7.965608
    32  H    0.963843   3.394014   3.461778   4.593783   6.496181
    33  H    3.204883   0.984266   3.484693   1.753555   4.351974
                   21         22         23         24         25
    21  O    0.000000
    22  H    5.536968   0.000000
    23  H    7.401671   4.043544   0.000000
    24  H    3.391103   4.618543   4.694728   0.000000
    25  H    5.739193   8.617860   8.958153   6.801750   0.000000
    26  H    5.126708   8.482838   7.856481   4.823921   3.829394
    27  H    3.242466   7.372851   8.782553   5.563140   2.962589
    28  H    3.428441   2.327817   5.531130   3.722667   7.580129
    29  H    0.977394   6.236576   7.806096   3.779278   4.948388
    30  H    3.089728   5.559415   8.591140   5.865596   6.327215
    31  H    7.101994   8.671140   9.334254   8.207337   2.574945
    32  H    6.810759   6.696665   8.524499   8.070301   5.261090
    33  H    3.689022   6.267838   8.473355   6.067625   4.175820
                   26         27         28         29         30
    26  H    0.000000
    27  H    4.310900   0.000000
    28  H    7.397151   5.693252   0.000000
    29  H    4.431523   2.434466   4.240954   0.000000
    30  H    7.399625   3.792065   3.599851   3.394820   0.000000
    31  H    6.194972   4.431226   8.031403   6.516034   6.638742
    32  H    8.125770   5.308515   6.375179   6.663758   5.165185
    33  H    6.165291   2.284331   4.757789   3.423150   2.360915
                   31         32         33
    31  H    0.000000
    32  H    3.491082   0.000000
    33  H    4.304034   3.580428   0.000000
 Stoichiometry    H12O16Si4Zr
 Framework group  C1[X(H12O16Si4Zr)]
 Deg. of freedom    93
 Full point group                 C1      NOp   1
 Largest Abelian subgroup         C1      NOp   1
 Largest concise Abelian subgroup C1      NOp   1
                         Standard orientation:                         
 ---------------------------------------------------------------------
 Center     Atomic      Atomic             Coordinates (Angstroms)
 Number     Number       Type             X           Y           Z
 ---------------------------------------------------------------------
      1         14           0        0.140728   -0.155950   -0.902168
      2          8           0        1.008578    1.219987   -1.000006
      3          8           0       -0.600920   -0.257267    0.588466
      4          8           0        1.140771   -1.448065   -1.113287
      5          8           0       -1.164931   -0.185660   -1.861470
      6         14           0        2.693746   -1.739443   -0.636877
      7         14           0       -0.495522   -0.326298    2.237477
      8         14           0        2.145360    2.122140   -0.200473
      9         40           0       -2.844138    0.019941   -0.751386
     10          8           0       -4.306180   -0.019199   -2.005774
     11          8           0       -2.870603    1.721299    0.161595
     12          8           0       -3.225637   -1.474549    0.532500
     13          8           0        3.560953    2.011283   -1.017672
     14          8           0        2.255154    1.571586    1.363780
     15          8           0        1.656185    3.678094   -0.055651
     16          8           0        3.011856   -3.328241   -0.919409
     17          8           0        2.897974   -1.221194    0.910211
     18          8           0        3.797090   -0.833422   -1.481935
     19          8           0        0.717442   -1.463999    2.510331
     20          8           0       -1.928199   -0.820847    2.834315
     21          8           0       -0.099717    1.117641    2.888107
     22          1           0       -3.980095   -2.073683    0.560846
     23          1           0       -5.030129    0.265037   -2.566143
     24          1           0       -2.535732    2.303738    0.848847
     25          1           0        3.800159    1.118203   -1.322511
     26          1           0        1.559765    4.190020   -0.865523
     27          1           0        2.774290    0.750784    1.432399
     28          1           0       -2.531770   -1.183707    2.151139
     29          1           0        0.739376    1.486048    2.548257
     30          1           0        0.783082   -1.796154    3.414305
     31          1           0        4.175753   -1.248161   -2.265693
     32          1           0        2.252741   -3.903653   -1.066509
     33          1           0        2.179206   -1.451959    1.541797
 ---------------------------------------------------------------------
 Rotational constants (GHZ):           0.2639193           0.1386900           0.1349026
 General basis read from cards:  (5D, 7F)
 ======================================================================================================
                                       Pseudopotential Parameters
 ======================================================================================================
  Center     Atomic      Valence      Angular      Power
  Number     Number     Electrons     Momentum     of R      Exponent        Coefficient   SO-Coeffient
 ======================================================================================================
    1         14
                                   No pseudopotential on this center.
    2          8
                                   No pseudopotential on this center.
    3          8
                                   No pseudopotential on this center.
    4          8
                                   No pseudopotential on this center.
    5          8
                                   No pseudopotential on this center.
    6         14
                                   No pseudopotential on this center.
    7         14
                                   No pseudopotential on this center.
    8         14
                                   No pseudopotential on this center.
    9         40           12
                                      G and up 
                                                     2        1.0000000        0.00000000    0.00000000
                                      S - G
                                                     2        8.6365280      150.24299400    0.00000000
                                                     2        3.7176390       18.78003600    0.00000000
                                      P - G
                                                     2        7.6267280       33.19279100    0.00000000
                                                     2        7.4532070       66.38903900    0.00000000
                                                     2        3.3583890        4.62072600    0.00000000
                                                     2        3.2297380        9.26027000    0.00000000
                                      D - G
                                                     2        5.9380860       13.99338300    0.00000000
                                                     2        5.8255440       20.99588200    0.00000000
                                                     2        2.2050190        2.28516600    0.00000000
                                                     2        2.2062920        3.44126000    0.00000000
                                      F - G
                                                     2        4.8002150       -5.23932000    0.00000000
                                                     2        4.7989920       -6.98742400    0.00000000
   10          8
                                   No pseudopotential on this center.
   11          8
                                   No pseudopotential on this center.
   12          8
                                   No pseudopotential on this center.
   13          8
                                   No pseudopotential on this center.
   14          8
                                   No pseudopotential on this center.
   15          8
                                   No pseudopotential on this center.
   16          8
                                   No pseudopotential on this center.
   17          8
                                   No pseudopotential on this center.
   18          8
                                   No pseudopotential on this center.
   19          8
                                   No pseudopotential on this center.
   20          8
                                   No pseudopotential on this center.
   21          8
                                   No pseudopotential on this center.
   22          1
                                   No pseudopotential on this center.
   23          1
                                   No pseudopotential on this center.
   24          1
                                   No pseudopotential on this center.
   25          1
                                   No pseudopotential on this center.
   26          1
                                   No pseudopotential on this center.
   27          1
                                   No pseudopotential on this center.
   28          1
                                   No pseudopotential on this center.
   29          1
                                   No pseudopotential on this center.
   30          1
                                   No pseudopotential on this center.
   31          1
                                   No pseudopotential on this center.
   32          1
                                   No pseudopotential on this center.
   33          1
                                   No pseudopotential on this center.
 ======================================================================================================
 There are   570 symmetry adapted cartesian basis functions of A   symmetry.
 There are   524 symmetry adapted basis functions of A   symmetry.
   524 basis functions,  1074 primitive gaussians,   570 cartesian basis functions
   104 alpha electrons      104 beta electrons
       nuclear repulsion energy      3040.9170515586 Hartrees.
 NAtoms=   33 NActive=   33 NUniq=   33 SFac= 1.00D+00 NAtFMM=   60 NAOKFM=F Big=F
 Integral buffers will be    131072 words long.
 Raffenetti 2 integral format.
 Two-electron integral symmetry is turned on.
 Nuclear repulsion after empirical dispersion term =     3040.8697404198 Hartrees.
 One-electron integrals computed using PRISM.
 PrsmSu:  requested number of processors reduced to:   4 ShMem   1 Linda.
   1 Symmetry operations used in ECPInt.
 ECPInt:  NShTT=   13203 NPrTT=   78401 LenC2=   11916 LenP2D=   45258.
 LDataN:  DoStor=T MaxTD1= 8 Len=  415
 Number of processors reduced to  13 by ecpmxn.
 NBasis=   524 RedAO= T EigKep=  2.50D-05  NBF=   524
 NBsUse=   524 1.00D-06 EigRej= -1.00D+00 NBFU=   524
 Defaulting to unpruned grid for atomic number  40.
 ExpMin= 1.01D-02 ExpMax= 1.61D+04 ExpMxC= 2.43D+03 IAcc=3 IRadAn=         5 AccDes= 0.00D+00
 Harris functional with IExCor=  402 and IRadAn=       5 diagonalized for initial guess.
 HarFok:  IExCor=  402 AccDes= 0.00D+00 IRadAn=         5 IDoV= 1 UseB2=F ITyADJ=14
 ICtDFT=  3500011 ScaDFX=  1.000000  1.000000  1.000000  1.000000
 Defaulting to unpruned grid for atomic number  40.
 FoFCou: FMM=F IPFlag=           0 FMFlag=      100000 FMFlg1=           0
         NFxFlg=           0 DoJE=T BraDBF=F KetDBF=T FulRan=T
         wScrn=  0.000000 ICntrl=       500 IOpCl=  0 I1Cent=   200000004 NGrid=           0
         NMat0=    1 NMatS0=      1 NMatT0=    0 NMatD0=    1 NMtDS0=    0 NMtDT0=    0
 Petite list used in FoFCou.
 Requested convergence on RMS density matrix=1.00D-08 within 128 cycles.
 Requested convergence on MAX density matrix=1.00D-06.
 Requested convergence on             energy=1.00D-06.
 No special actions if energy rises.
 Defaulting to unpruned grid for atomic number  40.
 Defaulting to unpruned grid for atomic number  40.
 Defaulting to unpruned grid for atomic number  40.
 Defaulting to unpruned grid for atomic number  40.
 Defaulting to unpruned grid for atomic number  40.
 Defaulting to unpruned grid for atomic number  40.
 Defaulting to unpruned grid for atomic number  40.
 Defaulting to unpruned grid for atomic number  40.
 Defaulting to unpruned grid for atomic number  40.
 Defaulting to unpruned grid for atomic number  40.
 Defaulting to unpruned grid for atomic number  40.
 Defaulting to unpruned grid for atomic number  40.
 Defaulting to unpruned grid for atomic number  40.
 Defaulting to unpruned grid for atomic number  40.
 Defaulting to unpruned grid for atomic number  40.
 Defaulting to unpruned grid for atomic number  40.
 SCF Done:  E(RB3LYP) =  -2416.94339597     A.U. after   14 cycles
            NFock= 14  Conv=0.46D-08     -V/T= 2.0184

 **********************************************************************

            Population analysis using the SCF Density.

 **********************************************************************

 Orbital symmetries:
       Occupied  (A) (A) (A) (A) (A) (A) (A) (A) (A) (A) (A) (A)
                 (A) (A) (A) (A) (A) (A) (A) (A) (A) (A) (A) (A)
                 (A) (A) (A) (A) (A) (A) (A) (A) (A) (A) (A) (A)
                 (A) (A) (A) (A) (A) (A) (A) (A) (A) (A) (A) (A)
                 (A) (A) (A) (A) (A) (A) (A) (A) (A) (A) (A) (A)
                 (A) (A) (A) (A) (A) (A) (A) (A) (A) (A) (A) (A)
                 (A) (A) (A) (A) (A) (A) (A) (A) (A) (A) (A) (A)
                 (A) (A) (A) (A) (A) (A) (A) (A) (A) (A) (A) (A)
                 (A) (A) (A) (A) (A) (A) (A) (A)
       Virtual   (A) (A) (A) (A) (A) (A) (A) (A) (A) (A) (A) (A)
                 (A) (A) (A) (A) (A) (A) (A) (A) (A) (A) (A) (A)
                 (A) (A) (A) (A) (A) (A) (A) (A) (A) (A) (A) (A)
                 (A) (A) (A) (A) (A) (A) (A) (A) (A) (A) (A) (A)
                 (A) (A) (A) (A) (A) (A) (A) (A) (A) (A) (A) (A)
                 (A) (A) (A) (A) (A) (A) (A) (A) (A) (A) (A) (A)
                 (A) (A) (A) (A) (A) (A) (A) (A) (A) (A) (A) (A)
                 (A) (A) (A) (A) (A) (A) (A) (A) (A) (A) (A) (A)
                 (A) (A) (A) (A) (A) (A) (A) (A) (A) (A) (A) (A)
                 (A) (A) (A) (A) (A) (A) (A) (A) (A) (A) (A) (A)
                 (A) (A) (A) (A) (A) (A) (A) (A) (A) (A) (A) (A)
                 (A) (A) (A) (A) (A) (A) (A) (A) (A) (A) (A) (A)
                 (A) (A) (A) (A) (A) (A) (A) (A) (A) (A) (A) (A)
                 (A) (A) (A) (A) (A) (A) (A) (A) (A) (A) (A) (A)
                 (A) (A) (A) (A) (A) (A) (A) (A) (A) (A) (A) (A)
                 (A) (A) (A) (A) (A) (A) (A) (A) (A) (A) (A) (A)
                 (A) (A) (A) (A) (A) (A) (A) (A) (A) (A) (A) (A)
                 (A) (A) (A) (A) (A) (A) (A) (A) (A) (A) (A) (A)
                 (A) (A) (A) (A) (A) (A) (A) (A) (A) (A) (A) (A)
                 (A) (A) (A) (A) (A) (A) (A) (A) (A) (A) (A) (A)
                 (A) (A) (A) (A) (A) (A) (A) (A) (A) (A) (A) (A)
                 (A) (A) (A) (A) (A) (A) (A) (A) (A) (A) (A) (A)
                 (A) (A) (A) (A) (A) (A) (A) (A) (A) (A) (A) (A)
                 (A) (A) (A) (A) (A) (A) (A) (A) (A) (A) (A) (A)
                 (A) (A) (A) (A) (A) (A) (A) (A) (A) (A) (A) (A)
                 (A) (A) (A) (A) (A) (A) (A) (A) (A) (A) (A) (A)
                 (A) (A) (A) (A) (A) (A) (A) (A) (A) (A) (A) (A)
                 (A) (A) (A) (A) (A) (A) (A) (A) (A) (A) (A) (A)
                 (A) (A) (A) (A) (A) (A) (A) (A) (A) (A) (A) (A)
                 (A) (A) (A) (A) (A) (A) (A) (A) (A) (A) (A) (A)
                 (A) (A) (A) (A) (A) (A) (A) (A) (A) (A) (A) (A)
                 (A) (A) (A) (A) (A) (A) (A) (A) (A) (A) (A) (A)
                 (A) (A) (A) (A) (A) (A) (A) (A) (A) (A) (A) (A)
                 (A) (A) (A) (A) (A) (A) (A) (A) (A) (A) (A) (A)
                 (A) (A) (A) (A) (A) (A) (A) (A) (A) (A) (A) (A)
 The electronic state is 1-A.
 Alpha  occ. eigenvalues --  -66.23585 -66.23282 -66.22320 -66.21892 -19.18953
 Alpha  occ. eigenvalues --  -19.18845 -19.18140 -19.17715 -19.17305 -19.17244
 Alpha  occ. eigenvalues --  -19.16747 -19.16465 -19.16204 -19.15912 -19.15757
 Alpha  occ. eigenvalues --  -19.15315 -19.15140 -19.14919 -19.14896 -19.14534
 Alpha  occ. eigenvalues --   -5.37648  -5.37188  -5.36371  -5.35943  -3.73644
 Alpha  occ. eigenvalues --   -3.73612  -3.73540  -3.73240  -3.73163  -3.73057
 Alpha  occ. eigenvalues --   -3.72437  -3.72331  -3.72196  -3.71944  -3.71884
 Alpha  occ. eigenvalues --   -3.71855  -2.12451  -1.28829  -1.28522  -1.28162
 Alpha  occ. eigenvalues --   -1.06750  -1.05503  -1.04554  -1.03460  -1.02968
 Alpha  occ. eigenvalues --   -1.02401  -1.01581  -1.01037  -1.00450  -1.00184
 Alpha  occ. eigenvalues --   -0.99849  -0.99553  -0.97886  -0.96986  -0.96121
 Alpha  occ. eigenvalues --   -0.95532  -0.62850  -0.61229  -0.60177  -0.57089
 Alpha  occ. eigenvalues --   -0.55950  -0.55316  -0.53657  -0.53455  -0.52614
 Alpha  occ. eigenvalues --   -0.52356  -0.51284  -0.50639  -0.50454  -0.49971
 Alpha  occ. eigenvalues --   -0.49250  -0.46020  -0.44176  -0.43869  -0.42945
 Alpha  occ. eigenvalues --   -0.42593  -0.42269  -0.41789  -0.40844  -0.40319
 Alpha  occ. eigenvalues --   -0.39192  -0.39016  -0.38449  -0.37831  -0.37555
 Alpha  occ. eigenvalues --   -0.37314  -0.37041  -0.36636  -0.36180  -0.35949
 Alpha  occ. eigenvalues --   -0.35765  -0.35616  -0.35215  -0.35125  -0.34546
 Alpha  occ. eigenvalues --   -0.34272  -0.33941  -0.33453  -0.33173  -0.32848
 Alpha  occ. eigenvalues --   -0.32512  -0.32422  -0.32156  -0.31906
 Alpha virt. eigenvalues --   -0.04110  -0.02779  -0.02191  -0.01965  -0.01501
 Alpha virt. eigenvalues --   -0.01284  -0.00406   0.00252   0.00639   0.01244
 Alpha virt. eigenvalues --    0.01368   0.01536   0.02355   0.02624   0.02890
 Alpha virt. eigenvalues --    0.03182   0.03399   0.03533   0.03731   0.03934
 Alpha virt. eigenvalues --    0.04223   0.04632   0.04927   0.05758   0.06337
 Alpha virt. eigenvalues --    0.06606   0.07134   0.07632   0.07992   0.08415
 Alpha virt. eigenvalues --    0.08724   0.08897   0.09255   0.09584   0.09831
 Alpha virt. eigenvalues --    0.10342   0.10485   0.10772   0.11009   0.11312
 Alpha virt. eigenvalues --    0.11639   0.12042   0.12356   0.12639   0.13032
 Alpha virt. eigenvalues --    0.13592   0.13964   0.14178   0.14384   0.14838
 Alpha virt. eigenvalues --    0.15114   0.15505   0.15741   0.16180   0.16454
 Alpha virt. eigenvalues --    0.16809   0.17247   0.17639   0.17772   0.18317
 Alpha virt. eigenvalues --    0.18440   0.18777   0.19311   0.19848   0.20282
 Alpha virt. eigenvalues --    0.20524   0.20819   0.21421   0.21478   0.22027
 Alpha virt. eigenvalues --    0.22186   0.22598   0.22973   0.23305   0.23537
 Alpha virt. eigenvalues --    0.23992   0.24230   0.24409   0.24771   0.25034
 Alpha virt. eigenvalues --    0.25231   0.25522   0.26046   0.26264   0.26686
 Alpha virt. eigenvalues --    0.26915   0.27098   0.27264   0.27829   0.28231
 Alpha virt. eigenvalues --    0.28314   0.28646   0.28896   0.29294   0.29477
 Alpha virt. eigenvalues --    0.29729   0.29959   0.30693   0.30889   0.31158
 Alpha virt. eigenvalues --    0.31390   0.31613   0.31900   0.32433   0.32503
 Alpha virt. eigenvalues --    0.33076   0.33211   0.33729   0.34112   0.34781
 Alpha virt. eigenvalues --    0.34885   0.35375   0.35708   0.36623   0.37144
 Alpha virt. eigenvalues --    0.37372   0.37616   0.37970   0.38753   0.38878
 Alpha virt. eigenvalues --    0.39371   0.40088   0.40854   0.41651   0.41771
 Alpha virt. eigenvalues --    0.42475   0.42750   0.43066   0.43698   0.44042
 Alpha virt. eigenvalues --    0.44762   0.45274   0.45462   0.46130   0.46774
 Alpha virt. eigenvalues --    0.47322   0.47859   0.49416   0.49645   0.50392
 Alpha virt. eigenvalues --    0.51060   0.51547   0.52308   0.53011   0.54514
 Alpha virt. eigenvalues --    0.55092   0.55397   0.55981   0.57122   0.57352
 Alpha virt. eigenvalues --    0.57652   0.58620   0.60594   0.60917   0.61195
 Alpha virt. eigenvalues --    0.61981   0.63451   0.64034   0.64396   0.64689
 Alpha virt. eigenvalues --    0.66486   0.66958   0.67360   0.68383   0.69399
 Alpha virt. eigenvalues --    0.70357   0.71492   0.72177   0.72622   0.73452
 Alpha virt. eigenvalues --    0.74395   0.74593   0.75534   0.77798   0.78072
 Alpha virt. eigenvalues --    0.80292   0.81682   0.82525   0.83315   0.84217
 Alpha virt. eigenvalues --    0.86157   0.86716   0.88246   0.90010   0.93220
 Alpha virt. eigenvalues --    0.94082   0.95274   0.95578   0.96878   0.97611
 Alpha virt. eigenvalues --    0.98582   0.99481   1.00215   1.00510   1.02157
 Alpha virt. eigenvalues --    1.02636   1.04435   1.05093   1.06018   1.06131
 Alpha virt. eigenvalues --    1.08073   1.08568   1.09422   1.10198   1.11779
 Alpha virt. eigenvalues --    1.12522   1.14202   1.15387   1.15795   1.18419
 Alpha virt. eigenvalues --    1.19170   1.19510   1.20869   1.21231   1.21801
 Alpha virt. eigenvalues --    1.22507   1.23038   1.23285   1.23660   1.24349
 Alpha virt. eigenvalues --    1.24493   1.25649   1.25913   1.26146   1.26789
 Alpha virt. eigenvalues --    1.26976   1.27429   1.28239   1.29385   1.29603
 Alpha virt. eigenvalues --    1.29848   1.30393   1.31271   1.31440   1.31804
 Alpha virt. eigenvalues --    1.32236   1.32531   1.33377   1.34358   1.34735
 Alpha virt. eigenvalues --    1.35006   1.35816   1.36502   1.36654   1.37644
 Alpha virt. eigenvalues --    1.38275   1.38793   1.39659   1.40350   1.41317
 Alpha virt. eigenvalues --    1.42922   1.43246   1.44099   1.45212   1.46334
 Alpha virt. eigenvalues --    1.47561   1.48445   1.50582   1.52381   1.54259
 Alpha virt. eigenvalues --    1.55289   1.56500   1.58191   1.58952   1.59597
 Alpha virt. eigenvalues --    1.60302   1.61280   1.61777   1.62670   1.62964
 Alpha virt. eigenvalues --    1.64229   1.65786   1.66194   1.66962   1.67658
 Alpha virt. eigenvalues --    1.68113   1.69219   1.69799   1.70185   1.70925
 Alpha virt. eigenvalues --    1.71437   1.71706   1.72840   1.73381   1.73896
 Alpha virt. eigenvalues --    1.74080   1.74686   1.75195   1.75885   1.76618
 Alpha virt. eigenvalues --    1.77384   1.78343   1.78448   1.78823   1.79220
 Alpha virt. eigenvalues --    1.80343   1.80915   1.81083   1.82148   1.83278
 Alpha virt. eigenvalues --    1.84261   1.85358   1.85511   1.86584   1.87318
 Alpha virt. eigenvalues --    1.87957   1.89211   1.90123   1.91520   1.92187
 Alpha virt. eigenvalues --    1.92355   1.92960   1.94509   1.94754   1.96243
 Alpha virt. eigenvalues --    1.97143   1.97950   1.98343   1.99034   1.99808
 Alpha virt. eigenvalues --    2.00701   2.01886   2.03339   2.04210   2.04574
 Alpha virt. eigenvalues --    2.04888   2.05724   2.07504   2.09146   2.09416
 Alpha virt. eigenvalues --    2.09580   2.12491   2.14275   2.14600   2.15978
 Alpha virt. eigenvalues --    2.17023   2.19564   2.20445   2.22795   2.23778
 Alpha virt. eigenvalues --    2.28233   2.32423   2.33965   2.38256   2.38904
 Alpha virt. eigenvalues --    2.39665   2.40392   2.41464   2.42358   2.42917
 Alpha virt. eigenvalues --    2.44182   2.45032   2.47088   2.47620   2.49153
 Alpha virt. eigenvalues --    2.49448   2.51952   2.53485   2.54929   2.55169
 Alpha virt. eigenvalues --    2.58239   2.59184   2.59492   2.60173   2.60369
 Alpha virt. eigenvalues --    2.60996   2.61236   2.61760   2.62217   2.63198
 Alpha virt. eigenvalues --    2.63767   2.64995   2.65582   2.66131   2.66360
 Alpha virt. eigenvalues --    2.67396   2.67994   2.71227   2.72073   2.72760
 Alpha virt. eigenvalues --    2.72908   2.73451   2.75108   2.75688   2.76491
 Alpha virt. eigenvalues --    2.77334   2.77960   2.78190   2.79951   2.82291
 Alpha virt. eigenvalues --    2.82999   2.84209   2.84485   2.85548   2.86515
 Alpha virt. eigenvalues --    2.88061   2.89749   2.91334   2.92560   2.97139
 Alpha virt. eigenvalues --    3.00256   3.05640   3.18285   3.28451   3.46302
 Alpha virt. eigenvalues --    3.48099   3.49143   3.50304   3.53984   3.56496
 Alpha virt. eigenvalues --    3.60012   3.61081   3.62661   3.64055   3.72090
 Alpha virt. eigenvalues --    3.77765   4.01936   4.13589   6.95283  30.90460
          Condensed to atoms (all electrons):
               1          2          3          4          5          6
     1  Si  24.609844  -1.110601  -2.790784  -1.593434  -4.022388  -0.244053
     2  O   -1.110601  10.118801   0.478523  -0.161310   0.199517  -0.136245
     3  O   -2.790784   0.478523  11.263562   0.406833   1.104434   0.066032
     4  O   -1.593434  -0.161310   0.406833   9.852268   0.541225  -0.568392
     5  O   -4.022388   0.199517   1.104434   0.541225  10.523648   0.004857
     6  Si  -0.244053  -0.136245   0.066032  -0.568392   0.004857  13.697958
     7  Si  -1.794959  -0.173621  -1.832169   0.005716   0.314352   0.047214
     8  Si  -0.210845  -0.572977  -0.121433   0.037910   0.042470  -0.209129
     9  Zr  -1.481403   0.058251  -0.543451  -0.004787   0.280054   0.030688
    10  O   -0.022482   0.001259   0.013968   0.000766  -0.030754  -0.000834
    11  O    0.088182  -0.003120  -0.077381  -0.002382  -0.042234  -0.000481
    12  O    0.048241   0.004807  -0.047115  -0.010685  -0.022459  -0.002267
    13  O   -0.021140   0.237016   0.002101  -0.005240  -0.002359   0.065578
    14  O   -0.029695   0.389772   0.114332  -0.020654  -0.013074   0.010456
    15  O    0.013131   0.087820   0.006055   0.002469  -0.004357  -0.010801
    16  O    0.071485   0.015788  -0.007444   0.275335  -0.014566  -0.528691
    17  O   -0.060157  -0.035108   0.029967   0.253325   0.017710  -0.360217
    18  O   -0.080850  -0.005862  -0.012166   0.179753   0.005845  -0.305473
    19  O    0.160093  -0.008279   0.518347   0.017854  -0.009111  -0.006995
    20  O    0.230412  -0.005403   0.456705  -0.005223  -0.032962   0.000707
    21  O   -0.013218   0.044917   0.225749  -0.006487  -0.006651  -0.000526
    22  H   -0.000675  -0.000006   0.005116   0.000204   0.000244  -0.000176
    23  H   -0.001609   0.000001  -0.000121   0.000002   0.000062   0.000017
    24  H   -0.012386   0.000469   0.003983   0.000031   0.000429   0.000041
    25  H   -0.000884  -0.005669  -0.000127   0.002873  -0.000009   0.004878
    26  H   -0.008980  -0.015455   0.000406  -0.000093   0.000154  -0.000108
    27  H    0.010943  -0.033117  -0.014125  -0.004868  -0.000106   0.005935
    28  H   -0.006905  -0.000142  -0.003808   0.000326   0.001211  -0.000463
    29  H   -0.004638  -0.006858  -0.026671   0.000916  -0.000144  -0.000352
    30  H   -0.002190  -0.000112  -0.010495  -0.000182   0.000149   0.000019
    31  H   -0.001253  -0.002590   0.000041  -0.023126   0.000099   0.079133
    32  H    0.000480  -0.000176   0.000414   0.001586   0.000189   0.030495
    33  H   -0.018644   0.001343  -0.004868  -0.011725  -0.000279   0.052015
               7          8          9         10         11         12
     1  Si  -1.794959  -0.210845  -1.481403  -0.022482   0.088182   0.048241
     2  O   -0.173621  -0.572977   0.058251   0.001259  -0.003120   0.004807
     3  O   -1.832169  -0.121433  -0.543451   0.013968  -0.077381  -0.047115
     4  O    0.005716   0.037910  -0.004787   0.000766  -0.002382  -0.010685
     5  O    0.314352   0.042470   0.280054  -0.030754  -0.042234  -0.022459
     6  Si   0.047214  -0.209129   0.030688  -0.000834  -0.000481  -0.002267
     7  Si  16.639926   0.166099   0.314786   0.006509  -0.051314   0.005863
     8  Si   0.166099  12.912494   0.098364  -0.001017   0.001912   0.002536
     9  Zr   0.314786   0.098364  12.100911  -0.106024   0.162664   0.086267
    10  O    0.006509  -0.001017  -0.106024   8.828039  -0.049542  -0.047902
    11  O   -0.051314   0.001912   0.162664  -0.049542   8.378286  -0.017546
    12  O    0.005863   0.002536   0.086267  -0.047902  -0.017546   8.594403
    13  O    0.010552  -0.165683  -0.006509  -0.000001  -0.000087  -0.000007
    14  O   -0.138931  -0.498431  -0.038973  -0.000007   0.000126   0.000039
    15  O   -0.016468  -0.087045  -0.012068  -0.000005   0.000350   0.000026
    16  O   -0.002650  -0.014915  -0.017358  -0.000001   0.000010   0.000065
    17  O   -0.072620   0.116769  -0.017144  -0.000019  -0.000097   0.000080
    18  O   -0.005004   0.112133  -0.002041   0.000000  -0.000023  -0.000021
    19  O   -0.759539  -0.031246  -0.078906  -0.000084   0.000184  -0.003485
    20  O   -0.874162   0.006080  -0.089001  -0.000887   0.004888  -0.031193
    21  O   -0.211188  -0.039556   0.002659  -0.000019   0.008442   0.000976
    22  H   -0.000698   0.000030  -0.027060  -0.001976   0.000175   0.266499
    23  H   -0.000419   0.000033  -0.079117   0.341931  -0.000046  -0.000061
    24  H    0.004108  -0.000889  -0.057740   0.000573   0.315359  -0.002285
    25  H   -0.000762   0.042997  -0.000593  -0.000000   0.000000   0.000000
    26  H    0.000755   0.062411  -0.000059   0.000000   0.000056   0.000000
    27  H    0.015877   0.089841   0.003812   0.000000  -0.000007  -0.000002
    28  H    0.028334  -0.000344   0.004512   0.000615  -0.001236   0.034096
    29  H    0.072634   0.023003  -0.002039  -0.000000  -0.000404   0.000013
    30  H    0.055049   0.000234   0.002159  -0.000000   0.000006   0.000111
    31  H    0.000467  -0.003577   0.000089  -0.000000   0.000000   0.000000
    32  H   -0.000533   0.000094   0.001210   0.000000  -0.000000  -0.000001
    33  H    0.022416  -0.002987   0.000577   0.000000   0.000005   0.000012
              13         14         15         16         17         18
     1  Si  -0.021140  -0.029695   0.013131   0.071485  -0.060157  -0.080850
     2  O    0.237016   0.389772   0.087820   0.015788  -0.035108  -0.005862
     3  O    0.002101   0.114332   0.006055  -0.007444   0.029967  -0.012166
     4  O   -0.005240  -0.020654   0.002469   0.275335   0.253325   0.179753
     5  O   -0.002359  -0.013074  -0.004357  -0.014566   0.017710   0.005845
     6  Si   0.065578   0.010456  -0.010801  -0.528691  -0.360217  -0.305473
     7  Si   0.010552  -0.138931  -0.016468  -0.002650  -0.072620  -0.005004
     8  Si  -0.165683  -0.498431  -0.087045  -0.014915   0.116769   0.112133
     9  Zr  -0.006509  -0.038973  -0.012068  -0.017358  -0.017144  -0.002041
    10  O   -0.000001  -0.000007  -0.000005  -0.000001  -0.000019   0.000000
    11  O   -0.000087   0.000126   0.000350   0.000010  -0.000097  -0.000023
    12  O   -0.000007   0.000039   0.000026   0.000065   0.000080  -0.000021
    13  O    8.631380   0.007355  -0.079302   0.003324  -0.024402  -0.044569
    14  O    0.007355   8.984386   0.086438   0.006204  -0.059576  -0.026748
    15  O   -0.079302   0.086438   8.613352  -0.000220   0.003472   0.002060
    16  O    0.003324   0.006204  -0.000220   8.948217  -0.121242  -0.074891
    17  O   -0.024402  -0.059576   0.003472  -0.121242   8.997739   0.171056
    18  O   -0.044569  -0.026748   0.002060  -0.074891   0.171056   8.898055
    19  O    0.000369   0.019134   0.000611  -0.001845  -0.012461  -0.000585
    20  O   -0.000027  -0.003286   0.000305  -0.000004   0.001751   0.000042
    21  O   -0.001018   0.044210   0.004850  -0.000062  -0.011308  -0.000086
    22  H   -0.000000  -0.000001   0.000000  -0.000000   0.000001  -0.000000
    23  H   -0.000000  -0.000000   0.000000   0.000000  -0.000000   0.000000
    24  H    0.000005  -0.000056  -0.000018   0.000000   0.000003   0.000000
    25  H    0.227604  -0.008528   0.006783   0.000179   0.000381   0.010894
    26  H   -0.007408   0.003505   0.233126   0.000000  -0.000013   0.000009
    27  H   -0.002313   0.188144   0.001659  -0.000182   0.013155   0.001030
    28  H    0.000000   0.000001  -0.000002  -0.000003  -0.000011   0.000000
    29  H    0.000573   0.001961   0.000169  -0.000010  -0.000244   0.000027
    30  H   -0.000002  -0.000429   0.000000  -0.000065   0.000172  -0.000008
    31  H    0.002133  -0.000079  -0.000011  -0.001510   0.001835   0.215498
    32  H   -0.000002  -0.000012   0.000000   0.231337  -0.002975   0.004492
    33  H    0.000659   0.000331  -0.000152   0.000217   0.211778   0.003088
              19         20         21         22         23         24
     1  Si   0.160093   0.230412  -0.013218  -0.000675  -0.001609  -0.012386
     2  O   -0.008279  -0.005403   0.044917  -0.000006   0.000001   0.000469
     3  O    0.518347   0.456705   0.225749   0.005116  -0.000121   0.003983
     4  O    0.017854  -0.005223  -0.006487   0.000204   0.000002   0.000031
     5  O   -0.009111  -0.032962  -0.006651   0.000244   0.000062   0.000429
     6  Si  -0.006995   0.000707  -0.000526  -0.000176   0.000017   0.000041
     7  Si  -0.759539  -0.874162  -0.211188  -0.000698  -0.000419   0.004108
     8  Si  -0.031246   0.006080  -0.039556   0.000030   0.000033  -0.000889
     9  Zr  -0.078906  -0.089001   0.002659  -0.027060  -0.079117  -0.057740
    10  O   -0.000084  -0.000887  -0.000019  -0.001976   0.341931   0.000573
    11  O    0.000184   0.004888   0.008442   0.000175  -0.000046   0.315359
    12  O   -0.003485  -0.031193   0.000976   0.266499  -0.000061  -0.002285
    13  O    0.000369  -0.000027  -0.001018  -0.000000  -0.000000   0.000005
    14  O    0.019134  -0.003286   0.044210  -0.000001  -0.000000  -0.000056
    15  O    0.000611   0.000305   0.004850   0.000000   0.000000  -0.000018
    16  O   -0.001845  -0.000004  -0.000062  -0.000000   0.000000   0.000000
    17  O   -0.012461   0.001751  -0.011308   0.000001  -0.000000   0.000003
    18  O   -0.000585   0.000042  -0.000086  -0.000000   0.000000   0.000000
    19  O    9.056789   0.048407  -0.073136   0.000100  -0.000000   0.000073
    20  O    0.048407   8.780838   0.102005   0.003967  -0.000007  -0.000742
    21  O   -0.073136   0.102005   8.608786   0.000001  -0.000000   0.000242
    22  H    0.000100   0.003967   0.000001   0.355929   0.000014  -0.000005
    23  H   -0.000000  -0.000007  -0.000000   0.000014   0.366588   0.000008
    24  H    0.000073  -0.000742   0.000242  -0.000005   0.000008   0.360656
    25  H   -0.000033   0.000001  -0.000003  -0.000000   0.000000  -0.000000
    26  H   -0.000000  -0.000001   0.000011  -0.000000  -0.000000  -0.000000
    27  H   -0.001829   0.000063  -0.002942   0.000000   0.000000   0.000000
    28  H   -0.005984   0.230225  -0.001713  -0.002508   0.000001   0.000040
    29  H   -0.006207   0.004162   0.207821   0.000000  -0.000000   0.000027
    30  H    0.218781  -0.007775  -0.003252   0.000000  -0.000000   0.000000
    31  H    0.000018  -0.000000  -0.000000   0.000000  -0.000000  -0.000000
    32  H    0.000021  -0.000002   0.000000   0.000000  -0.000000   0.000000
    33  H    0.014060   0.000160   0.002731  -0.000000   0.000000  -0.000000
              25         26         27         28         29         30
     1  Si  -0.000884  -0.008980   0.010943  -0.006905  -0.004638  -0.002190
     2  O   -0.005669  -0.015455  -0.033117  -0.000142  -0.006858  -0.000112
     3  O   -0.000127   0.000406  -0.014125  -0.003808  -0.026671  -0.010495
     4  O    0.002873  -0.000093  -0.004868   0.000326   0.000916  -0.000182
     5  O   -0.000009   0.000154  -0.000106   0.001211  -0.000144   0.000149
     6  Si   0.004878  -0.000108   0.005935  -0.000463  -0.000352   0.000019
     7  Si  -0.000762   0.000755   0.015877   0.028334   0.072634   0.055049
     8  Si   0.042997   0.062411   0.089841  -0.000344   0.023003   0.000234
     9  Zr  -0.000593  -0.000059   0.003812   0.004512  -0.002039   0.002159
    10  O   -0.000000   0.000000   0.000000   0.000615  -0.000000  -0.000000
    11  O    0.000000   0.000056  -0.000007  -0.001236  -0.000404   0.000006
    12  O    0.000000   0.000000  -0.000002   0.034096   0.000013   0.000111
    13  O    0.227604  -0.007408  -0.002313   0.000000   0.000573  -0.000002
    14  O   -0.008528   0.003505   0.188144   0.000001   0.001961  -0.000429
    15  O    0.006783   0.233126   0.001659  -0.000002   0.000169   0.000000
    16  O    0.000179   0.000000  -0.000182  -0.000003  -0.000010  -0.000065
    17  O    0.000381  -0.000013   0.013155  -0.000011  -0.000244   0.000172
    18  O    0.010894   0.000009   0.001030   0.000000   0.000027  -0.000008
    19  O   -0.000033  -0.000000  -0.001829  -0.005984  -0.006207   0.218781
    20  O    0.000001  -0.000001   0.000063   0.230225   0.004162  -0.007775
    21  O   -0.000003   0.000011  -0.002942  -0.001713   0.207821  -0.003252
    22  H   -0.000000  -0.000000   0.000000  -0.002508   0.000000   0.000000
    23  H    0.000000  -0.000000   0.000000   0.000001  -0.000000  -0.000000
    24  H   -0.000000  -0.000000   0.000000   0.000040   0.000027   0.000000
    25  H    0.304186  -0.000010  -0.000118  -0.000000  -0.000001   0.000000
    26  H   -0.000010   0.360274  -0.000053   0.000000   0.000011  -0.000000
    27  H   -0.000118  -0.000053   0.308913  -0.000000  -0.000346   0.000053
    28  H   -0.000000   0.000000  -0.000000   0.273171  -0.000020   0.000064
    29  H   -0.000001   0.000011  -0.000346  -0.000020   0.300050   0.000145
    30  H    0.000000  -0.000000   0.000053   0.000064   0.000145   0.331757
    31  H   -0.000330   0.000000   0.000010   0.000000   0.000000   0.000000
    32  H   -0.000001  -0.000000  -0.000000   0.000000  -0.000000   0.000000
    33  H   -0.000004   0.000000  -0.001492  -0.000003   0.000073  -0.000407
              31         32         33
     1  Si  -0.001253   0.000480  -0.018644
     2  O   -0.002590  -0.000176   0.001343
     3  O    0.000041   0.000414  -0.004868
     4  O   -0.023126   0.001586  -0.011725
     5  O    0.000099   0.000189  -0.000279
     6  Si   0.079133   0.030495   0.052015
     7  Si   0.000467  -0.000533   0.022416
     8  Si  -0.003577   0.000094  -0.002987
     9  Zr   0.000089   0.001210   0.000577
    10  O   -0.000000   0.000000   0.000000
    11  O    0.000000  -0.000000   0.000005
    12  O    0.000000  -0.000001   0.000012
    13  O    0.002133  -0.000002   0.000659
    14  O   -0.000079  -0.000012   0.000331
    15  O   -0.000011   0.000000  -0.000152
    16  O   -0.001510   0.231337   0.000217
    17  O    0.001835  -0.002975   0.211778
    18  O    0.215498   0.004492   0.003088
    19  O    0.000018   0.000021   0.014060
    20  O   -0.000000  -0.000002   0.000160
    21  O   -0.000000   0.000000   0.002731
    22  H    0.000000   0.000000  -0.000000
    23  H   -0.000000  -0.000000   0.000000
    24  H   -0.000000   0.000000  -0.000000
    25  H   -0.000330  -0.000001  -0.000004
    26  H    0.000000  -0.000000   0.000000
    27  H    0.000010  -0.000000  -0.001492
    28  H    0.000000   0.000000  -0.000003
    29  H    0.000000  -0.000000   0.000073
    30  H    0.000000   0.000000  -0.000407
    31  H    0.335206   0.000015  -0.000047
    32  H    0.000015   0.347952   0.000126
    33  H   -0.000047   0.000126   0.277930
 Mulliken charges:
               1
     1  Si   2.301364
     2  O   -1.361634
     3  O   -1.204412
     4  O   -1.160804
     5  O   -0.835196
     6  Si   2.279180
     7  Si   2.224382
     8  Si   2.244665
     9  Zr   1.417271
    10  O   -0.932108
    11  O   -0.714748
    12  O   -0.859004
    13  O   -0.828581
    14  O   -1.017913
    15  O   -0.852227
    16  O   -0.766499
    17  O   -1.041598
    18  O   -1.045657
    19  O   -1.055115
    20  O   -0.820045
    21  O   -0.882235
    22  H    0.400824
    23  H    0.372724
    24  H    0.388074
    25  H    0.416296
    26  H    0.371461
    27  H    0.422063
    28  H    0.450546
    29  H    0.436348
    30  H    0.416217
    31  H    0.397982
    32  H    0.385293
    33  H    0.453087
 Sum of Mulliken charges =  -0.00000
 Mulliken charges with hydrogens summed into heavy atoms:
               1
     1  Si   2.301364
     2  O   -1.361634
     3  O   -1.204412
     4  O   -1.160804
     5  O   -0.835196
     6  Si   2.279180
     7  Si   2.224382
     8  Si   2.244665
     9  Zr   1.417271
    10  O   -0.559384
    11  O   -0.326673
    12  O   -0.458180
    13  O   -0.412285
    14  O   -0.595850
    15  O   -0.480766
    16  O   -0.381206
    17  O   -0.588511
    18  O   -0.647676
    19  O   -0.638898
    20  O   -0.369499
    21  O   -0.445887
 Electronic spatial extent (au):  <R**2>=           8012.1177
 Charge=             -0.0000 electrons
 Dipole moment (field-independent basis, Debye):
    X=             -2.1331    Y=             -3.7072    Z=             -2.6112  Tot=              5.0112
 Quadrupole moment (field-independent basis, Debye-Ang):
   XX=           -156.3882   YY=           -155.9956   ZZ=           -161.2158
   XY=             -3.7035   XZ=              1.9889   YZ=             -7.6733
 Traceless Quadrupole moment (field-independent basis, Debye-Ang):
   XX=              1.4783   YY=              1.8710   ZZ=             -3.3493
   XY=             -3.7035   XZ=              1.9889   YZ=             -7.6733
 Octapole moment (field-independent basis, Debye-Ang**2):
  XXX=           -206.5013  YYY=            -17.4645  ZZZ=            -37.9109  XYY=            -58.5019
  XXY=            -35.2893  XXZ=            -71.1718  XZZ=             10.4595  YZZ=            -26.3870
  YYZ=            -30.5154  XYZ=              8.6363
 Hexadecapole moment (field-independent basis, Debye-Ang**3):
 XXXX=          -5282.6713 YYYY=          -2170.5091 ZZZZ=          -2119.0788 XXXY=              8.1216
 XXXZ=            130.6651 YYYX=             24.1086 YYYZ=            -90.8731 ZZZX=            162.6955
 ZZZY=           -106.8585 XXYY=          -1449.9763 XXZZ=          -1124.9752 YYZZ=           -706.7136
 XXYZ=             10.6417 YYXZ=            -31.2826 ZZXY=            -92.2078
 N-N= 3.040869740420D+03 E-N=-1.179362729413D+04  KE= 2.373162379377D+03
 PrsmSu:  requested number of processors reduced to:   2 ShMem   1 Linda.
 PrsmSu:  requested number of processors reduced to:  10 ShMem   1 Linda.
   1 Symmetry operations used in ECPInt.
 ECPInt:  NShTT=   13203 NPrTT=   78401 LenC2=   11916 LenP2D=   45258.
 LDataN:  DoStor=T MaxTD1= 9 Len=  602
 Number of processors reduced to  14 by ecpmxn.
 Calling FoFJK, ICntrl=      2127 FMM=F ISym2X=0 I1Cent= 0 IOpClX= 0 NMat=1 NMatS=1 NMatT=0.
 CoulSu:  requested number of processors reduced to:  10 ShMem   1 Linda.
 Defaulting to unpruned grid for atomic number  40.
 Defaulting to unpruned grid for atomic number  40.
 Defaulting to unpruned grid for atomic number  40.
 Defaulting to unpruned grid for atomic number  40.
 Defaulting to unpruned grid for atomic number  40.
 Defaulting to unpruned grid for atomic number  40.
 Defaulting to unpruned grid for atomic number  40.
 Defaulting to unpruned grid for atomic number  40.
 Defaulting to unpruned grid for atomic number  40.
 Defaulting to unpruned grid for atomic number  40.
 Defaulting to unpruned grid for atomic number  40.
 Defaulting to unpruned grid for atomic number  40.
 Defaulting to unpruned grid for atomic number  40.
 Defaulting to unpruned grid for atomic number  40.
 Defaulting to unpruned grid for atomic number  40.
 Defaulting to unpruned grid for atomic number  40.
 ***** Axes restored to original set *****
 -------------------------------------------------------------------
 Center     Atomic                   Forces (Hartrees/Bohr)
 Number     Number              X              Y              Z
 -------------------------------------------------------------------
      1       14          -0.002355956    0.000154142   -0.001437073
      2        8           0.000114044    0.000126553    0.000134056
      3        8          -0.000292983   -0.000157223   -0.001196897
      4        8           0.000177076   -0.000114486    0.000131363
      5        8          -0.000398589   -0.000035625    0.000784388
      6       14          -0.000185847    0.000032507    0.000046380
      7       14           0.001462636    0.000984076    0.002900264
      8       14          -0.000163200   -0.000124442    0.000021038
      9       40           0.001047584   -0.001611672   -0.000176967
     10        8           0.000262684   -0.000025305   -0.000225455
     11        8           0.000616055   -0.000102421   -0.000475530
     12        8           0.002653141    0.002179752   -0.000434292
     13        8           0.000054401   -0.000005585   -0.000003491
     14        8           0.000065138    0.000026047   -0.000036118
     15        8           0.000035682    0.000054192    0.000015580
     16        8           0.000019189   -0.000019873    0.000006130
     17        8           0.000017471   -0.000029100   -0.000088217
     18        8           0.000052336    0.000011927    0.000016091
     19        8          -0.000289125   -0.000136032   -0.000384638
     20        8          -0.003356362   -0.001623634    0.002895482
     21        8          -0.000218245   -0.000303866   -0.000437100
     22        1           0.000373512    0.000076526   -0.000667340
     23        1           0.000032804    0.000103914   -0.000042894
     24        1          -0.000102792    0.000078369    0.000105196
     25        1          -0.000013449    0.000016927    0.000000825
     26        1           0.000005811   -0.000013143   -0.000013672
     27        1          -0.000010979    0.000009030    0.000018764
     28        1           0.000303366    0.000481601   -0.001576154
     29        1          -0.000036747   -0.000031520    0.000061802
     30        1           0.000109449   -0.000038925   -0.000023358
     31        1          -0.000001106   -0.000000115    0.000000540
     32        1          -0.000008614    0.000013851   -0.000004744
     33        1           0.000031618    0.000023552    0.000086041
 -------------------------------------------------------------------
 Cartesian Forces:  Max     0.003356362 RMS     0.000806991

 GradGradGradGradGradGradGradGradGradGradGradGradGradGradGradGradGradGrad
 Berny optimization.
 FormGI is forming the generalized inverse of G from B-inverse, IUseBI=4.
 Internal  Forces:  Max     0.012705002 RMS     0.001718588
 Search for a local minimum.
 Step number   1 out of a maximum of  164
 All quantities printed in internal units (Hartrees-Bohrs-Radians)
 Mixed Optimization -- RFO/linear search
 Second derivative matrix not updated -- first step.
 ITU=  0
     Eigenvalues ---    0.00230   0.00230   0.00230   0.00562   0.03211
     Eigenvalues ---    0.03439   0.03520   0.03558   0.03586   0.03627
     Eigenvalues ---    0.03673   0.03711   0.03747   0.03753   0.03833
     Eigenvalues ---    0.03844   0.03910   0.03946   0.03957   0.04309
     Eigenvalues ---    0.04814   0.08140   0.08679   0.11039   0.11319
     Eigenvalues ---    0.11516   0.11815   0.11842   0.12054   0.12258
     Eigenvalues ---    0.12943   0.12968   0.13045   0.13243   0.14987
     Eigenvalues ---    0.15435   0.16000   0.16000   0.16000   0.16000
     Eigenvalues ---    0.16000   0.16000   0.16000   0.16000   0.16000
     Eigenvalues ---    0.16000   0.16000   0.16000   0.17756   0.18483
     Eigenvalues ---    0.19083   0.20145   0.20369   0.20384   0.21054
     Eigenvalues ---    0.21061   0.21266   0.21488   0.21864   0.22129
     Eigenvalues ---    0.22804   0.25000   0.25000   0.25000   0.36584
     Eigenvalues ---    0.37725   0.40032   0.40890   0.41311   0.41617
     Eigenvalues ---    0.42076   0.42599   0.43032   0.43450   0.43522
     Eigenvalues ---    0.44473   0.44608   0.45420   0.45878   0.46010
     Eigenvalues ---    0.50565   0.51158   0.51894   0.52645   0.52665
     Eigenvalues ---    0.54349   0.54581   0.54655   0.54657   0.54845
     Eigenvalues ---    0.55240   0.557761000.000001000.000001000.00000
     Eigenvalues --- 1000.000001000.000001000.000001000.000001000.00000
     Eigenvalues --- 1000.000001000.000001000.000001000.000001000.00000
     Eigenvalues --- 1000.000001000.000001000.000001000.000001000.00000
     Eigenvalues --- 1000.000001000.000001000.000001000.000001000.00000
     Eigenvalues --- 1000.000001000.000001000.000001000.000001000.00000
     Eigenvalues --- 1000.000001000.000001000.000001000.000001000.00000
     Eigenvalues --- 1000.000001000.000001000.000001000.000001000.00000
     Eigenvalues --- 1000.000001000.000001000.000001000.000001000.00000
     Eigenvalues --- 1000.000001000.000001000.000001000.000001000.00000
     Eigenvalues --- 1000.000001000.000001000.000001000.000001000.00000
     Eigenvalues --- 1000.000001000.000001000.000001000.000001000.00000
     Eigenvalues --- 1000.000001000.000001000.000001000.00000
 RFO step:  Lambda=-3.20225788D-03 EMin= 2.30000000D-03
 Linear search not attempted -- first point.
 Iteration  1 RMS(Cart)=  0.12564569 RMS(Int)=  0.00326565
 Iteration  2 RMS(Cart)=  0.00552796 RMS(Int)=  0.00019693
 Iteration  3 RMS(Cart)=  0.00000956 RMS(Int)=  0.00019688
 Iteration  4 RMS(Cart)=  0.00000000 RMS(Int)=  0.00019688
 Iteration  1 RMS(Cart)=  0.00005046 RMS(Int)=  0.00002819
 Iteration  2 RMS(Cart)=  0.00003642 RMS(Int)=  0.00003089
 Iteration  3 RMS(Cart)=  0.00002629 RMS(Int)=  0.00003561
 Iteration  4 RMS(Cart)=  0.00001897 RMS(Int)=  0.00003997
 Iteration  5 RMS(Cart)=  0.00001369 RMS(Int)=  0.00004347
 Iteration  6 RMS(Cart)=  0.00000988 RMS(Int)=  0.00004613
 Iteration  7 RMS(Cart)=  0.00000713 RMS(Int)=  0.00004811
 Iteration  8 RMS(Cart)=  0.00000515 RMS(Int)=  0.00004957
 Iteration  9 RMS(Cart)=  0.00000372 RMS(Int)=  0.00005064
 Iteration 10 RMS(Cart)=  0.00000268 RMS(Int)=  0.00005141
 Iteration 11 RMS(Cart)=  0.00000193 RMS(Int)=  0.00005197
 Iteration 12 RMS(Cart)=  0.00000140 RMS(Int)=  0.00005238
 Iteration 13 RMS(Cart)=  0.00000101 RMS(Int)=  0.00005268
 Iteration 14 RMS(Cart)=  0.00000073 RMS(Int)=  0.00005289
 Variable       Old X    -DE/DX   Delta X   Delta X   Delta X     New X
                                 (Linear)    (Quad)   (Total)
    R1        3.07970  -0.00013   0.00000  -0.00029  -0.00029   3.07941
    R2        3.15210   0.00097   0.00000   0.00240   0.00240   3.15450
    R3        3.11330  -0.00015   0.00000  -0.00035  -0.00035   3.11295
    R4        3.06222  -0.00073   0.00000   0.00685   0.00711   3.06934
    R5        5.65754   0.00520   0.00000   0.01810   0.01811   5.67565
    R6        3.13114   0.00005   0.00000   0.00012   0.00012   3.13125
    R7        3.12526   0.00356   0.00000   0.00839   0.00839   3.13365
    R8        3.11868   0.00008   0.00000   0.00019   0.00019   3.11887
    R9        3.82374  -0.00077   0.00000   0.01488   0.01466   3.83840
   R10        3.10818  -0.00001   0.00000  -0.00002  -0.00002   3.10817
   R11        3.10731  -0.00001   0.00000  -0.00003  -0.00003   3.10728
   R12        3.13510  -0.00005   0.00000  -0.00012  -0.00012   3.13498
   R13        3.18468  -0.00005   0.00000  -0.00013  -0.00013   3.18455
   R14        3.07820  -0.00251   0.00000  -0.00542  -0.00542   3.07278
   R15        3.08491   0.00021   0.00000   0.00046   0.00046   3.08537
   R16        3.09593  -0.00003   0.00000  -0.00007  -0.00007   3.09585
   R17        3.14061  -0.00001   0.00000  -0.00001  -0.00001   3.14060
[...]
 Alpha virt. eigenvalues --    3.59907   3.60991   3.61608   3.63999   3.71416
 Alpha virt. eigenvalues --    3.75812   4.00085   4.14613   6.87648  30.89777
          Condensed to atoms (all electrons):
               1          2          3          4          5          6
     1  Si  24.318091  -1.056414  -2.697280  -1.592730  -3.963896  -0.250709
     2  O   -1.056414  10.118363   0.453674  -0.149191   0.179478  -0.145672
     3  O   -2.697280   0.453674  11.177200   0.400160   1.085924   0.069086
     4  O   -1.592730  -0.149191   0.400160   9.856241   0.537501  -0.588428
     5  O   -3.963896   0.179478   1.085924   0.537501  10.514012   0.008476
     6  Si  -0.250709  -0.145672   0.069086  -0.588428   0.008476  13.736317
     7  Si  -1.736138  -0.180280  -1.772870   0.008663   0.309686   0.051548
     8  Si  -0.210679  -0.583016  -0.122980   0.035044   0.044171  -0.207380
     9  Zr  -1.428697   0.053334  -0.535417  -0.005639   0.272411   0.030532
    10  O   -0.023047   0.001321   0.013649   0.000780  -0.030162  -0.000875
    11  O    0.085940  -0.002518  -0.078599  -0.002538  -0.040233  -0.000518
    12  O    0.046821   0.004509  -0.043805  -0.010084  -0.022604  -0.002001
    13  O   -0.019789   0.242299   0.002152  -0.004875  -0.002529   0.065239
    14  O   -0.031191   0.390138   0.113582  -0.019004  -0.013632   0.010178
    15  O    0.014386   0.091403   0.005713   0.002174  -0.004225  -0.010554
    16  O    0.071695   0.016367  -0.007647   0.282389  -0.014966  -0.543055
    17  O   -0.059330  -0.030275   0.028199   0.253869   0.016692  -0.359826
    18  O   -0.080574  -0.005344  -0.011498   0.180246   0.005709  -0.305233
    19  O    0.161693  -0.009730   0.509951   0.016703  -0.009029  -0.006100
    20  O    0.224473  -0.004289   0.450862  -0.005456  -0.032527   0.000535
    21  O   -0.016944   0.043777   0.207578  -0.006688  -0.005673  -0.000749
    22  H   -0.000494  -0.000005   0.004724   0.000169   0.000164  -0.000165
    23  H   -0.001494   0.000001  -0.000127   0.000002   0.000080   0.000018
    24  H   -0.012339   0.000429   0.004050   0.000036   0.000377   0.000030
    25  H   -0.000927  -0.005879  -0.000138   0.002858   0.000002   0.004886
    26  H   -0.008976  -0.015380   0.000395  -0.000094   0.000154  -0.000114
    27  H    0.010256  -0.032901  -0.013422  -0.004888  -0.000080   0.006191
    28  H   -0.006693  -0.000156  -0.002052   0.000333   0.001110  -0.000460
    29  H   -0.003742  -0.006948  -0.026250   0.000934  -0.000154  -0.000338
    30  H   -0.002322  -0.000121  -0.010626  -0.000175   0.000155   0.000206
    31  H   -0.001376  -0.002634   0.000037  -0.023207   0.000111   0.079085
    32  H    0.000594  -0.000181   0.000396   0.001464   0.000195   0.030613
    33  H   -0.018451   0.001208  -0.004603  -0.011634  -0.000254   0.051198
               7          8          9         10         11         12
     1  Si  -1.736138  -0.210679  -1.428697  -0.023047   0.085940   0.046821
     2  O   -0.180280  -0.583016   0.053334   0.001321  -0.002518   0.004509
     3  O   -1.772870  -0.122980  -0.535417   0.013649  -0.078599  -0.043805
     4  O    0.008663   0.035044  -0.005639   0.000780  -0.002538  -0.010084
     5  O    0.309686   0.044171   0.272411  -0.030162  -0.040233  -0.022604
     6  Si   0.051548  -0.207380   0.030532  -0.000875  -0.000518  -0.002001
     7  Si  16.477399   0.168752   0.307589   0.006072  -0.048160  -0.003296
     8  Si   0.168752  12.942093   0.097516  -0.000994   0.001737   0.002373
     9  Zr   0.307589   0.097516  12.064442  -0.112577   0.167907   0.098636
    10  O    0.006072  -0.000994  -0.112577   8.838797  -0.049927  -0.047897
    11  O   -0.048160   0.001737   0.167907  -0.049927   8.366140  -0.016511
    12  O   -0.003296   0.002373   0.098636  -0.047897  -0.016511   8.560124
    13  O    0.010474  -0.174337  -0.006694  -0.000001  -0.000087  -0.000007
    14  O   -0.139466  -0.501676  -0.038334  -0.000010   0.000214   0.000057
    15  O   -0.016877  -0.094378  -0.012108  -0.000006   0.000341   0.000021
    16  O   -0.002976  -0.014814  -0.016969  -0.000001   0.000010   0.000060
    17  O   -0.071285   0.114936  -0.017586  -0.000018  -0.000099   0.000047
    18  O   -0.005081   0.111421  -0.002116   0.000000  -0.000023  -0.000019
    19  O   -0.752095  -0.032063  -0.078531  -0.000071   0.000064  -0.003377
    20  O   -0.858309   0.006476  -0.089416  -0.000761   0.004499  -0.021947
    21  O   -0.174383  -0.039395   0.005264  -0.000017   0.007544   0.001209
    22  H   -0.000417   0.000033  -0.026937  -0.001948   0.000180   0.267073
    23  H   -0.000377   0.000034  -0.080102   0.343326   0.000040   0.000008
    24  H    0.004141  -0.000904  -0.055169   0.000667   0.312854  -0.002230
    25  H   -0.000763   0.042944  -0.000579  -0.000000   0.000000   0.000000
    26  H    0.000772   0.062067  -0.000023   0.000000   0.000056   0.000000
    27  H    0.015186   0.089869   0.003698   0.000000  -0.000007  -0.000001
    28  H    0.025374  -0.000345   0.004450   0.000548  -0.001169   0.034001
    29  H    0.070936   0.023146  -0.002061  -0.000000  -0.000365   0.000005
    30  H    0.054676   0.000261   0.002229  -0.000000   0.000006   0.000101
    31  H    0.000470  -0.003479   0.000094  -0.000000   0.000000   0.000000
    32  H   -0.000513   0.000096   0.001141   0.000000  -0.000000  -0.000001
    33  H    0.021976  -0.003079   0.000496   0.000000   0.000005   0.000012
              13         14         15         16         17         18
     1  Si  -0.019789  -0.031191   0.014386   0.071695  -0.059330  -0.080574
     2  O    0.242299   0.390138   0.091403   0.016367  -0.030275  -0.005344
     3  O    0.002152   0.113582   0.005713  -0.007647   0.028199  -0.011498
     4  O   -0.004875  -0.019004   0.002174   0.282389   0.253869   0.180246
     5  O   -0.002529  -0.013632  -0.004225  -0.014966   0.016692   0.005709
     6  Si   0.065239   0.010178  -0.010554  -0.543055  -0.359826  -0.305233
     7  Si   0.010474  -0.139466  -0.016877  -0.002976  -0.071285  -0.005081
     8  Si  -0.174337  -0.501676  -0.094378  -0.014814   0.114936   0.111421
     9  Zr  -0.006694  -0.038334  -0.012108  -0.016969  -0.017586  -0.002116
    10  O   -0.000001  -0.000010  -0.000006  -0.000001  -0.000018   0.000000
    11  O   -0.000087   0.000214   0.000341   0.000010  -0.000099  -0.000023
    12  O   -0.000007   0.000057   0.000021   0.000060   0.000047  -0.000019
    13  O    8.631747   0.008516  -0.078772   0.003367  -0.024464  -0.044640
    14  O    0.008516   8.981804   0.087568   0.006133  -0.057680  -0.026301
    15  O   -0.078772   0.087568   8.616141  -0.000221   0.003390   0.002111
    16  O    0.003367   0.006133  -0.000221   8.955397  -0.119560  -0.074523
    17  O   -0.024464  -0.057680   0.003390  -0.119560   8.989890   0.169757
    18  O   -0.044640  -0.026301   0.002111  -0.074523   0.169757   8.896803
    19  O    0.000356   0.019062   0.000653  -0.002079  -0.013558  -0.000543
    20  O   -0.000028  -0.003200   0.000311   0.000015   0.001762   0.000038
    21  O   -0.000993   0.043013   0.004995  -0.000080  -0.011253  -0.000065
    22  H   -0.000000  -0.000001   0.000000  -0.000000   0.000001  -0.000000
    23  H   -0.000000  -0.000000   0.000000   0.000000   0.000000   0.000000
    24  H    0.000005  -0.000059  -0.000019   0.000000   0.000003   0.000000
    25  H    0.227657  -0.008562   0.006710   0.000163   0.000436   0.011009
    26  H   -0.007483   0.003448   0.233299   0.000000  -0.000012   0.000009
    27  H   -0.002423   0.188824   0.001667  -0.000180   0.012687   0.000979
    28  H    0.000000  -0.000004  -0.000002  -0.000003  -0.000011   0.000000
    29  H    0.000586   0.002133   0.000189  -0.000010  -0.000270   0.000027
    30  H   -0.000002  -0.000451   0.000000  -0.000072   0.000256  -0.000007
    31  H    0.002090  -0.000076  -0.000011  -0.001418   0.001830   0.215699
    32  H   -0.000002  -0.000012   0.000000   0.231168  -0.002956   0.004449
    33  H    0.000684   0.000425  -0.000156   0.000132   0.212767   0.003114
              19         20         21         22         23         24
     1  Si   0.161693   0.224473  -0.016944  -0.000494  -0.001494  -0.012339
     2  O   -0.009730  -0.004289   0.043777  -0.000005   0.000001   0.000429
     3  O    0.509951   0.450862   0.207578   0.004724  -0.000127   0.004050
     4  O    0.016703  -0.005456  -0.006688   0.000169   0.000002   0.000036
     5  O   -0.009029  -0.032527  -0.005673   0.000164   0.000080   0.000377
     6  Si  -0.006100   0.000535  -0.000749  -0.000165   0.000018   0.000030
     7  Si  -0.752095  -0.858309  -0.174383  -0.000417  -0.000377   0.004141
     8  Si  -0.032063   0.006476  -0.039395   0.000033   0.000034  -0.000904
     9  Zr  -0.078531  -0.089416   0.005264  -0.026937  -0.080102  -0.055169
    10  O   -0.000071  -0.000761  -0.000017  -0.001948   0.343326   0.000667
    11  O    0.000064   0.004499   0.007544   0.000180   0.000040   0.312854
    12  O   -0.003377  -0.021947   0.001209   0.267073   0.000008  -0.002230
    13  O    0.000356  -0.000028  -0.000993  -0.000000  -0.000000   0.000005
    14  O    0.019062  -0.003200   0.043013  -0.000001  -0.000000  -0.000059
    15  O    0.000653   0.000311   0.004995   0.000000   0.000000  -0.000019
    16  O   -0.002079   0.000015  -0.000080  -0.000000   0.000000   0.000000
    17  O   -0.013558   0.001762  -0.011253   0.000001   0.000000   0.000003
    18  O   -0.000543   0.000038  -0.000065  -0.000000   0.000000   0.000000
    19  O    9.064894   0.046658  -0.076064   0.000070  -0.000000   0.000085
    20  O    0.046658   8.772624   0.097498   0.003532  -0.000006  -0.000877
    21  O   -0.076064   0.097498   8.597460   0.000004  -0.000000   0.000375
    22  H    0.000070   0.003532   0.000004   0.356923   0.000012  -0.000006
    23  H   -0.000000  -0.000006  -0.000000   0.000012   0.366830   0.000008
    24  H    0.000085  -0.000877   0.000375  -0.000006   0.000008   0.360890
    25  H   -0.000034   0.000001  -0.000005  -0.000000   0.000000  -0.000000
    26  H   -0.000000  -0.000001   0.000011  -0.000000  -0.000000  -0.000000
    27  H   -0.001585   0.000059  -0.002653   0.000000   0.000000   0.000000
    28  H   -0.005960   0.232661  -0.001608  -0.002188   0.000000   0.000041
    29  H   -0.005875   0.004383   0.208145   0.000000  -0.000000   0.000024
    30  H    0.218380  -0.007371  -0.003124   0.000000  -0.000000   0.000000
    31  H    0.000019  -0.000000  -0.000000   0.000000  -0.000000  -0.000000
    32  H    0.000028  -0.000002   0.000000   0.000000  -0.000000   0.000000
    33  H    0.013829   0.000183   0.002711  -0.000000  -0.000000  -0.000000
              25         26         27         28         29         30
     1  Si  -0.000927  -0.008976   0.010256  -0.006693  -0.003742  -0.002322
     2  O   -0.005879  -0.015380  -0.032901  -0.000156  -0.006948  -0.000121
     3  O   -0.000138   0.000395  -0.013422  -0.002052  -0.026250  -0.010626
     4  O    0.002858  -0.000094  -0.004888   0.000333   0.000934  -0.000175
     5  O    0.000002   0.000154  -0.000080   0.001110  -0.000154   0.000155
     6  Si   0.004886  -0.000114   0.006191  -0.000460  -0.000338   0.000206
     7  Si  -0.000763   0.000772   0.015186   0.025374   0.070936   0.054676
     8  Si   0.042944   0.062067   0.089869  -0.000345   0.023146   0.000261
     9  Zr  -0.000579  -0.000023   0.003698   0.004450  -0.002061   0.002229
    10  O   -0.000000   0.000000   0.000000   0.000548  -0.000000  -0.000000
    11  O    0.000000   0.000056  -0.000007  -0.001169  -0.000365   0.000006
    12  O    0.000000   0.000000  -0.000001   0.034001   0.000005   0.000101
    13  O    0.227657  -0.007483  -0.002423   0.000000   0.000586  -0.000002
    14  O   -0.008562   0.003448   0.188824  -0.000004   0.002133  -0.000451
    15  O    0.006710   0.233299   0.001667  -0.000002   0.000189   0.000000
    16  O    0.000163   0.000000  -0.000180  -0.000003  -0.000010  -0.000072
    17  O    0.000436  -0.000012   0.012687  -0.000011  -0.000270   0.000256
    18  O    0.011009   0.000009   0.000979   0.000000   0.000027  -0.000007
    19  O   -0.000034  -0.000000  -0.001585  -0.005960  -0.005875   0.218380
    20  O    0.000001  -0.000001   0.000059   0.232661   0.004383  -0.007371
    21  O   -0.000005   0.000011  -0.002653  -0.001608   0.208145  -0.003124
    22  H   -0.000000  -0.000000   0.000000  -0.002188   0.000000   0.000000
    23  H    0.000000  -0.000000   0.000000   0.000000  -0.000000  -0.000000
    24  H   -0.000000  -0.000000   0.000000   0.000041   0.000024   0.000000
    25  H    0.303848  -0.000009  -0.000116  -0.000000  -0.000001   0.000000
    26  H   -0.000009   0.360345  -0.000053   0.000000   0.000012  -0.000000
    27  H   -0.000116  -0.000053   0.309384   0.000000  -0.000409   0.000054
    28  H   -0.000000   0.000000   0.000000   0.276658  -0.000019   0.000069
    29  H   -0.000001   0.000012  -0.000409  -0.000019   0.298662   0.000137
    30  H    0.000000  -0.000000   0.000054   0.000069   0.000137   0.330215
    31  H   -0.000294   0.000000   0.000010   0.000000   0.000000   0.000000
    32  H   -0.000001  -0.000000  -0.000000   0.000000  -0.000000   0.000000
    33  H   -0.000004   0.000000  -0.001516  -0.000003   0.000072  -0.000315
              31         32         33
     1  Si  -0.001376   0.000594  -0.018451
     2  O   -0.002634  -0.000181   0.001208
     3  O    0.000037   0.000396  -0.004603
     4  O   -0.023207   0.001464  -0.011634
     5  O    0.000111   0.000195  -0.000254
     6  Si   0.079085   0.030613   0.051198
     7  Si   0.000470  -0.000513   0.021976
     8  Si  -0.003479   0.000096  -0.003079
     9  Zr   0.000094   0.001141   0.000496
    10  O   -0.000000   0.000000   0.000000
    11  O    0.000000  -0.000000   0.000005
    12  O    0.000000  -0.000001   0.000012
    13  O    0.002090  -0.000002   0.000684
    14  O   -0.000076  -0.000012   0.000425
    15  O   -0.000011   0.000000  -0.000156
    16  O   -0.001418   0.231168   0.000132
    17  O    0.001830  -0.002956   0.212767
    18  O    0.215699   0.004449   0.003114
    19  O    0.000019   0.000028   0.013829
    20  O   -0.000000  -0.000002   0.000183
    21  O   -0.000000   0.000000   0.002711
    22  H    0.000000   0.000000  -0.000000
    23  H   -0.000000  -0.000000  -0.000000
    24  H   -0.000000   0.000000  -0.000000
    25  H   -0.000294  -0.000001  -0.000004
    26  H    0.000000  -0.000000   0.000000
    27  H    0.000010  -0.000000  -0.001516
    28  H    0.000000   0.000000  -0.000003
    29  H    0.000000  -0.000000   0.000072
    30  H    0.000000   0.000000  -0.000315
    31  H    0.334866   0.000016  -0.000047
    32  H    0.000016   0.347641   0.000125
    33  H   -0.000047   0.000125   0.278448
 Mulliken charges:
               1
     1  Si   2.290284
     2  O   -1.365369
     3  O   -1.200015
     4  O   -1.154935
     5  O   -0.836444
     6  Si   2.278042
     7  Si   2.229573
     8  Si   2.246553
     9  Zr   1.399216
    10  O   -0.936850
    11  O   -0.706784
    12  O   -0.841276
    13  O   -0.828046
    14  O   -1.015437
    15  O   -0.853744
    16  O   -0.768320
    17  O   -1.038339
    18  O   -1.045401
    19  O   -1.055747
    20  O   -0.822380
    21  O   -0.879887
    22  H    0.399275
    23  H    0.371748
    24  H    0.387589
    25  H    0.416799
    26  H    0.371577
    27  H    0.421368
    28  H    0.445428
    29  H    0.437052
    30  H    0.417840
    31  H    0.398215
    32  H    0.385742
    33  H    0.452677
 Sum of Mulliken charges =  -0.00000
 Mulliken charges with hydrogens summed into heavy atoms:
               1
     1  Si   2.290284
     2  O   -1.365369
     3  O   -1.200015
     4  O   -1.154935
     5  O   -0.836444
     6  Si   2.278042
     7  Si   2.229573
     8  Si   2.246553
     9  Zr   1.399216
    10  O   -0.565101
    11  O   -0.319196
    12  O   -0.442001
    13  O   -0.411247
    14  O   -0.594069
    15  O   -0.482167
    16  O   -0.382578
    17  O   -0.585662
    18  O   -0.647186
    19  O   -0.637907
    20  O   -0.376953
    21  O   -0.442835
 Electronic spatial extent (au):  <R**2>=           8033.8832
 Charge=             -0.0000 electrons
 Dipole moment (field-independent basis, Debye):
    X=             -2.0265    Y=             -3.7664    Z=             -2.5436  Tot=              4.9762
 Quadrupole moment (field-independent basis, Debye-Ang):
   XX=           -156.7715   YY=           -156.3312   ZZ=           -160.7278
   XY=             -3.7380   XZ=              2.0954   YZ=             -7.6873
 Traceless Quadrupole moment (field-independent basis, Debye-Ang):
   XX=              1.1720   YY=              1.6123   ZZ=             -2.7843
   XY=             -3.7380   XZ=              2.0954   YZ=             -7.6873
 Octapole moment (field-independent basis, Debye-Ang**2):
  XXX=           -206.2009  YYY=            -18.7655  ZZZ=            -38.5317  XYY=            -57.7174
  XXY=            -36.4644  XXZ=            -71.2529  XZZ=              9.7192  YZZ=            -26.5575
  YYZ=            -30.2495  XYZ=              8.0431
 Hexadecapole moment (field-independent basis, Debye-Ang**3):
 XXXX=          -5311.1930 YYYY=          -2173.2677 ZZZZ=          -2121.3402 XXXY=             20.1459
 XXXZ=            134.9915 YYYX=             18.0531 YYYZ=            -91.1712 ZZZX=            163.1407
 ZZZY=           -105.7017 XXYY=          -1458.4142 XXZZ=          -1123.0164 YYZZ=           -707.0862
 XXYZ=             12.7309 YYXZ=            -27.3509 ZZXY=            -94.0932
 N-N= 3.037696057159D+03 E-N=-1.178720824748D+04  KE= 2.373126608359D+03
 1\1\GINC-GRA611\FOpt\RB3LYP\Gen\H12O16Si4Zr1\SARASHS\29-Jul-2020\0\\#n
  B3LYP/Gen Pseudo=cards EmpiricalDispersion=GD3 Opt=modredundant\\Titl
 e\\0,1\Si,-0.1366679735,0.1728503229,-0.8789141613\O,-1.0029633293,-1.
 2027455712,-0.9877424169\O,0.5925410312,0.2686388433,0.621403878\O,-1.
 1362139893,1.4646489762,-1.0915416628\O,1.1805467255,0.204838472,-1.82
 2368339\Si,-2.7016819104,1.7438647231,-0.6493613563\Si,0.4419590906,0.
 3161751998,2.2709794829\Si,-2.152105216,-2.1180114237,-0.2225877176\Zr
 ,2.8511400002,-0.0228536518,-0.6906519218\O,4.3153928752,-0.0004841158
 ,-1.9418557028\O,2.8669503511,-1.7306824093,0.2136646683\O,3.267988719
 8,1.4671025389,0.5908761011\O,-3.5503282613,-2.0053680528,-1.068470757
 5\O,-2.2970895157,-1.5832245776,1.3444991687\O,-1.6576318196,-3.672421
 6377,-0.0808393843\O,-3.0209864158,3.3334716659,-0.9256727874\O,-2.938
 8783704,1.2118896856,0.8882571421\O,-3.7803017927,0.8394270828,-1.5271
 931715\O,-0.7860674537,1.4404688937,2.526734462\O,1.8535041064,0.81485
 81408,2.9108567292\O,0.0413520405,-1.1414593904,2.8860633478\H,4.03956
 64754,2.0445603657,0.6083565028\H,5.0355402046,-0.2722028023,-2.512958
 3378\H,2.507238072,-2.2982314595,0.9013069486\H,-3.784524068,-1.111105
 786,-1.3739292183\H,-1.5346098095,-4.1752266153,-0.8928318704\H,-2.822
 1464798,-0.7661074229,1.4100676314\H,2.4770094129,1.1792637983,2.24572
 05226\H,-0.7967762261,-1.5025787353,2.5352946422\H,-0.8555396904,1.786
 0620428,3.4253576439\H,-4.143906919,1.2588273465,-2.3155797705\H,-2.26
 18189811,3.9129350517,-1.0556036845\H,-2.2331508839,1.4374805017,1.535
 8433891\\Version=ES64L-G16RevB.01\State=1-A\HF=-2416.9436992\RMSD=3.12
 7e-09\RMSF=2.788e-04\Dipole=0.814563,1.4867662,-0.9792536\Quadrupole=0
 .8926212,1.1298636,-2.0224848,-2.8390538,-1.5239417,5.7089159\PG=C01 [
 X(H12O16Si4Zr1)]\\@


      LET US REMEMBER, PLEASE, THAT THE SEARCH FOR THE CONSTITUTION
      OF THE WORLD IS ONE OF THE GREATEST AND NOBLEST PROBLEMS PRESENTED 
      BY NATURE.

                                                  -- GALILEO
 Job cpu time:       1 days  2 hours 23 minutes 37.3 seconds.
 Elapsed time:       0 days  2 hours  3 minutes  7.2 seconds.
 File lengths (MBytes):  RWF=    167 Int=      0 D2E=      0 Chk=     21 Scr=      1
 Normal termination of Gaussian 16 at Wed Jul 29 22:09:20 2020.
