 Entering Gaussian System, Link 0=g16
 Initial command:
 /opt/software/gaussian/g16.b01/l1.exe "/localscratch/sarashs.36567448.0/Gau-15532.inp" -scrdir="/localscratch/sarashs.36567448.0/"
 Entering Link 1 = /opt/software/gaussian/g16.b01/l1.exe PID=     15533.
  
 Copyright (c) 1988-2017, Gaussian, Inc.  All Rights Reserved.
  
 This is part of the Gaussian(R) 16 program.  It is based on
 the Gaussian(R) 09 system (copyright 2009, Gaussian, Inc.),
 the Gaussian(R) 03 system (copyright 2003, Gaussian, Inc.),
 the Gaussian(R) 98 system (copyright 1998, Gaussian, Inc.),
 the Gaussian(R) 94 system (copyright 1995, Gaussian, Inc.),
 the Gaussian 92(TM) system (copyright 1992, Gaussian, Inc.),
 the Gaussian 90(TM) system (copyright 1990, Gaussian, Inc.),
 the Gaussian 88(TM) system (copyright 1988, Gaussian, Inc.),
 the Gaussian 86(TM) system (copyright 1986, Carnegie Mellon
 University), and the Gaussian 82(TM) system (copyright 1983,
 Carnegie Mellon University). Gaussian is a federally registered
 trademark of Gaussian, Inc.
  
 This software contains proprietary and confidential information,
 including trade secrets, belonging to Gaussian, Inc.
  
 This software is provided under written license and may be
 used, copied, transmitted, or stored only in accord with that
 written license.
  
 The following legend is applicable only to US Government
 contracts under FAR:
  
                    RESTRICTED RIGHTS LEGEND
  
 Use, reproduction and disclosure by the US Government is
 subject to restrictions as set forth in subparagraphs (a)
 and (c) of the Commercial Computer Software - Restricted
 Rights clause in FAR 52.227-19.
  
 Gaussian, Inc.
 340 Quinnipiac St., Bldg. 40, Wallingford CT 06492
  
  
 ---------------------------------------------------------------
 Warning -- This program may not be used in any manner that
 competes with the business of Gaussian, Inc. or will provide
 assistance to any competitor of Gaussian, Inc.  The licensee
 of this program is prohibited from giving any competitor of
 Gaussian, Inc. access to this program.  By using this program,
 the user acknowledges that Gaussian, Inc. is engaged in the
 business of creating and licensing software in the field of
 computational chemistry and represents and warrants to the
 licensee that it is not a competitor of Gaussian, Inc. and that
 it will not use this program in any manner prohibited above.
 ---------------------------------------------------------------
  

 Cite this work as:
 Gaussian 16, Revision B.01,
 M. J. Frisch, G. W. Trucks, H. B. Schlegel, G. E. Scuseria, 
 M. A. Robb, J. R. Cheeseman, G. Scalmani, V. Barone, 
 G. A. Petersson, H. Nakatsuji, X. Li, M. Caricato, A. V. Marenich, 
 J. Bloino, B. G. Janesko, R. Gomperts, B. Mennucci, H. P. Hratchian, 
 J. V. Ortiz, A. F. Izmaylov, J. L. Sonnenberg, D. Williams-Young, 
 F. Ding, F. Lipparini, F. Egidi, J. Goings, B. Peng, A. Petrone, 
 T. Henderson, D. Ranasinghe, V. G. Zakrzewski, J. Gao, N. Rega, 
 G. Zheng, W. Liang, M. Hada, M. Ehara, K. Toyota, R. Fukuda, 
 J. Hasegawa, M. Ishida, T. Nakajima, Y. Honda, O. Kitao, H. Nakai, 
 T. Vreven, K. Throssell, J. A. Montgomery, Jr., J. E. Peralta, 
 F. Ogliaro, M. J. Bearpark, J. J. Heyd, E. N. Brothers, K. N. Kudin, 
 V. N. Staroverov, T. A. Keith, R. Kobayashi, J. Normand, 
 K. Raghavachari, A. P. Rendell, J. C. Burant, S. S. Iyengar, 
 J. Tomasi, M. Cossi, J. M. Millam, M. Klene, C. Adamo, R. Cammi, 
 J. W. Ochterski, R. L. Martin, K. Morokuma, O. Farkas, 
 J. B. Foresman, and D. J. Fox, Gaussian, Inc., Wallingford CT, 2016.
 
 ******************************************
 Gaussian 16:  ES64L-G16RevB.01 20-Dec-2017
                29-Jul-2020 
 ******************************************
 %NProcShared=16
 Will use up to   16 processors via shared memory.
 ------------------------------------------------------------------
 #n B3LYP/Gen Pseudo=cards EmpiricalDispersion=GD3 Opt=modredundant
 ------------------------------------------------------------------
 1/18=120,19=15,26=3,38=1/1,3;
 2/9=110,12=2,17=6,18=5,40=1/2;
 3/5=7,11=2,16=1,17=8,25=1,30=1,71=1,74=-5,124=31/1,2,3;
 4//1;
 5/5=2,38=5/2;
 6/7=2,8=2,9=2,10=2,28=1/1;
 7//1,2,3,16;
 1/18=20,19=15,26=3/3(2);
 2/9=110/2;
 99//99;
 2/9=110/2;
 3/5=7,6=1,11=2,16=1,17=8,25=1,30=1,71=1,74=-5,82=7,124=31/1,2,3;
 4/5=5,16=3,69=1/1;
 5/5=2,38=5/2;
 7//1,2,3,16;
 1/18=20,19=15,26=3/3(-5);
 2/9=110/2;
 6/7=2,8=2,9=2,10=2,19=2,28=1/1;
 99/9=1/99;
 -----
 Title
 -----
 Symbolic Z-matrix:
 Charge =  0 Multiplicity = 1
 Si                   -0.13817   0.15907  -0.88672 
 O                    -1.00571  -1.21557  -1.00367 
 O                     0.58179   0.25267   0.61501 
 O                    -1.1339    1.45311  -1.10627 
 O                     1.18134   0.19206  -1.82677 
 Si                   -2.69339   1.74371  -0.65114 
 Si                    0.45246   0.31404   2.26262 
 Si                   -2.1548   -2.1204   -0.22503 
 Zr                    2.82373  -0.02243  -0.66452 
 O                     4.32514   0.01728  -1.87151 
 O                     2.81648  -1.72726   0.24231 
 O                     3.16814   1.46616   0.63659 
 O                    -3.55825  -2.00436  -1.06221 
 O                    -2.28687  -1.57711   1.34004 
 O                    -1.66915  -3.67748  -0.08045 
 O                    -3.00596   3.33412  -0.93077 
 O                    -2.92057   1.21838   0.89035 
 O                    -3.78511   0.84272  -1.51643 
 O                    -0.76335   1.45159   2.52316 
 O                     1.87673   0.80442   2.88257 
 O                     0.04596  -1.13257   2.9006 
 H                     3.92293   2.06305   0.69126 
 H                     5.06581  -0.26691  -2.4096 
 H                     2.4583   -2.31132   0.9163 
 H                    -3.79221  -1.10963  -1.36628 
 H                    -1.5614   -4.18568  -0.89124 
 H                    -2.80623  -0.75615   1.40497 
 H                     2.4905    1.16992   2.20997 
 H                    -0.78842  -1.49858   2.54684 
 H                    -0.84185   1.77955   3.42764 
 H                    -4.15196   1.2615   -2.30365 
 H                    -2.24428   3.9095   -1.06409 
 H                    -2.21087   1.44549   1.53341 
 
 The following ModRedundant input section has been read:
 A       1       5       9 F                                                   
 

 GradGradGradGradGradGradGradGradGradGradGradGradGradGradGradGradGradGrad
 Berny optimization.
 Initialization pass.
                           ----------------------------
                           !    Initial Parameters    !
                           ! (Angstroms and Degrees)  !
 --------------------------                            --------------------------
 ! Name  Definition              Value          Derivative Info.                !
 --------------------------------------------------------------------------------
 ! R1    R(1,2)                  1.6297         estimate D2E/DX2                !
 ! R2    R(1,3)                  1.668          estimate D2E/DX2                !
 ! R3    R(1,4)                  1.6475         estimate D2E/DX2                !
 ! R4    R(1,5)                  1.6205         estimate D2E/DX2                !
 ! R5    R(1,9)                  2.9758         estimate D2E/DX2                !
 ! R6    R(2,8)                  1.6569         estimate D2E/DX2                !
 ! R7    R(3,7)                  1.6538         estimate D2E/DX2                !
 ! R8    R(4,6)                  1.6503         estimate D2E/DX2                !
 ! R9    R(5,9)                  2.0234         estimate D2E/DX2                !
 ! R10   R(6,16)                 1.6448         estimate D2E/DX2                !
 ! R11   R(6,17)                 1.6443         estimate D2E/DX2                !
 ! R12   R(6,18)                 1.659          estimate D2E/DX2                !
 ! R13   R(7,19)                 1.6853         estimate D2E/DX2                !
 ! R14   R(7,20)                 1.6289         estimate D2E/DX2                !
 ! R15   R(7,21)                 1.6325         estimate D2E/DX2                !
 ! R16   R(8,13)                 1.6383         estimate D2E/DX2                !
 ! R17   R(8,14)                 1.6619         estimate D2E/DX2                !
 ! R18   R(8,15)                 1.6375         estimate D2E/DX2                !
 ! R19   R(9,10)                 1.9268         estimate D2E/DX2                !
 ! R20   R(9,11)                 1.931          estimate D2E/DX2                !
 ! R21   R(9,12)                 2.0068         estimate D2E/DX2                !
 ! R22   R(10,23)                0.9586         estimate D2E/DX2                !
 ! R23   R(11,24)                0.9611         estimate D2E/DX2                !
 ! R24   R(12,22)                0.9638         estimate D2E/DX2                !
 ! R25   R(13,25)                0.9735         estimate D2E/DX2                !
 ! R26   R(14,27)                0.9736         estimate D2E/DX2                !
 ! R27   R(15,26)                0.9629         estimate D2E/DX2                !
 ! R28   R(16,32)                0.9638         estimate D2E/DX2                !
 ! R29   R(17,33)                0.9843         estimate D2E/DX2                !
 ! R30   R(18,31)                0.9642         estimate D2E/DX2                !
 ! R31   R(19,30)                0.9653         estimate D2E/DX2                !
 ! R32   R(20,28)                0.9812         estimate D2E/DX2                !
 ! R33   R(21,29)                0.9774         estimate D2E/DX2                !
 ! A1    A(2,1,3)              109.9808         estimate D2E/DX2                !
 ! A2    A(2,1,4)              109.3435         estimate D2E/DX2                !
 ! A3    A(2,1,5)              114.1426         estimate D2E/DX2                !
 ! A4    A(2,1,9)              118.9313         estimate D2E/DX2                !
 ! A5    A(3,1,4)              109.6804         estimate D2E/DX2                !
 ! A6    A(3,1,5)               99.7688         estimate D2E/DX2                !
 ! A7    A(3,1,9)               60.4345         estimate D2E/DX2                !
 ! A8    A(4,1,5)              113.5061         estimate D2E/DX2                !
 ! A9    A(4,1,9)              131.2568         estimate D2E/DX2                !
 ! A10   A(1,2,8)              142.7567         estimate D2E/DX2                !
 ! A11   A(1,3,7)              149.9119         estimate D2E/DX2                !
 ! A12   A(1,4,6)              132.2743         estimate D2E/DX2                !
 ! A13   A(1,5,9)              109.0            Frozen                          !
 ! A14   A(4,6,16)             107.6353         estimate D2E/DX2                !
 ! A15   A(4,6,17)             109.4409         estimate D2E/DX2                !
 ! A16   A(4,6,18)             112.4799         estimate D2E/DX2                !
 ! A17   A(16,6,17)            116.2345         estimate D2E/DX2                !
 ! A18   A(16,6,18)            108.144          estimate D2E/DX2                !
 ! A19   A(17,6,18)            102.9751         estimate D2E/DX2                !
 ! A20   A(3,7,19)             103.6202         estimate D2E/DX2                !
 ! A21   A(3,7,20)             108.7814         estimate D2E/DX2                !
 ! A22   A(3,7,21)             112.0818         estimate D2E/DX2                !
 ! A23   A(19,7,20)            111.639          estimate D2E/DX2                !
 ! A24   A(19,7,21)            110.9828         estimate D2E/DX2                !
 ! A25   A(20,7,21)            109.6189         estimate D2E/DX2                !
 ! A26   A(2,8,13)             108.3776         estimate D2E/DX2                !
 ! A27   A(2,8,14)             108.6105         estimate D2E/DX2                !
 ! A28   A(2,8,15)             110.799          estimate D2E/DX2                !
 ! A29   A(13,8,14)            112.954          estimate D2E/DX2                !
 ! A30   A(13,8,15)            111.5028         estimate D2E/DX2                !
 ! A31   A(14,8,15)            104.553          estimate D2E/DX2                !
 ! A32   A(1,9,10)             136.6818         estimate D2E/DX2                !
 ! A33   A(1,9,11)              94.8862         estimate D2E/DX2                !
 ! A34   A(1,9,12)             100.0198         estimate D2E/DX2                !
 ! A35   A(5,9,10)             105.6931         estimate D2E/DX2                !
 ! A36   A(5,9,11)             111.1175         estimate D2E/DX2                !
 ! A37   A(5,9,12)             115.6628         estimate D2E/DX2                !
 ! A38   A(10,9,11)            108.3785         estimate D2E/DX2                !
 ! A39   A(10,9,12)            104.8989         estimate D2E/DX2                !
 ! A40   A(11,9,12)            110.5515         estimate D2E/DX2                !
 ! A41   A(9,10,23)            161.3684         estimate D2E/DX2                !
 ! A42   A(9,11,24)            150.1412         estimate D2E/DX2                !
 ! A43   A(9,12,22)            129.0894         estimate D2E/DX2                !
 ! A44   A(8,13,25)            115.5044         estimate D2E/DX2                !
 ! A45   A(8,14,27)            112.3856         estimate D2E/DX2                !
 ! A46   A(8,15,26)            117.432          estimate D2E/DX2                !
 ! A47   A(6,16,32)            116.7803         estimate D2E/DX2                !
 ! A48   A(6,17,33)            116.0494         estimate D2E/DX2                !
 ! A49   A(6,18,31)            116.1247         estimate D2E/DX2                !
 ! A50   A(7,19,30)            115.6491         estimate D2E/DX2                !
 ! A51   A(7,20,28)            113.4661         estimate D2E/DX2                !
 ! A52   A(7,21,29)            113.7637         estimate D2E/DX2                !
 ! D1    D(3,1,2,8)             50.0624         estimate D2E/DX2                !
 ! D2    D(4,1,2,8)            -70.4297         estimate D2E/DX2                !
 ! D3    D(5,1,2,8)            161.2125         estimate D2E/DX2                !
 ! D4    D(9,1,2,8)            116.5522         estimate D2E/DX2                !
 ! D5    D(2,1,3,7)            -60.1512         estimate D2E/DX2                !
 ! D6    D(4,1,3,7)             60.1373         estimate D2E/DX2                !
 ! D7    D(5,1,3,7)            179.5701         estimate D2E/DX2                !
 ! D8    D(9,1,3,7)           -172.8287         estimate D2E/DX2                !
 ! D9    D(2,1,4,6)             37.0076         estimate D2E/DX2                !
 ! D10   D(3,1,4,6)            -83.6678         estimate D2E/DX2                !
 ! D11   D(5,1,4,6)            165.7183         estimate D2E/DX2                !
 ! D12   D(9,1,4,6)           -151.1278         estimate D2E/DX2                !
 ! D13   D(2,1,9,10)            93.3674         estimate D2E/DX2                !
 ! D14   D(2,1,9,11)           -30.131          estimate D2E/DX2                !
 ! D15   D(2,1,9,12)          -142.0251         estimate D2E/DX2                !
 ! D16   D(3,1,9,10)          -168.8556         estimate D2E/DX2                !
 ! D17   D(3,1,9,11)            67.646          estimate D2E/DX2                !
 ! D18   D(3,1,9,12)           -44.2481         estimate D2E/DX2                !
 ! D19   D(4,1,9,10)           -77.857          estimate D2E/DX2                !
 ! D20   D(4,1,9,11)           158.6446         estimate D2E/DX2                !
 ! D21   D(4,1,9,12)            46.7506         estimate D2E/DX2                !
 ! D22   D(1,2,8,13)           108.4711         estimate D2E/DX2                !
 ! D23   D(1,2,8,14)           -14.5876         estimate D2E/DX2                !
 ! D24   D(1,2,8,15)          -128.8886         estimate D2E/DX2                !
 ! D25   D(1,3,7,19)           -46.0619         estimate D2E/DX2                !
 ! D26   D(1,3,7,20)          -164.9541         estimate D2E/DX2                !
 ! D27   D(1,3,7,21)            73.6681         estimate D2E/DX2                !
 ! D28   D(1,4,6,16)           169.4411         estimate D2E/DX2                !
 ! D29   D(1,4,6,17)            42.2775         estimate D2E/DX2                !
 ! D30   D(1,4,6,18)           -71.5346         estimate D2E/DX2                !
 ! D31   D(4,6,16,32)          -16.3726         estimate D2E/DX2                !
 ! D32   D(17,6,16,32)         106.7215         estimate D2E/DX2                !
 ! D33   D(18,6,16,32)        -138.134          estimate D2E/DX2                !
 ! D34   D(4,6,17,33)           44.2632         estimate D2E/DX2                !
 ! D35   D(16,6,17,33)         -77.8848         estimate D2E/DX2                !
 ! D36   D(18,6,17,33)         164.0932         estimate D2E/DX2                !
 ! D37   D(4,6,18,31)          -92.9354         estimate D2E/DX2                !
 ! D38   D(16,6,18,31)          25.7911         estimate D2E/DX2                !
 ! D39   D(17,6,18,31)         149.3552         estimate D2E/DX2                !
 ! D40   D(3,7,19,30)         -166.1155         estimate D2E/DX2                !
 ! D41   D(20,7,19,30)         -49.2104         estimate D2E/DX2                !
 ! D42   D(21,7,19,30)          73.4066         estimate D2E/DX2                !
 ! D43   D(3,7,20,28)           12.9879         estimate D2E/DX2                !
 ! D44   D(19,7,20,28)        -100.7463         estimate D2E/DX2                !
 ! D45   D(21,7,20,28)         135.8599         estimate D2E/DX2                !
 ! D46   D(3,7,21,29)          -57.2164         estimate D2E/DX2                !
 ! D47   D(19,7,21,29)          58.1093         estimate D2E/DX2                !
 ! D48   D(20,7,21,29)        -178.1114         estimate D2E/DX2                !
 ! D49   D(2,8,13,25)          -43.843          estimate D2E/DX2                !
 ! D50   D(14,8,13,25)          76.5485         estimate D2E/DX2                !
 ! D51   D(15,8,13,25)        -166.0547         estimate D2E/DX2                !
 ! D52   D(2,8,14,27)           78.098          estimate D2E/DX2                !
 ! D53   D(13,8,14,27)         -42.1603         estimate D2E/DX2                !
 ! D54   D(15,8,14,27)        -163.5737         estimate D2E/DX2                !
 ! D55   D(2,8,15,26)          -65.1514         estimate D2E/DX2                !
 ! D56   D(13,8,15,26)          55.6545         estimate D2E/DX2                !
 ! D57   D(14,8,15,26)         178.0211         estimate D2E/DX2                !
 ! D58   D(1,9,10,23)         -104.751          estimate D2E/DX2                !
 ! D59   D(5,9,10,23)         -105.0473         estimate D2E/DX2                !
 ! D60   D(11,9,10,23)          14.1415         estimate D2E/DX2                !
 ! D61   D(12,9,10,23)         132.2526         estimate D2E/DX2                !
 ! D62   D(1,9,11,24)          -44.2397         estimate D2E/DX2                !
 ! D63   D(5,9,11,24)          -71.4531         estimate D2E/DX2                !
 ! D64   D(10,9,11,24)         172.8343         estimate D2E/DX2                !
 ! D65   D(12,9,11,24)          58.3837         estimate D2E/DX2                !
 ! D66   D(1,9,12,22)         -146.3459         estimate D2E/DX2                !
 ! D67   D(5,9,12,22)         -118.0989         estimate D2E/DX2                !
 ! D68   D(10,9,12,22)          -2.0998         estimate D2E/DX2                !
 ! D69   D(11,9,12,22)         114.5275         estimate D2E/DX2                !
 --------------------------------------------------------------------------------
 Trust Radius=3.00D-01 FncErr=1.00D-07 GrdErr=1.00D-06 EigMax=2.50D+02 EigMin=1.00D-04
 Number of steps in this run=    164 maximum allowed number of steps=    198.
 GradGradGradGradGradGradGradGradGradGradGradGradGradGradGradGradGradGrad

                          Input orientation:                          
 ---------------------------------------------------------------------
 Center     Atomic      Atomic             Coordinates (Angstroms)
 Number     Number       Type             X           Y           Z
 ---------------------------------------------------------------------
      1         14           0       -0.138170    0.159070   -0.886720
      2          8           0       -1.005710   -1.215570   -1.003670
      3          8           0        0.581790    0.252670    0.615010
      4          8           0       -1.133900    1.453110   -1.106270
      5          8           0        1.181340    0.192060   -1.826770
      6         14           0       -2.693390    1.743710   -0.651140
      7         14           0        0.452460    0.314040    2.262620
      8         14           0       -2.154800   -2.120400   -0.225030
      9         40           0        2.823730   -0.022430   -0.664520
     10          8           0        4.325140    0.017280   -1.871510
     11          8           0        2.816480   -1.727260    0.242310
     12          8           0        3.168140    1.466160    0.636590
     13          8           0       -3.558250   -2.004360   -1.062210
     14          8           0       -2.286870   -1.577110    1.340040
     15          8           0       -1.669150   -3.677480   -0.080450
     16          8           0       -3.005960    3.334120   -0.930770
     17          8           0       -2.920570    1.218380    0.890350
     18          8           0       -3.785110    0.842720   -1.516430
     19          8           0       -0.763350    1.451590    2.523160
     20          8           0        1.876730    0.804420    2.882570
     21          8           0        0.045960   -1.132570    2.900600
     22          1           0        3.922930    2.063050    0.691260
     23          1           0        5.065810   -0.266910   -2.409600
     24          1           0        2.458300   -2.311320    0.916300
     25          1           0       -3.792210   -1.109630   -1.366280
     26          1           0       -1.561400   -4.185680   -0.891240
     27          1           0       -2.806230   -0.756150    1.404970
     28          1           0        2.490500    1.169920    2.209970
     29          1           0       -0.788420   -1.498580    2.546840
     30          1           0       -0.841850    1.779550    3.427640
     31          1           0       -4.151960    1.261500   -2.303650
     32          1           0       -2.244280    3.909500   -1.064090
     33          1           0       -2.210870    1.445490    1.533410
 ---------------------------------------------------------------------
                    Distance matrix (angstroms):
                    1          2          3          4          5
     1  Si   0.000000
     2  O    1.629705   0.000000
     3  O    1.668022   2.701113   0.000000
     4  O    1.647489   2.673726   2.710619   0.000000
     5  O    1.620459   2.728022   2.515039   2.733076   0.000000
     6  Si   3.015913   3.424891   3.814858   1.650334   4.336272
     7  Si   3.207990   3.890323   1.653817   3.894026   4.155629
     8  Si   3.114581   1.656926   3.718340   3.819528   4.363814
     9  Zr   2.975763   4.025322   2.595992   4.246787   2.023432
    10  O    4.572860   5.539948   4.500095   5.696342   3.148973
    11  O    3.682785   4.052583   3.008798   5.247754   3.261681
    12  O    3.867899   5.225242   2.856962   4.641689   3.411576
    13  O    4.050700   2.672279   5.004716   4.222974   5.279444
    14  O    3.548196   2.695377   3.478933   4.061528   5.018678
    15  O    4.208692   2.711732   4.582191   5.259444   5.113538
    16  O    4.278680   4.970512   4.975613   2.659625   5.311199
    17  O    3.467256   3.630167   3.643478   2.689569   5.026106
    18  O    3.763520   3.496362   4.894999   2.751313   5.018495
    19  O    3.699830   4.428432   2.624471   3.648297   4.928501
    20  O    4.322481   5.243251   2.668919   5.039398   4.799629
    21  O    4.005750   4.044283   2.725789   4.912516   5.039024
    22  H    4.754755   6.157404   3.800856   5.401358   4.166221
    23  H    5.438937   6.303963   5.433660   6.564567   3.954675
    24  H    4.011903   4.109297   3.191569   5.582618   3.927082
    25  H    3.897638   2.811991   4.991317   3.701601   5.161652
    26  H    4.571920   3.023737   5.153737   5.659059   5.249995
    27  H    3.634283   3.042119   3.622214   3.739498   5.219575
    28  H    4.185835   5.314276   2.651117   4.920764   4.354926
    29  H    3.867811   3.568393   2.945559   4.709251   5.085930
    30  H    4.662062   5.351084   3.502713   4.555019   5.849978
    31  H    4.396994   4.210073   5.651965   3.252556   5.460330
    32  H    4.304984   5.272954   4.917159   2.696029   5.112330
    33  H    3.436276   3.869163   3.172574   2.850935   4.936495
                    6          7          8          9         10
     6  Si   0.000000
     7  Si   4.519992   0.000000
     8  Si   3.924665   4.348874   0.000000
     9  Zr   5.792930   3.782100   5.420368   0.000000
    10  O    7.330050   5.672455   7.019273   1.926820   0.000000
    11  O    6.573017   3.719832   5.008652   1.931020   3.128532
    12  O    6.007730   3.368423   6.476071   2.006840   3.119049
    13  O    3.868461   5.702216   1.638294   6.694466   8.178620
    14  O    3.893315   3.454205   1.661942   5.705569   7.521623
    15  O    5.546535   5.091506   1.637455   5.821211   7.265718
    16  O    1.644779   5.592789   5.565459   6.732206   8.101324
    17  O    1.644316   3.752104   3.602489   6.078998   7.846708
    18  O    1.659025   5.702431   3.620180   6.719449   8.159877
    19  O    3.726469   1.685258   4.716757   5.020078   6.874816
    20  O    5.852809   1.628912   5.870689   3.763288   5.405144
    21  O    5.328403   1.632465   3.948255   4.653869   6.512033
    22  H    6.758676   4.191941   7.435028   2.719487   3.303746
    23  H    8.206093   6.591672   7.768203   2.851666   0.958591
    24  H    6.740923   3.567700   4.756025   2.805628   4.084037
    25  H    3.140124   5.763070   2.237235   6.741301   8.210758
    26  H    6.041251   5.852345   2.249742   6.050902   7.299120
    27  H    3.238768   3.535524   2.223160   6.042978   7.886061
    28  H    5.948773   2.211088   6.191465   3.129766   4.620927
    29  H    4.936439   2.214984   3.152288   5.053660   6.925904
    30  H    4.479501   2.276012   5.502313   5.781815   7.608178
    31  H    2.256267   6.553563   4.443710   7.279799   8.578814
    32  H    2.250083   5.591667   6.088655   6.426854   7.678449
    33  H    2.256993   2.984167   3.976283   5.686201   7.506843
                   11         12         13         14         15
    11  O    0.000000
    12  O    3.236828   0.000000
    13  O    6.512737   7.757239   0.000000
    14  O    5.222235   6.285974   2.751319   0.000000
    15  O    4.901878   7.097222   2.707745   2.609775   0.000000
    16  O    7.803492   6.638178   5.368582   5.458374   7.188368
    17  O    6.481550   6.099031   3.821672   2.901476   5.145673
    18  O    7.299243   7.305605   2.891997   4.032334   5.193412
    19  O    5.303070   4.360731   5.710511   3.590809   5.822939
    20  O    3.776706   2.673961   7.279392   5.038517   6.437405
    21  O    3.885350   4.650500   5.427173   2.841665   4.278414
    22  H    3.973945   0.963833   8.694052   7.227261   8.051123
    23  H    3.771569   3.985468   8.899922   8.356933   7.900419
    24  H    0.961084   3.853760   6.340946   4.820296   4.460465
    25  H    6.829628   7.687175   0.973518   3.131893   3.571358
    26  H    5.147290   7.526361   2.962228   3.508497   0.962942
    27  H    5.823204   6.420449   2.865404   0.973615   3.468947
    28  H    3.517329   1.738528   7.574338   5.579087   6.785720
    29  H    4.284677   5.300293   4.577446   1.925587   3.525045
    30  H    5.985601   4.895732   6.469587   4.208720   6.539900
    31  H    7.998360   7.891182   3.543939   4.981239   5.958229
    32  H    7.687069   6.177096   6.058074   5.990371   7.672065
    33  H    6.083381   5.453298   4.522625   3.029732   5.398410
                   16         17         18         19         20
    16  O    0.000000
    17  O    2.792870   0.000000
    18  O    2.675284   2.584790   0.000000
    19  O    4.528007   2.715521   5.081343   0.000000
    20  O    6.691906   5.210987   7.170014   2.741902   0.000000
    21  O    6.629097   4.285834   6.171630   2.734104   2.665328
    22  H    7.228839   6.898304   8.110301   5.068625   3.251603
    23  H    8.961463   8.768011   8.964810   7.827162   6.270968
    24  H    8.070985   6.433638   7.405830   5.207736   3.729917
    25  H    4.533737   3.357345   1.958128   5.555320   7.338474
    26  H    7.657396   5.850237   5.533584   6.638812   7.138871
    27  H    4.714433   2.043692   3.471191   3.209022   5.152552
    28  H    6.690223   5.569867   7.305915   3.281001   0.981170
    29  H    6.353443   3.830391   5.565249   2.950372   3.538297
    30  H    5.108405   3.327736   5.829602   0.965300   2.939159
    31  H    2.737493   3.423422   0.964194   5.900585   7.965608
    32  H    0.963843   3.394014   3.461778   4.593783   6.496181
    33  H    3.204883   0.984266   3.484693   1.753555   4.351974
                   21         22         23         24         25
    21  O    0.000000
    22  H    5.488540   0.000000
    23  H    7.358430   4.043541   0.000000
    24  H    3.338605   4.618538   4.694713   0.000000
    25  H    5.739193   8.592017   8.958974   6.761886   0.000000
    26  H    5.126708   8.463380   7.847426   4.789406   3.829394
    27  H    3.242466   7.330680   8.761239   5.511137   2.962589
    28  H    3.428441   2.270686   5.480614   3.713980   7.580129
    29  H    0.977394   6.190735   7.768868   3.722956   4.948388
    30  H    3.089728   5.501934   8.553468   5.825207   6.327215
    31  H    7.101994   8.649614   9.344225   8.174880   2.574945
    32  H    6.810759   6.672714   8.525856   8.045794   5.261090
    33  H    3.689022   6.222066   8.451610   6.024583   4.175820
                   26         27         28         29         30
    26  H    0.000000
    27  H    4.310900   0.000000
    28  H    7.397151   5.693252   0.000000
    29  H    4.431523   2.434466   4.240954   0.000000
    30  H    7.399625   3.792065   3.599851   3.394820   0.000000
    31  H    6.194972   4.431226   8.031403   6.516034   6.638742
    32  H    8.125770   5.308515   6.375179   6.663758   5.165185
    33  H    6.165291   2.284331   4.757789   3.423150   2.360915
                   31         32         33
    31  H    0.000000
    32  H    3.491082   0.000000
    33  H    4.304034   3.580428   0.000000
 Stoichiometry    H12O16Si4Zr
 Framework group  C1[X(H12O16Si4Zr)]
 Deg. of freedom    93
 Full point group                 C1      NOp   1
 Largest Abelian subgroup         C1      NOp   1
 Largest concise Abelian subgroup C1      NOp   1
                         Standard orientation:                         
 ---------------------------------------------------------------------
 Center     Atomic      Atomic             Coordinates (Angstroms)
 Number     Number       Type             X           Y           Z
 ---------------------------------------------------------------------
      1         14           0        0.142159   -0.154464   -0.910952
      2          8           0        1.010128    1.222099   -0.998360
      3          8           0       -0.611938   -0.259531    0.573162
      4          8           0        1.144572   -1.445625   -1.116604
      5          8           0       -1.155378   -0.182598   -1.881258
      6         14           0        2.693632   -1.737360   -0.627826
      7         14           0       -0.520365   -0.332276    2.222839
      8         14           0        2.139711    2.122959   -0.187248
      9         40           0       -2.824324    0.021585   -0.755556
     10          8           0       -4.297578   -0.011637   -1.996948
     11          8           0       -2.840401    1.720026    0.163072
     12          8           0       -3.196311   -1.476538    0.526887
     13          8           0        3.562174    2.014631   -0.992773
     14          8           0        2.236627    1.568888    1.376613
     15          8           0        1.648576    3.678348   -0.042998
     16          8           0        3.014880   -3.325359   -0.911293
     17          8           0        2.884600   -1.222548    0.922101
     18          8           0        3.803594   -0.828895   -1.461515
     19          8           0        0.690820   -1.470027    2.503284
     20          8           0       -1.957764   -0.828859    2.806488
     21          8           0       -0.130747    1.110360    2.880060
     22          1           0       -3.951277   -2.074787    0.560047
     23          1           0       -5.026121    0.275344   -2.549907
     24          1           0       -2.498645    2.299818    0.849167
     25          1           0        3.804369    1.122362   -1.297625
     26          1           0        1.558714    4.192076   -0.852484
     27          1           0        2.755569    0.748176    1.447722
     28          1           0       -2.555397   -1.190442    2.117439
     29          1           0        0.710992    1.479935    2.548113
     30          1           0        0.749024   -1.804214    3.407018
     31          1           0        4.189032   -1.241666   -2.243007
     32          1           0        2.257310   -3.900790   -1.066077
     33          1           0        2.160663   -1.455090    1.547097
 ---------------------------------------------------------------------
 Rotational constants (GHZ):           0.2647960           0.1396135           0.1355480
 General basis read from cards:  (5D, 7F)
 ======================================================================================================
                                       Pseudopotential Parameters
 ======================================================================================================
  Center     Atomic      Valence      Angular      Power
  Number     Number     Electrons     Momentum     of R      Exponent        Coefficient   SO-Coeffient
 ======================================================================================================
    1         14
                                   No pseudopotential on this center.
    2          8
                                   No pseudopotential on this center.
    3          8
                                   No pseudopotential on this center.
    4          8
                                   No pseudopotential on this center.
    5          8
                                   No pseudopotential on this center.
    6         14
                                   No pseudopotential on this center.
    7         14
                                   No pseudopotential on this center.
    8         14
                                   No pseudopotential on this center.
    9         40           12
                                      G and up 
                                                     2        1.0000000        0.00000000    0.00000000
                                      S - G
                                                     2        8.6365280      150.24299400    0.00000000
                                                     2        3.7176390       18.78003600    0.00000000
                                      P - G
                                                     2        7.6267280       33.19279100    0.00000000
                                                     2        7.4532070       66.38903900    0.00000000
                                                     2        3.3583890        4.62072600    0.00000000
                                                     2        3.2297380        9.26027000    0.00000000
                                      D - G
                                                     2        5.9380860       13.99338300    0.00000000
                                                     2        5.8255440       20.99588200    0.00000000
                                                     2        2.2050190        2.28516600    0.00000000
                                                     2        2.2062920        3.44126000    0.00000000
                                      F - G
                                                     2        4.8002150       -5.23932000    0.00000000
                                                     2        4.7989920       -6.98742400    0.00000000
   10          8
                                   No pseudopotential on this center.
   11          8
                                   No pseudopotential on this center.
   12          8
                                   No pseudopotential on this center.
   13          8
                                   No pseudopotential on this center.
   14          8
                                   No pseudopotential on this center.
   15          8
                                   No pseudopotential on this center.
   16          8
                                   No pseudopotential on this center.
   17          8
                                   No pseudopotential on this center.
   18          8
                                   No pseudopotential on this center.
   19          8
                                   No pseudopotential on this center.
   20          8
                                   No pseudopotential on this center.
   21          8
                                   No pseudopotential on this center.
   22          1
                                   No pseudopotential on this center.
   23          1
                                   No pseudopotential on this center.
   24          1
                                   No pseudopotential on this center.
   25          1
                                   No pseudopotential on this center.
   26          1
                                   No pseudopotential on this center.
   27          1
                                   No pseudopotential on this center.
   28          1
                                   No pseudopotential on this center.
   29          1
                                   No pseudopotential on this center.
   30          1
                                   No pseudopotential on this center.
   31          1
                                   No pseudopotential on this center.
   32          1
                                   No pseudopotential on this center.
   33          1
                                   No pseudopotential on this center.
 ======================================================================================================
 There are   570 symmetry adapted cartesian basis functions of A   symmetry.
 There are   524 symmetry adapted basis functions of A   symmetry.
   524 basis functions,  1074 primitive gaussians,   570 cartesian basis functions
   104 alpha electrons      104 beta electrons
       nuclear repulsion energy      3045.2127591374 Hartrees.
 NAtoms=   33 NActive=   33 NUniq=   33 SFac= 1.00D+00 NAtFMM=   60 NAOKFM=F Big=F
 Integral buffers will be    131072 words long.
 Raffenetti 2 integral format.
 Two-electron integral symmetry is turned on.
 Nuclear repulsion after empirical dispersion term =     3045.1653280639 Hartrees.
 One-electron integrals computed using PRISM.
 PrsmSu:  requested number of processors reduced to:   4 ShMem   1 Linda.
   1 Symmetry operations used in ECPInt.
 ECPInt:  NShTT=   13203 NPrTT=   78401 LenC2=   11919 LenP2D=   45315.
 LDataN:  DoStor=T MaxTD1= 8 Len=  415
 Number of processors reduced to  13 by ecpmxn.
 NBasis=   524 RedAO= T EigKep=  2.50D-05  NBF=   524
 NBsUse=   524 1.00D-06 EigRej= -1.00D+00 NBFU=   524
 Defaulting to unpruned grid for atomic number  40.
 ExpMin= 1.01D-02 ExpMax= 1.61D+04 ExpMxC= 2.43D+03 IAcc=3 IRadAn=         5 AccDes= 0.00D+00
 Harris functional with IExCor=  402 and IRadAn=       5 diagonalized for initial guess.
 HarFok:  IExCor=  402 AccDes= 0.00D+00 IRadAn=         5 IDoV= 1 UseB2=F ITyADJ=14
 ICtDFT=  3500011 ScaDFX=  1.000000  1.000000  1.000000  1.000000
 Defaulting to unpruned grid for atomic number  40.
 FoFCou: FMM=F IPFlag=           0 FMFlag=      100000 FMFlg1=           0
         NFxFlg=           0 DoJE=T BraDBF=F KetDBF=T FulRan=T
         wScrn=  0.000000 ICntrl=       500 IOpCl=  0 I1Cent=   200000004 NGrid=           0
         NMat0=    1 NMatS0=      1 NMatT0=    0 NMatD0=    1 NMtDS0=    0 NMtDT0=    0
 Petite list used in FoFCou.
 Requested convergence on RMS density matrix=1.00D-08 within 128 cycles.
 Requested convergence on MAX density matrix=1.00D-06.
 Requested convergence on             energy=1.00D-06.
 No special actions if energy rises.
 Defaulting to unpruned grid for atomic number  40.
 Defaulting to unpruned grid for atomic number  40.
 Defaulting to unpruned grid for atomic number  40.
 Defaulting to unpruned grid for atomic number  40.
 Defaulting to unpruned grid for atomic number  40.
 Defaulting to unpruned grid for atomic number  40.
 Defaulting to unpruned grid for atomic number  40.
 Defaulting to unpruned grid for atomic number  40.
 Defaulting to unpruned grid for atomic number  40.
 Defaulting to unpruned grid for atomic number  40.
 Defaulting to unpruned grid for atomic number  40.
 Defaulting to unpruned grid for atomic number  40.
 Defaulting to unpruned grid for atomic number  40.
 Defaulting to unpruned grid for atomic number  40.
 Defaulting to unpruned grid for atomic number  40.
 Defaulting to unpruned grid for atomic number  40.
 SCF Done:  E(RB3LYP) =  -2416.94278370     A.U. after   14 cycles
            NFock= 14  Conv=0.48D-08     -V/T= 2.0184

 **********************************************************************

            Population analysis using the SCF Density.

 **********************************************************************

 Orbital symmetries:
       Occupied  (A) (A) (A) (A) (A) (A) (A) (A) (A) (A) (A) (A)
                 (A) (A) (A) (A) (A) (A) (A) (A) (A) (A) (A) (A)
                 (A) (A) (A) (A) (A) (A) (A) (A) (A) (A) (A) (A)
                 (A) (A) (A) (A) (A) (A) (A) (A) (A) (A) (A) (A)
                 (A) (A) (A) (A) (A) (A) (A) (A) (A) (A) (A) (A)
                 (A) (A) (A) (A) (A) (A) (A) (A) (A) (A) (A) (A)
                 (A) (A) (A) (A) (A) (A) (A) (A) (A) (A) (A) (A)
                 (A) (A) (A) (A) (A) (A) (A) (A) (A) (A) (A) (A)
                 (A) (A) (A) (A) (A) (A) (A) (A)
       Virtual   (A) (A) (A) (A) (A) (A) (A) (A) (A) (A) (A) (A)
                 (A) (A) (A) (A) (A) (A) (A) (A) (A) (A) (A) (A)
                 (A) (A) (A) (A) (A) (A) (A) (A) (A) (A) (A) (A)
                 (A) (A) (A) (A) (A) (A) (A) (A) (A) (A) (A) (A)
                 (A) (A) (A) (A) (A) (A) (A) (A) (A) (A) (A) (A)
                 (A) (A) (A) (A) (A) (A) (A) (A) (A) (A) (A) (A)
                 (A) (A) (A) (A) (A) (A) (A) (A) (A) (A) (A) (A)
                 (A) (A) (A) (A) (A) (A) (A) (A) (A) (A) (A) (A)
                 (A) (A) (A) (A) (A) (A) (A) (A) (A) (A) (A) (A)
                 (A) (A) (A) (A) (A) (A) (A) (A) (A) (A) (A) (A)
                 (A) (A) (A) (A) (A) (A) (A) (A) (A) (A) (A) (A)
                 (A) (A) (A) (A) (A) (A) (A) (A) (A) (A) (A) (A)
                 (A) (A) (A) (A) (A) (A) (A) (A) (A) (A) (A) (A)
                 (A) (A) (A) (A) (A) (A) (A) (A) (A) (A) (A) (A)
                 (A) (A) (A) (A) (A) (A) (A) (A) (A) (A) (A) (A)
                 (A) (A) (A) (A) (A) (A) (A) (A) (A) (A) (A) (A)
                 (A) (A) (A) (A) (A) (A) (A) (A) (A) (A) (A) (A)
                 (A) (A) (A) (A) (A) (A) (A) (A) (A) (A) (A) (A)
                 (A) (A) (A) (A) (A) (A) (A) (A) (A) (A) (A) (A)
                 (A) (A) (A) (A) (A) (A) (A) (A) (A) (A) (A) (A)
                 (A) (A) (A) (A) (A) (A) (A) (A) (A) (A) (A) (A)
                 (A) (A) (A) (A) (A) (A) (A) (A) (A) (A) (A) (A)
                 (A) (A) (A) (A) (A) (A) (A) (A) (A) (A) (A) (A)
                 (A) (A) (A) (A) (A) (A) (A) (A) (A) (A) (A) (A)
                 (A) (A) (A) (A) (A) (A) (A) (A) (A) (A) (A) (A)
                 (A) (A) (A) (A) (A) (A) (A) (A) (A) (A) (A) (A)
                 (A) (A) (A) (A) (A) (A) (A) (A) (A) (A) (A) (A)
                 (A) (A) (A) (A) (A) (A) (A) (A) (A) (A) (A) (A)
                 (A) (A) (A) (A) (A) (A) (A) (A) (A) (A) (A) (A)
                 (A) (A) (A) (A) (A) (A) (A) (A) (A) (A) (A) (A)
                 (A) (A) (A) (A) (A) (A) (A) (A) (A) (A) (A) (A)
                 (A) (A) (A) (A) (A) (A) (A) (A) (A) (A) (A) (A)
                 (A) (A) (A) (A) (A) (A) (A) (A) (A) (A) (A) (A)
                 (A) (A) (A) (A) (A) (A) (A) (A) (A) (A) (A) (A)
                 (A) (A) (A) (A) (A) (A) (A) (A) (A) (A) (A) (A)
 The electronic state is 1-A.
 Alpha  occ. eigenvalues --  -66.23603 -66.23326 -66.22306 -66.21913 -19.18968
 Alpha  occ. eigenvalues --  -19.18839 -19.18153 -19.17828 -19.17335 -19.17259
 Alpha  occ. eigenvalues --  -19.16768 -19.16485 -19.16237 -19.15961 -19.15742
 Alpha  occ. eigenvalues --  -19.15328 -19.15158 -19.14862 -19.14703 -19.14584
 Alpha  occ. eigenvalues --   -5.37666  -5.37237  -5.36357  -5.35965  -3.73662
 Alpha  occ. eigenvalues --   -3.73630  -3.73558  -3.73291  -3.73211  -3.73105
 Alpha  occ. eigenvalues --   -3.72425  -3.72316  -3.72181  -3.71965  -3.71906
 Alpha  occ. eigenvalues --   -3.71876  -2.12441  -1.28825  -1.28521  -1.28169
 Alpha  occ. eigenvalues --   -1.06778  -1.05530  -1.04570  -1.03503  -1.02992
 Alpha  occ. eigenvalues --   -1.02414  -1.01594  -1.01055  -1.00490  -1.00183
 Alpha  occ. eigenvalues --   -0.99850  -0.99584  -0.97913  -0.96989  -0.96105
 Alpha  occ. eigenvalues --   -0.95573  -0.62888  -0.61260  -0.60200  -0.57107
 Alpha  occ. eigenvalues --   -0.55965  -0.55313  -0.53684  -0.53528  -0.52641
 Alpha  occ. eigenvalues --   -0.52372  -0.51320  -0.50683  -0.50476  -0.49951
 Alpha  occ. eigenvalues --   -0.49258  -0.46055  -0.44201  -0.43899  -0.42955
 Alpha  occ. eigenvalues --   -0.42617  -0.42289  -0.41848  -0.40872  -0.40350
 Alpha  occ. eigenvalues --   -0.39217  -0.39043  -0.38465  -0.37861  -0.37585
 Alpha  occ. eigenvalues --   -0.37354  -0.37064  -0.36646  -0.36168  -0.35942
 Alpha  occ. eigenvalues --   -0.35818  -0.35603  -0.35246  -0.35120  -0.34552
 Alpha  occ. eigenvalues --   -0.34282  -0.33954  -0.33485  -0.33171  -0.32842
 Alpha  occ. eigenvalues --   -0.32471  -0.32448  -0.32098  -0.31919
 Alpha virt. eigenvalues --   -0.04112  -0.02774  -0.02190  -0.01993  -0.01495
 Alpha virt. eigenvalues --   -0.01289  -0.00387   0.00265   0.00649   0.01248
 Alpha virt. eigenvalues --    0.01366   0.01531   0.02350   0.02633   0.02931
 Alpha virt. eigenvalues --    0.03186   0.03418   0.03579   0.03729   0.03937
 Alpha virt. eigenvalues --    0.04246   0.04654   0.04930   0.05776   0.06349
 Alpha virt. eigenvalues --    0.06618   0.07130   0.07667   0.07990   0.08414
 Alpha virt. eigenvalues --    0.08732   0.08902   0.09270   0.09588   0.09836
 Alpha virt. eigenvalues --    0.10354   0.10493   0.10773   0.11007   0.11307
 Alpha virt. eigenvalues --    0.11643   0.12045   0.12356   0.12626   0.13051
 Alpha virt. eigenvalues --    0.13639   0.13969   0.14167   0.14384   0.14832
 Alpha virt. eigenvalues --    0.15135   0.15511   0.15733   0.16190   0.16463
 Alpha virt. eigenvalues --    0.16804   0.17241   0.17632   0.17784   0.18313
 Alpha virt. eigenvalues --    0.18448   0.18776   0.19341   0.19882   0.20310
 Alpha virt. eigenvalues --    0.20568   0.20867   0.21447   0.21476   0.22025
 Alpha virt. eigenvalues --    0.22183   0.22612   0.22983   0.23343   0.23539
 Alpha virt. eigenvalues --    0.23989   0.24232   0.24417   0.24837   0.25031
 Alpha virt. eigenvalues --    0.25226   0.25537   0.26133   0.26319   0.26674
 Alpha virt. eigenvalues --    0.26903   0.27112   0.27259   0.27855   0.28256
 Alpha virt. eigenvalues --    0.28305   0.28650   0.28947   0.29356   0.29497
 Alpha virt. eigenvalues --    0.29776   0.30026   0.30752   0.30942   0.31185
 Alpha virt. eigenvalues --    0.31463   0.31629   0.32063   0.32478   0.32567
 Alpha virt. eigenvalues --    0.33109   0.33293   0.33760   0.34129   0.34806
 Alpha virt. eigenvalues --    0.34915   0.35485   0.35714   0.36666   0.37146
 Alpha virt. eigenvalues --    0.37430   0.37775   0.37995   0.38779   0.38882
 Alpha virt. eigenvalues --    0.39447   0.40122   0.40868   0.41692   0.41761
 Alpha virt. eigenvalues --    0.42503   0.42859   0.43117   0.43667   0.44072
 Alpha virt. eigenvalues --    0.44728   0.45272   0.45455   0.46153   0.46824
 Alpha virt. eigenvalues --    0.47411   0.47944   0.49457   0.49614   0.50376
 Alpha virt. eigenvalues --    0.51231   0.51513   0.52331   0.53065   0.54524
 Alpha virt. eigenvalues --    0.55151   0.55424   0.56081   0.57033   0.57341
 Alpha virt. eigenvalues --    0.57811   0.58749   0.60579   0.60915   0.61209
 Alpha virt. eigenvalues --    0.61996   0.63460   0.63951   0.64517   0.64785
 Alpha virt. eigenvalues --    0.66511   0.67004   0.67295   0.68433   0.69452
 Alpha virt. eigenvalues --    0.70393   0.71612   0.72245   0.72769   0.73420
 Alpha virt. eigenvalues --    0.74530   0.74612   0.75658   0.77871   0.78108
 Alpha virt. eigenvalues --    0.80387   0.81817   0.82634   0.83462   0.84278
 Alpha virt. eigenvalues --    0.86196   0.87049   0.88193   0.90254   0.93155
 Alpha virt. eigenvalues --    0.94044   0.95269   0.95566   0.96896   0.97600
 Alpha virt. eigenvalues --    0.98712   0.99551   1.00202   1.00500   1.02166
 Alpha virt. eigenvalues --    1.02733   1.04488   1.05082   1.05978   1.06158
 Alpha virt. eigenvalues --    1.08154   1.08488   1.09433   1.10266   1.11867
 Alpha virt. eigenvalues --    1.12539   1.14253   1.15498   1.15827   1.18457
 Alpha virt. eigenvalues --    1.19352   1.19591   1.20870   1.21308   1.21831
 Alpha virt. eigenvalues --    1.22512   1.23089   1.23335   1.23713   1.24363
 Alpha virt. eigenvalues --    1.24489   1.25650   1.26024   1.26147   1.26859
 Alpha virt. eigenvalues --    1.27020   1.27547   1.28480   1.29567   1.29704
 Alpha virt. eigenvalues --    1.29983   1.30468   1.31293   1.31485   1.32000
 Alpha virt. eigenvalues --    1.32317   1.32651   1.33442   1.34350   1.34865
 Alpha virt. eigenvalues --    1.35073   1.35946   1.36619   1.36786   1.37723
 Alpha virt. eigenvalues --    1.38293   1.38878   1.39783   1.40470   1.41556
 Alpha virt. eigenvalues --    1.43074   1.43319   1.44067   1.45292   1.46358
 Alpha virt. eigenvalues --    1.47753   1.48510   1.50661   1.52436   1.54727
 Alpha virt. eigenvalues --    1.55270   1.56591   1.58190   1.58930   1.59605
 Alpha virt. eigenvalues --    1.60555   1.61378   1.61788   1.62665   1.62904
 Alpha virt. eigenvalues --    1.64234   1.65667   1.66170   1.67111   1.67729
 Alpha virt. eigenvalues --    1.68152   1.69380   1.69794   1.70254   1.71084
 Alpha virt. eigenvalues --    1.71537   1.71897   1.72906   1.73371   1.73998
 Alpha virt. eigenvalues --    1.74151   1.74633   1.75312   1.75884   1.76529
 Alpha virt. eigenvalues --    1.77279   1.78293   1.78494   1.78867   1.79360
 Alpha virt. eigenvalues --    1.80327   1.81037   1.81078   1.82172   1.83373
 Alpha virt. eigenvalues --    1.84452   1.85451   1.85614   1.86612   1.87264
 Alpha virt. eigenvalues --    1.88044   1.89192   1.90211   1.91693   1.92188
 Alpha virt. eigenvalues --    1.92529   1.93413   1.94473   1.94772   1.96467
 Alpha virt. eigenvalues --    1.97106   1.98015   1.98600   1.99186   1.99907
 Alpha virt. eigenvalues --    2.00665   2.01901   2.03427   2.04249   2.04628
 Alpha virt. eigenvalues --    2.04878   2.05890   2.07597   2.09305   2.09668
 Alpha virt. eigenvalues --    2.09965   2.12607   2.14342   2.14739   2.16151
 Alpha virt. eigenvalues --    2.16993   2.19698   2.21286   2.22864   2.23934
 Alpha virt. eigenvalues --    2.28576   2.32555   2.34275   2.38264   2.38929
 Alpha virt. eigenvalues --    2.39690   2.40479   2.41611   2.42375   2.43417
 Alpha virt. eigenvalues --    2.44199   2.45173   2.47140   2.47665   2.49190
 Alpha virt. eigenvalues --    2.49453   2.51968   2.53745   2.54999   2.56317
 Alpha virt. eigenvalues --    2.58966   2.59272   2.59919   2.60244   2.60446
 Alpha virt. eigenvalues --    2.61108   2.61470   2.62049   2.62305   2.63231
 Alpha virt. eigenvalues --    2.63704   2.65095   2.65638   2.66131   2.66381
 Alpha virt. eigenvalues --    2.67585   2.68014   2.71527   2.72164   2.72863
 Alpha virt. eigenvalues --    2.73242   2.73593   2.75137   2.75739   2.76526
 Alpha virt. eigenvalues --    2.77333   2.78004   2.78302   2.80432   2.82342
 Alpha virt. eigenvalues --    2.83439   2.84310   2.84726   2.85751   2.86527
 Alpha virt. eigenvalues --    2.88590   2.90016   2.92006   2.92924   2.97510
 Alpha virt. eigenvalues --    3.00490   3.06000   3.18289   3.28750   3.46288
 Alpha virt. eigenvalues --    3.48089   3.49153   3.50364   3.54722   3.56498
 Alpha virt. eigenvalues --    3.60036   3.61114   3.63300   3.64165   3.72330
 Alpha virt. eigenvalues --    3.78807   4.02223   4.13785   7.09008  30.91350
          Condensed to atoms (all electrons):
               1          2          3          4          5          6
     1  Si  24.848496  -1.107867  -2.865373  -1.604685  -4.067505  -0.261953
     2  O   -1.107867  10.138840   0.481018  -0.172729   0.194905  -0.139458
     3  O   -2.865373   0.481018  11.323780   0.409975   1.126082   0.068317
     4  O   -1.604685  -0.172729   0.409975   9.866598   0.540230  -0.564711
     5  O   -4.067505   0.194905   1.126082   0.540230  10.536150   0.008538
     6  Si  -0.261953  -0.139458   0.068317  -0.564711   0.008538  13.705377
     7  Si  -1.835217  -0.174463  -1.853289   0.007933   0.318489   0.048147
     8  Si  -0.214448  -0.573587  -0.120044   0.036290   0.042479  -0.208983
     9  Zr  -1.552404   0.056577  -0.559786  -0.004162   0.295302   0.034756
    10  O   -0.021956   0.001300   0.015178   0.000712  -0.032311  -0.000816
    11  O    0.092142  -0.002888  -0.081215  -0.002484  -0.042792  -0.000536
    12  O    0.050248   0.005035  -0.053180  -0.010941  -0.022043  -0.002352
    13  O   -0.021301   0.236561   0.002251  -0.005089  -0.002326   0.065829
    14  O   -0.026959   0.390842   0.114248  -0.020771  -0.013192   0.010157
    15  O    0.013489   0.087450   0.006051   0.002528  -0.004268  -0.010704
    16  O    0.073082   0.015963  -0.007497   0.275635  -0.014668  -0.530518
    17  O   -0.056168  -0.035369   0.028783   0.252169   0.017215  -0.359633
    18  O   -0.080113  -0.005924  -0.012323   0.179571   0.005817  -0.305360
    19  O    0.161818  -0.008201   0.521699   0.017889  -0.008919  -0.006964
    20  O    0.234570  -0.005332   0.465738  -0.005293  -0.033425   0.000603
    21  O   -0.012871   0.044763   0.228736  -0.006370  -0.006900  -0.000719
    22  H   -0.000884  -0.000006   0.005371   0.000220   0.000263  -0.000176
    23  H   -0.001701   0.000002  -0.000123   0.000002   0.000125   0.000018
    24  H   -0.013029   0.000469   0.004281   0.000034   0.000496   0.000050
    25  H   -0.000889  -0.005617  -0.000127   0.002862  -0.000012   0.004828
    26  H   -0.009001  -0.015429   0.000413  -0.000094   0.000152  -0.000108
    27  H    0.010571  -0.033185  -0.014135  -0.004870  -0.000089   0.005938
    28  H   -0.006867  -0.000144  -0.004937   0.000328   0.001235  -0.000470
    29  H   -0.005043  -0.006904  -0.026694   0.000929  -0.000127  -0.000309
    30  H   -0.002132  -0.000117  -0.010659  -0.000172   0.000147  -0.000007
    31  H   -0.001329  -0.002593   0.000041  -0.023138   0.000100   0.079213
    32  H    0.000427  -0.000175   0.000422   0.001567   0.000189   0.030506
    33  H   -0.019015   0.001359  -0.004738  -0.011623  -0.000268   0.052014
               7          8          9         10         11         12
     1  Si  -1.835217  -0.214448  -1.552404  -0.021956   0.092142   0.050248
     2  O   -0.174463  -0.573587   0.056577   0.001300  -0.002888   0.005035
     3  O   -1.853289  -0.120044  -0.559786   0.015178  -0.081215  -0.053180
     4  O    0.007933   0.036290  -0.004162   0.000712  -0.002484  -0.010941
     5  O    0.318489   0.042479   0.295302  -0.032311  -0.042792  -0.022043
     6  Si   0.048147  -0.208983   0.034756  -0.000816  -0.000536  -0.002352
     7  Si  16.728625   0.164443   0.320283   0.007393  -0.057722   0.011702
     8  Si   0.164443  12.914806   0.103340  -0.001068   0.001894   0.002689
     9  Zr   0.320283   0.103340  12.168188  -0.110360   0.166413   0.080773
    10  O    0.007393  -0.001068  -0.110360   8.840230  -0.050993  -0.049861
    11  O   -0.057722   0.001894   0.166413  -0.050993   8.379220  -0.016420
    12  O    0.011702   0.002689   0.080773  -0.049861  -0.016420   8.616701
    13  O    0.010531  -0.165794  -0.006332  -0.000001  -0.000095  -0.000007
    14  O   -0.138856  -0.498783  -0.041204  -0.000007   0.000128   0.000044
    15  O   -0.016575  -0.086772  -0.012311  -0.000005   0.000426   0.000029
    16  O   -0.002485  -0.014894  -0.018154  -0.000001   0.000010   0.000070
    17  O   -0.073309   0.116523  -0.018202  -0.000020  -0.000098   0.000109
    18  O   -0.005117   0.112069  -0.001712   0.000000  -0.000025  -0.000022
    19  O   -0.765037  -0.031316  -0.081482  -0.000095   0.000192  -0.003457
    20  O   -0.895033   0.006236  -0.091238  -0.000969   0.005905  -0.038044
    21  O   -0.224022  -0.039035   0.005152  -0.000018   0.009174   0.000718
    22  H   -0.000695   0.000028  -0.026616  -0.002012   0.000159   0.265776
    23  H   -0.000478   0.000032  -0.078758   0.341484   0.000007  -0.000038
    24  H    0.004548  -0.000841  -0.057705   0.000589   0.315130  -0.002315
    25  H   -0.000747   0.043080  -0.000634  -0.000000   0.000000   0.000000
    26  H    0.000769   0.062417  -0.000093   0.000000   0.000056   0.000000
    27  H    0.015766   0.089935   0.004112   0.000000  -0.000008  -0.000002
    28  H    0.030729  -0.000352   0.004834   0.000677  -0.001349   0.033669
    29  H    0.073727   0.023012  -0.002192  -0.000000  -0.000508   0.000017
    30  H    0.055469   0.000241   0.002090  -0.000000   0.000007   0.000118
    31  H    0.000468  -0.003561   0.000083  -0.000000   0.000000   0.000000
    32  H   -0.000546   0.000095   0.001270   0.000000  -0.000000  -0.000001
    33  H    0.022546  -0.002935   0.000736   0.000000   0.000005   0.000012
              13         14         15         16         17         18
     1  Si  -0.021301  -0.026959   0.013489   0.073082  -0.056168  -0.080113
     2  O    0.236561   0.390842   0.087450   0.015963  -0.035369  -0.005924
     3  O    0.002251   0.114248   0.006051  -0.007497   0.028783  -0.012323
     4  O   -0.005089  -0.020771   0.002528   0.275635   0.252169   0.179571
     5  O   -0.002326  -0.013192  -0.004268  -0.014668   0.017215   0.005817
     6  Si   0.065829   0.010157  -0.010704  -0.530518  -0.359633  -0.305360
     7  Si   0.010531  -0.138856  -0.016575  -0.002485  -0.073309  -0.005117
     8  Si  -0.165794  -0.498783  -0.086772  -0.014894   0.116523   0.112069
     9  Zr  -0.006332  -0.041204  -0.012311  -0.018154  -0.018202  -0.001712
    10  O   -0.000001  -0.000007  -0.000005  -0.000001  -0.000020   0.000000
    11  O   -0.000095   0.000128   0.000426   0.000010  -0.000098  -0.000025
    12  O   -0.000007   0.000044   0.000029   0.000070   0.000109  -0.000022
    13  O    8.631739   0.006988  -0.079455   0.003321  -0.024386  -0.044594
    14  O    0.006988   8.984025   0.086379   0.006209  -0.059582  -0.026751
    15  O   -0.079455   0.086379   8.613013  -0.000220   0.003459   0.002052
    16  O    0.003321   0.006209  -0.000220   8.948396  -0.120999  -0.075080
    17  O   -0.024386  -0.059582   0.003459  -0.120999   8.997366   0.171064
    18  O   -0.044594  -0.026751   0.002052  -0.075080   0.171064   8.898128
    19  O    0.000366   0.019048   0.000610  -0.001866  -0.011863  -0.000580
    20  O   -0.000027  -0.003248   0.000303  -0.000006   0.001745   0.000042
    21  O   -0.001007   0.044304   0.004788  -0.000058  -0.011471  -0.000092
    22  H   -0.000000  -0.000001   0.000000  -0.000000   0.000001  -0.000000
    23  H   -0.000000  -0.000000   0.000000   0.000000  -0.000000   0.000000
    24  H    0.000006  -0.000071  -0.000032   0.000000   0.000004   0.000000
    25  H    0.227569  -0.008527   0.006775   0.000181   0.000386   0.010900
    26  H   -0.007416   0.003500   0.233184   0.000000  -0.000013   0.000009
    27  H   -0.002285   0.188223   0.001676  -0.000186   0.013222   0.001043
    28  H    0.000000   0.000002  -0.000002  -0.000003  -0.000011   0.000000
    29  H    0.000576   0.001810   0.000175  -0.000010  -0.000242   0.000028
    30  H   -0.000002  -0.000427   0.000000  -0.000064   0.000125  -0.000009
    31  H    0.002133  -0.000079  -0.000011  -0.001528   0.001833   0.215538
    32  H   -0.000002  -0.000012   0.000000   0.231349  -0.002982   0.004495
    33  H    0.000659   0.000323  -0.000152   0.000220   0.211591   0.003059
              19         20         21         22         23         24
     1  Si   0.161818   0.234570  -0.012871  -0.000884  -0.001701  -0.013029
     2  O   -0.008201  -0.005332   0.044763  -0.000006   0.000002   0.000469
     3  O    0.521699   0.465738   0.228736   0.005371  -0.000123   0.004281
     4  O    0.017889  -0.005293  -0.006370   0.000220   0.000002   0.000034
     5  O   -0.008919  -0.033425  -0.006900   0.000263   0.000125   0.000496
     6  Si  -0.006964   0.000603  -0.000719  -0.000176   0.000018   0.000050
     7  Si  -0.765037  -0.895033  -0.224022  -0.000695  -0.000478   0.004548
     8  Si  -0.031316   0.006236  -0.039035   0.000028   0.000032  -0.000841
     9  Zr  -0.081482  -0.091238   0.005152  -0.026616  -0.078758  -0.057705
    10  O   -0.000095  -0.000969  -0.000018  -0.002012   0.341484   0.000589
    11  O    0.000192   0.005905   0.009174   0.000159   0.000007   0.315130
    12  O   -0.003457  -0.038044   0.000718   0.265776  -0.000038  -0.002315
    13  O    0.000366  -0.000027  -0.001007  -0.000000  -0.000000   0.000006
    14  O    0.019048  -0.003248   0.044304  -0.000001  -0.000000  -0.000071
    15  O    0.000610   0.000303   0.004788   0.000000   0.000000  -0.000032
    16  O   -0.001866  -0.000006  -0.000058  -0.000000   0.000000   0.000000
    17  O   -0.011863   0.001745  -0.011471   0.000001  -0.000000   0.000004
    18  O   -0.000580   0.000042  -0.000092  -0.000000   0.000000   0.000000
    19  O    9.061915   0.048406  -0.075052   0.000116  -0.000000   0.000077
    20  O    0.048406   8.796670   0.106213   0.004217  -0.000008  -0.000803
    21  O   -0.075052   0.106213   8.614999   0.000002  -0.000000   0.000630
    22  H    0.000116   0.004217   0.000002   0.355303   0.000014  -0.000005
    23  H   -0.000000  -0.000008  -0.000000   0.000014   0.366618   0.000007
    24  H    0.000077  -0.000803   0.000630  -0.000005   0.000007   0.360169
    25  H   -0.000033   0.000001  -0.000003  -0.000000   0.000000  -0.000000
    26  H   -0.000000  -0.000001   0.000012  -0.000000  -0.000000  -0.000000
    27  H   -0.001846   0.000065  -0.002936   0.000000   0.000000   0.000000
    28  H   -0.005886   0.228041  -0.001853  -0.002690   0.000001   0.000042
    29  H   -0.006191   0.004081   0.207489   0.000000  -0.000000   0.000030
    30  H    0.218468  -0.007857  -0.003214   0.000000  -0.000000   0.000000
    31  H    0.000018  -0.000000  -0.000000   0.000000  -0.000000  -0.000000
    32  H    0.000022  -0.000002   0.000000   0.000000   0.000000   0.000000
    33  H    0.014180   0.000159   0.002755  -0.000000   0.000000  -0.000000
              25         26         27         28         29         30
     1  Si  -0.000889  -0.009001   0.010571  -0.006867  -0.005043  -0.002132
     2  O   -0.005617  -0.015429  -0.033185  -0.000144  -0.006904  -0.000117
     3  O   -0.000127   0.000413  -0.014135  -0.004937  -0.026694  -0.010659
     4  O    0.002862  -0.000094  -0.004870   0.000328   0.000929  -0.000172
     5  O   -0.000012   0.000152  -0.000089   0.001235  -0.000127   0.000147
     6  Si   0.004828  -0.000108   0.005938  -0.000470  -0.000309  -0.000007
     7  Si  -0.000747   0.000769   0.015766   0.030729   0.073727   0.055469
     8  Si   0.043080   0.062417   0.089935  -0.000352   0.023012   0.000241
     9  Zr  -0.000634  -0.000093   0.004112   0.004834  -0.002192   0.002090
    10  O   -0.000000   0.000000   0.000000   0.000677  -0.000000  -0.000000
    11  O    0.000000   0.000056  -0.000008  -0.001349  -0.000508   0.000007
    12  O    0.000000   0.000000  -0.000002   0.033669   0.000017   0.000118
    13  O    0.227569  -0.007416  -0.002285   0.000000   0.000576  -0.000002
    14  O   -0.008527   0.003500   0.188223   0.000002   0.001810  -0.000427
    15  O    0.006775   0.233184   0.001676  -0.000002   0.000175   0.000000
    16  O    0.000181   0.000000  -0.000186  -0.000003  -0.000010  -0.000064
    17  O    0.000386  -0.000013   0.013222  -0.000011  -0.000242   0.000125
    18  O    0.010900   0.000009   0.001043   0.000000   0.000028  -0.000009
    19  O   -0.000033  -0.000000  -0.001846  -0.005886  -0.006191   0.218468
    20  O    0.000001  -0.000001   0.000065   0.228041   0.004081  -0.007857
    21  O   -0.000003   0.000012  -0.002936  -0.001853   0.207489  -0.003214
    22  H   -0.000000  -0.000000   0.000000  -0.002690   0.000000   0.000000
    23  H    0.000000  -0.000000   0.000000   0.000001  -0.000000  -0.000000
    24  H   -0.000000  -0.000000   0.000000   0.000042   0.000030   0.000000
    25  H    0.304178  -0.000010  -0.000119  -0.000000  -0.000001   0.000000
    26  H   -0.000010   0.360177  -0.000053   0.000000   0.000011  -0.000000
    27  H   -0.000119  -0.000053   0.308800  -0.000000  -0.000338   0.000053
    28  H   -0.000000   0.000000  -0.000000   0.270166  -0.000020   0.000063
    29  H   -0.000001   0.000011  -0.000338  -0.000020   0.300366   0.000147
    30  H    0.000000  -0.000000   0.000053   0.000063   0.000147   0.331552
    31  H   -0.000332   0.000000   0.000010   0.000000   0.000000   0.000000
    32  H   -0.000001  -0.000000  -0.000000   0.000000  -0.000000   0.000000
    33  H   -0.000004   0.000000  -0.001488  -0.000003   0.000073  -0.000395
              31         32         33
     1  Si  -0.001329   0.000427  -0.019015
     2  O   -0.002593  -0.000175   0.001359
     3  O    0.000041   0.000422  -0.004738
     4  O   -0.023138   0.001567  -0.011623
     5  O    0.000100   0.000189  -0.000268
     6  Si   0.079213   0.030506   0.052014
     7  Si   0.000468  -0.000546   0.022546
     8  Si  -0.003561   0.000095  -0.002935
     9  Zr   0.000083   0.001270   0.000736
    10  O   -0.000000   0.000000   0.000000
    11  O    0.000000  -0.000000   0.000005
    12  O    0.000000  -0.000001   0.000012
    13  O    0.002133  -0.000002   0.000659
    14  O   -0.000079  -0.000012   0.000323
    15  O   -0.000011   0.000000  -0.000152
    16  O   -0.001528   0.231349   0.000220
    17  O    0.001833  -0.002982   0.211591
    18  O    0.215538   0.004495   0.003059
    19  O    0.000018   0.000022   0.014180
    20  O   -0.000000  -0.000002   0.000159
    21  O   -0.000000   0.000000   0.002755
    22  H    0.000000   0.000000  -0.000000
    23  H   -0.000000   0.000000   0.000000
    24  H   -0.000000   0.000000  -0.000000
    25  H   -0.000332  -0.000001  -0.000004
    26  H    0.000000  -0.000000   0.000000
    27  H    0.000010  -0.000000  -0.001488
    28  H    0.000000   0.000000  -0.000003
    29  H    0.000000  -0.000000   0.000073
    30  H    0.000000   0.000000  -0.000395
    31  H    0.335138   0.000014  -0.000047
    32  H    0.000014   0.347931   0.000126
    33  H   -0.000047   0.000126   0.277822
 Mulliken charges:
               1
     1  Si   2.303868
     2  O   -1.365092
     3  O   -1.188264
     4  O   -1.158343
     5  O   -0.839069
     6  Si   2.279488
     7  Si   2.222025
     8  Si   2.242805
     9  Zr   1.419434
    10  O   -0.937070
    11  O   -0.713737
    12  O   -0.869025
    13  O   -0.828407
    14  O   -1.017759
    15  O   -0.851879
    16  O   -0.766199
    17  O   -1.041246
    18  O   -1.046115
    19  O   -1.056033
    20  O   -0.821710
    21  O   -0.884112
    22  H    0.401614
    23  H    0.372797
    24  H    0.388238
    25  H    0.416298
    26  H    0.371516
    27  H    0.422126
    28  H    0.454800
    29  H    0.436109
    30  H    0.416572
    31  H    0.398029
    32  H    0.385309
    33  H    0.453031
 Sum of Mulliken charges =  -0.00000
 Mulliken charges with hydrogens summed into heavy atoms:
               1
     1  Si   2.303868
     2  O   -1.365092
     3  O   -1.188264
     4  O   -1.158343
     5  O   -0.839069
     6  Si   2.279488
     7  Si   2.222025
     8  Si   2.242805
     9  Zr   1.419434
    10  O   -0.564273
    11  O   -0.325499
    12  O   -0.467411
    13  O   -0.412109
    14  O   -0.595632
    15  O   -0.480363
    16  O   -0.380890
    17  O   -0.588215
    18  O   -0.648086
    19  O   -0.639461
    20  O   -0.366910
    21  O   -0.448003
 Electronic spatial extent (au):  <R**2>=           7980.0475
 Charge=             -0.0000 electrons
 Dipole moment (field-independent basis, Debye):
    X=             -2.0764    Y=             -3.7072    Z=             -2.6253  Tot=              4.9947
 Quadrupole moment (field-independent basis, Debye-Ang):
   XX=           -156.3807   YY=           -155.9306   ZZ=           -161.4540
   XY=             -3.5663   XZ=              1.8994   YZ=             -7.6774
 Traceless Quadrupole moment (field-independent basis, Debye-Ang):
   XX=              1.5411   YY=              1.9911   ZZ=             -3.5322
   XY=             -3.5663   XZ=              1.8994   YZ=             -7.6774
 Octapole moment (field-independent basis, Debye-Ang**2):
  XXX=           -204.5588  YYY=            -17.3613  ZZZ=            -36.7797  XYY=            -57.9587
  XXY=            -35.0976  XXZ=            -72.0902  XZZ=             10.9315  YZZ=            -26.1540
  YYZ=            -30.7162  XYZ=              8.8933
 Hexadecapole moment (field-independent basis, Debye-Ang**3):
 XXXX=          -5247.7202 YYYY=          -2169.3574 ZZZZ=          -2106.4084 XXXY=              5.3257
 XXXZ=            126.7458 YYYX=             25.5016 YYYZ=            -90.7569 ZZZX=            160.7744
 ZZZY=           -106.7401 XXYY=          -1444.6584 XXZZ=          -1122.4446 YYZZ=           -704.1147
 XXYZ=              9.7684 YYXZ=            -31.7012 ZZXY=            -90.6748
 N-N= 3.045165328064D+03 E-N=-1.180220412832D+04  KE= 2.373185353060D+03
 PrsmSu:  requested number of processors reduced to:   2 ShMem   1 Linda.
 PrsmSu:  requested number of processors reduced to:  10 ShMem   1 Linda.
   1 Symmetry operations used in ECPInt.
 ECPInt:  NShTT=   13203 NPrTT=   78401 LenC2=   11919 LenP2D=   45315.
 LDataN:  DoStor=T MaxTD1= 9 Len=  602
 Number of processors reduced to  14 by ecpmxn.
 Calling FoFJK, ICntrl=      2127 FMM=F ISym2X=0 I1Cent= 0 IOpClX= 0 NMat=1 NMatS=1 NMatT=0.
 CoulSu:  requested number of processors reduced to:  10 ShMem   1 Linda.
 Defaulting to unpruned grid for atomic number  40.
 Defaulting to unpruned grid for atomic number  40.
 Defaulting to unpruned grid for atomic number  40.
 Defaulting to unpruned grid for atomic number  40.
 Defaulting to unpruned grid for atomic number  40.
 Defaulting to unpruned grid for atomic number  40.
 Defaulting to unpruned grid for atomic number  40.
 Defaulting to unpruned grid for atomic number  40.
 Defaulting to unpruned grid for atomic number  40.
 Defaulting to unpruned grid for atomic number  40.
 Defaulting to unpruned grid for atomic number  40.
 Defaulting to unpruned grid for atomic number  40.
 Defaulting to unpruned grid for atomic number  40.
 Defaulting to unpruned grid for atomic number  40.
 Defaulting to unpruned grid for atomic number  40.
 Defaulting to unpruned grid for atomic number  40.
 ***** Axes restored to original set *****
 -------------------------------------------------------------------
 Center     Atomic                   Forces (Hartrees/Bohr)
 Number     Number              X              Y              Z
 -------------------------------------------------------------------
      1       14          -0.003819726    0.000240494   -0.002348676
      2        8           0.000181185    0.000199734    0.000218732
      3        8          -0.000670047   -0.000222987   -0.001873358
      4        8           0.000292268   -0.000187317    0.000214767
      5        8          -0.000645602   -0.000057513    0.001273968
      6       14          -0.000293925    0.000080613    0.000075607
      7       14           0.002340744    0.001593193    0.004694506
      8       14          -0.000257993   -0.000185516    0.000037159
      9       40           0.001806774   -0.002609766   -0.000329471
     10        8           0.000454586   -0.000048674   -0.000374760
     11        8           0.001034889   -0.000184441   -0.000764396
     12        8           0.004536123    0.003648622   -0.000986617
     13        8           0.000085775    0.000001030    0.000005349
     14        8           0.000099601    0.000036295   -0.000063798
     15        8           0.000054246    0.000084970    0.000023691
     16        8           0.000034896   -0.000046026    0.000003961
     17        8           0.000030387   -0.000051673   -0.000135562
     18        8           0.000076702    0.000010052    0.000022631
     19        8          -0.000465647   -0.000212072   -0.000623117
     20        8          -0.005556009   -0.002731787    0.004975483
     21        8          -0.000370107   -0.000506177   -0.000702731
     22        1           0.000630055    0.000144044   -0.001123302
     23        1           0.000059767    0.000164308   -0.000072996
     24        1          -0.000164807    0.000115928    0.000176671
     25        1          -0.000020684    0.000019144   -0.000002831
     26        1           0.000008709   -0.000021417   -0.000017817
     27        1          -0.000019025    0.000015595    0.000028192
     28        1           0.000395283    0.000759866   -0.002523649
     29        1          -0.000053004   -0.000048790    0.000104414
     30        1           0.000177332   -0.000066102   -0.000039400
     31        1          -0.000004069    0.000000690   -0.000003601
     32        1          -0.000010088    0.000023668   -0.000004231
     33        1           0.000051411    0.000042014    0.000135182
 -------------------------------------------------------------------
 Cartesian Forces:  Max     0.005556009 RMS     0.001339017

 GradGradGradGradGradGradGradGradGradGradGradGradGradGradGradGradGradGrad
 Berny optimization.
 FormGI is forming the generalized inverse of G from B-inverse, IUseBI=4.
 Internal  Forces:  Max     0.022341817 RMS     0.003010644
 Search for a local minimum.
 Step number   1 out of a maximum of  164
 All quantities printed in internal units (Hartrees-Bohrs-Radians)
 Mixed Optimization -- RFO/linear search
 Second derivative matrix not updated -- first step.
 ITU=  0
     Eigenvalues ---    0.00230   0.00230   0.00230   0.00569   0.03211
     Eigenvalues ---    0.03439   0.03520   0.03558   0.03586   0.03627
     Eigenvalues ---    0.03673   0.03711   0.03747   0.03753   0.03833
     Eigenvalues ---    0.03844   0.03910   0.03946   0.03957   0.04266
     Eigenvalues ---    0.04802   0.08063   0.08703   0.11127   0.11319
     Eigenvalues ---    0.11516   0.11815   0.11842   0.12054   0.12258
     Eigenvalues ---    0.12943   0.12968   0.13045   0.13247   0.14999
     Eigenvalues ---    0.15450   0.16000   0.16000   0.16000   0.16000
     Eigenvalues ---    0.16000   0.16000   0.16000   0.16000   0.16000
     Eigenvalues ---    0.16000   0.16000   0.16000   0.17756   0.18462
     Eigenvalues ---    0.19123   0.20145   0.20369   0.20384   0.21054
     Eigenvalues ---    0.21061   0.21266   0.21500   0.21865   0.22128
     Eigenvalues ---    0.22807   0.25000   0.25000   0.25000   0.36620
     Eigenvalues ---    0.37725   0.40032   0.40890   0.41311   0.41617
     Eigenvalues ---    0.42076   0.42599   0.43032   0.43450   0.43522
     Eigenvalues ---    0.44473   0.44608   0.45420   0.45878   0.46010
     Eigenvalues ---    0.50565   0.51158   0.51894   0.52645   0.52665
     Eigenvalues ---    0.54349   0.54581   0.54655   0.54657   0.54845
     Eigenvalues ---    0.55241   0.557781000.000001000.000001000.00000
     Eigenvalues --- 1000.000001000.000001000.000001000.000001000.00000
     Eigenvalues --- 1000.000001000.000001000.000001000.000001000.00000
     Eigenvalues --- 1000.000001000.000001000.000001000.000001000.00000
     Eigenvalues --- 1000.000001000.000001000.000001000.000001000.00000
     Eigenvalues --- 1000.000001000.000001000.000001000.000001000.00000
     Eigenvalues --- 1000.000001000.000001000.000001000.000001000.00000
     Eigenvalues --- 1000.000001000.000001000.000001000.000001000.00000
     Eigenvalues --- 1000.000001000.000001000.000001000.000001000.00000
     Eigenvalues --- 1000.000001000.000001000.000001000.000001000.00000
     Eigenvalues --- 1000.000001000.000001000.000001000.000001000.00000
     Eigenvalues --- 1000.000001000.000001000.000001000.000001000.00000
     Eigenvalues --- 1000.000001000.000001000.000001000.00000
 RFO step:  Lambda=-8.51616230D-03 EMin= 2.30000000D-03
 Linear search not attempted -- first point.
 Iteration  1 RMS(Cart)=  0.18127415 RMS(Int)=  0.00607945
 Iteration  2 RMS(Cart)=  0.01158577 RMS(Int)=  0.00032233
 Iteration  3 RMS(Cart)=  0.00005691 RMS(Int)=  0.00032186
 Iteration  4 RMS(Cart)=  0.00000003 RMS(Int)=  0.00032186
 Iteration  1 RMS(Cart)=  0.00006583 RMS(Int)=  0.00003747
 Iteration  2 RMS(Cart)=  0.00004782 RMS(Int)=  0.00004102
 Iteration  3 RMS(Cart)=  0.00003474 RMS(Int)=  0.00004728
 Iteration  4 RMS(Cart)=  0.00002523 RMS(Int)=  0.00005312
 Iteration  5 RMS(Cart)=  0.00001832 RMS(Int)=  0.00005783
 Iteration  6 RMS(Cart)=  0.00001331 RMS(Int)=  0.00006144
 Iteration  7 RMS(Cart)=  0.00000967 RMS(Int)=  0.00006415
 Iteration  8 RMS(Cart)=  0.00000702 RMS(Int)=  0.00006616
 Iteration  9 RMS(Cart)=  0.00000510 RMS(Int)=  0.00006763
 Iteration 10 RMS(Cart)=  0.00000370 RMS(Int)=  0.00006871
 Iteration 11 RMS(Cart)=  0.00000269 RMS(Int)=  0.00006950
 Iteration 12 RMS(Cart)=  0.00000195 RMS(Int)=  0.00007008
 Iteration 13 RMS(Cart)=  0.00000142 RMS(Int)=  0.00007050
 Iteration 14 RMS(Cart)=  0.00000103 RMS(Int)=  0.00007080
 Iteration 15 RMS(Cart)=  0.00000075 RMS(Int)=  0.00007103
 Variable       Old X    -DE/DX   Delta X   Delta X   Delta X     New X
                                 (Linear)    (Quad)   (Total)
    R1        3.07970  -0.00021   0.00000  -0.00046  -0.00046   3.07924
    R2        3.15210   0.00172   0.00000   0.00420   0.00420   3.15630
    R3        3.11330  -0.00025   0.00000  -0.00057  -0.00057   3.11274
    R4        3.06222  -0.00122   0.00000   0.01157   0.01196   3.07418
    R5        5.62338   0.00896   0.00000   0.02894   0.02895   5.65233
    R6        3.13114   0.00007   0.00000   0.00017   0.00017   3.13131
    R7        3.12526   0.00609   0.00000   0.01420   0.01420   3.13946
    R8        3.11868   0.00013   0.00000   0.00031   0.00031   3.11898
    R9        3.82373  -0.00147   0.00000   0.02343   0.02310   3.84683
   R10        3.10818  -0.00003   0.00000  -0.00006  -0.00006   3.10812
   R11        3.10731  -0.00001   0.00000  -0.00003  -0.00003   3.10728
   R12        3.13510  -0.00006   0.00000  -0.00015  -0.00015   3.13495
   R13        3.18468  -0.00008   0.00000  -0.00021  -0.00021   3.18447
   R14        3.07820  -0.00417   0.00000  -0.00890  -0.00890   3.06929
   R15        3.08491   0.00036   0.00000   0.00078   0.00078   3.08569
   R16        3.09593  -0.00005   0.00000  -0.00012  -0.00012   3.09581
[...]
 Alpha virt. eigenvalues --    3.00798   3.06056   3.17977   3.28324   3.46241
 Alpha virt. eigenvalues --    3.48116   3.49129   3.50441   3.53012   3.56280
 Alpha virt. eigenvalues --    3.59883   3.61013   3.61477   3.63998   3.71057
 Alpha virt. eigenvalues --    3.75617   3.99283   4.15415   6.96259  30.90248
          Condensed to atoms (all electrons):
               1          2          3          4          5          6
     1  Si  24.362088  -1.024879  -2.709893  -1.602284  -3.965161  -0.270153
     2  O   -1.024879  10.137715   0.442036  -0.152228   0.164030  -0.154076
     3  O   -2.709893   0.442036  11.182018   0.399185   1.093293   0.073045
     4  O   -1.602284  -0.152228   0.399185   9.871530   0.533279  -0.595525
     5  O   -3.965161   0.164030   1.093293   0.533279  10.515887   0.013901
     6  Si  -0.270153  -0.154076   0.073045  -0.595525   0.013901  13.762007
     7  Si  -1.740635  -0.183785  -1.759379   0.012565   0.310346   0.055005
     8  Si  -0.213864  -0.589527  -0.122688   0.031293   0.045079  -0.205757
     9  Zr  -1.463784   0.048943  -0.546002  -0.005974   0.282659   0.033943
    10  O   -0.022746   0.001424   0.014414   0.000709  -0.031284  -0.000881
    11  O    0.088262  -0.001983  -0.082873  -0.002732  -0.039625  -0.000603
    12  O    0.047322   0.004521  -0.047044  -0.009930  -0.022349  -0.001915
    13  O   -0.019114   0.245213   0.002338  -0.004467  -0.002604   0.065189
    14  O   -0.029565   0.391053   0.112776  -0.018007  -0.013996   0.009627
    15  O    0.015939   0.093525   0.005433   0.002034  -0.004073  -0.010249
    16  O    0.072951   0.016845  -0.007780   0.286356  -0.015254  -0.551824
    17  O   -0.055296  -0.027509   0.026252   0.253084   0.015624  -0.358901
    18  O   -0.079752  -0.005073  -0.011329   0.180214   0.005610  -0.304631
    19  O    0.164129  -0.010545   0.508475   0.015982  -0.008788  -0.005567
    20  O    0.225329  -0.003555   0.457021  -0.005709  -0.032654   0.000257
    21  O   -0.018459   0.042868   0.199751  -0.006666  -0.005332  -0.001052
    22  H   -0.000593  -0.000005   0.004738   0.000163   0.000140  -0.000160
    23  H   -0.001522   0.000000  -0.000134   0.000003   0.000148   0.000018
    24  H   -0.012958   0.000402   0.004392   0.000043   0.000421   0.000031
    25  H   -0.000977  -0.005990  -0.000143   0.002831   0.000005   0.004870
    26  H   -0.009015  -0.015259   0.000396  -0.000096   0.000152  -0.000118
    27  H    0.009590  -0.032842  -0.013040  -0.004901  -0.000049   0.006322
    28  H   -0.006517  -0.000167  -0.002099   0.000337   0.001084  -0.000463
    29  H   -0.003595  -0.007045  -0.026036   0.000950  -0.000142  -0.000290
    30  H   -0.002308  -0.000131  -0.010914  -0.000165   0.000156   0.000282
    31  H   -0.001517  -0.002658   0.000034  -0.023248   0.000117   0.079094
    32  H    0.000608  -0.000184   0.000395   0.001358   0.000198   0.030730
    33  H   -0.018669   0.001144  -0.004346  -0.011519  -0.000231   0.050739
               7          8          9         10         11         12
     1  Si  -1.740635  -0.213864  -1.463784  -0.022746   0.088262   0.047322
     2  O   -0.183785  -0.589527   0.048943   0.001424  -0.001983   0.004521
     3  O   -1.759379  -0.122688  -0.546002   0.014414  -0.082873  -0.047044
     4  O    0.012565   0.031293  -0.005974   0.000709  -0.002732  -0.009930
     5  O    0.310346   0.045079   0.282659  -0.031284  -0.039625  -0.022349
     6  Si   0.055005  -0.205757   0.033943  -0.000881  -0.000603  -0.001915
     7  Si  16.468649   0.167924   0.308312   0.006563  -0.052189  -0.003046
     8  Si   0.167924  12.964163   0.102024  -0.001022   0.001574   0.002427
     9  Zr   0.308312   0.102024  12.106177  -0.120618   0.174442   0.101095
    10  O    0.006563  -0.001022  -0.120618   8.856573  -0.051429  -0.049668
    11  O   -0.052189   0.001574   0.174442  -0.051429   8.360118  -0.014926
    12  O   -0.003046   0.002427   0.101095  -0.049668  -0.014926   8.559289
    13  O    0.010394  -0.180145  -0.006624  -0.000001  -0.000095  -0.000007
    14  O   -0.138844  -0.504036  -0.040123  -0.000011   0.000268   0.000070
    15  O   -0.017222  -0.099446  -0.012424  -0.000007   0.000411   0.000021
    16  O   -0.003009  -0.014742  -0.017438  -0.000001   0.000010   0.000061
    17  O   -0.071357   0.113374  -0.018841  -0.000018  -0.000102   0.000047
    18  O   -0.005241   0.110850  -0.001861   0.000000  -0.000025  -0.000020
    19  O   -0.752767  -0.032472  -0.081015  -0.000072  -0.000023  -0.003434
    20  O   -0.869549   0.006855  -0.092178  -0.000751   0.005175  -0.022829
    21  O   -0.165420  -0.038813   0.009394  -0.000015   0.007530   0.001165
    22  H   -0.000289   0.000034  -0.026692  -0.001963   0.000169   0.267160
    23  H   -0.000405   0.000033  -0.080361   0.343768   0.000123   0.000072
    24  H    0.004610  -0.000863  -0.053639   0.000735   0.311093  -0.002229
    25  H   -0.000748   0.043034  -0.000608  -0.000000   0.000000   0.000000
    26  H    0.000798   0.061797  -0.000028   0.000000   0.000058   0.000000
    27  H    0.014636   0.089997   0.003912   0.000000  -0.000007  -0.000001
    28  H    0.025717  -0.000353   0.004772   0.000565  -0.001232   0.034348
    29  H    0.070995   0.023212  -0.002227   0.000000  -0.000432   0.000003
    30  H    0.054903   0.000283   0.002223  -0.000000   0.000006   0.000104
    31  H    0.000473  -0.003404   0.000092  -0.000000   0.000000   0.000000
    32  H   -0.000513   0.000099   0.001153   0.000000  -0.000000  -0.000001
    33  H    0.021895  -0.003082   0.000595   0.000000   0.000005   0.000012
              13         14         15         16         17         18
     1  Si  -0.019114  -0.029565   0.015939   0.072951  -0.055296  -0.079752
     2  O    0.245213   0.391053   0.093525   0.016845  -0.027509  -0.005073
     3  O    0.002338   0.112776   0.005433  -0.007780   0.026252  -0.011329
     4  O   -0.004467  -0.018007   0.002034   0.286356   0.253084   0.180214
     5  O   -0.002604  -0.013996  -0.004073  -0.015254   0.015624   0.005610
     6  Si   0.065189   0.009627  -0.010249  -0.551824  -0.358901  -0.304631
     7  Si   0.010394  -0.138844  -0.017222  -0.003009  -0.071357  -0.005241
     8  Si  -0.180145  -0.504036  -0.099446  -0.014742   0.113374   0.110850
     9  Zr  -0.006624  -0.040123  -0.012424  -0.017438  -0.018841  -0.001861
    10  O   -0.000001  -0.000011  -0.000007  -0.000001  -0.000018   0.000000
    11  O   -0.000095   0.000268   0.000411   0.000010  -0.000102  -0.000025
    12  O   -0.000007   0.000070   0.000021   0.000061   0.000047  -0.000020
    13  O    8.632550   0.008848  -0.078505   0.003387  -0.024471  -0.044712
    14  O    0.008848   8.979688   0.088206   0.006086  -0.056454  -0.026019
    15  O   -0.078505   0.088206   8.617635  -0.000222   0.003314   0.002132
    16  O    0.003387   0.006086  -0.000222   8.958932  -0.118203  -0.074596
    17  O   -0.024471  -0.056454   0.003314  -0.118203   8.984666   0.169202
    18  O   -0.044712  -0.026019   0.002132  -0.074596   0.169202   8.896053
    19  O    0.000342   0.018816   0.000675  -0.002237  -0.013507  -0.000503
    20  O   -0.000029  -0.003120   0.000313   0.000024   0.001755   0.000036
    21  O   -0.000967   0.042407   0.005016  -0.000087  -0.011365  -0.000060
    22  H   -0.000000  -0.000001   0.000000  -0.000000   0.000001  -0.000000
    23  H   -0.000000  -0.000000   0.000000   0.000000   0.000000   0.000000
    24  H    0.000006  -0.000077  -0.000035   0.000000   0.000003   0.000000
    25  H    0.227660  -0.008579   0.006655   0.000154   0.000467   0.011075
    26  H   -0.007539   0.003397   0.233475   0.000000  -0.000012   0.000009
    27  H   -0.002464   0.189279   0.001693  -0.000183   0.012464   0.000963
    28  H    0.000000  -0.000005  -0.000002  -0.000003  -0.000011   0.000000
    29  H    0.000596   0.002117   0.000208  -0.000010  -0.000289   0.000027
    30  H   -0.000002  -0.000459   0.000000  -0.000075   0.000251  -0.000007
    31  H    0.002061  -0.000073  -0.000010  -0.001389   0.001825   0.215878
    32  H   -0.000002  -0.000012   0.000000   0.231072  -0.002964   0.004437
    33  H    0.000698   0.000472  -0.000157   0.000096   0.213172   0.003095
              19         20         21         22         23         24
     1  Si   0.164129   0.225329  -0.018459  -0.000593  -0.001522  -0.012958
     2  O   -0.010545  -0.003555   0.042868  -0.000005   0.000000   0.000402
     3  O    0.508475   0.457021   0.199751   0.004738  -0.000134   0.004392
     4  O    0.015982  -0.005709  -0.006666   0.000163   0.000003   0.000043
     5  O   -0.008788  -0.032654  -0.005332   0.000140   0.000148   0.000421
     6  Si  -0.005567   0.000257  -0.001052  -0.000160   0.000018   0.000031
     7  Si  -0.752767  -0.869549  -0.165420  -0.000289  -0.000405   0.004610
     8  Si  -0.032472   0.006855  -0.038813   0.000034   0.000033  -0.000863
     9  Zr  -0.081015  -0.092178   0.009394  -0.026692  -0.080361  -0.053639
    10  O   -0.000072  -0.000751  -0.000015  -0.001963   0.343768   0.000735
    11  O   -0.000023   0.005175   0.007530   0.000169   0.000123   0.311093
    12  O   -0.003434  -0.022829   0.001165   0.267160   0.000072  -0.002229
    13  O    0.000342  -0.000029  -0.000967  -0.000000  -0.000000   0.000006
    14  O    0.018816  -0.003120   0.042407  -0.000001  -0.000000  -0.000077
    15  O    0.000675   0.000313   0.005016   0.000000   0.000000  -0.000035
    16  O   -0.002237   0.000024  -0.000087  -0.000000   0.000000   0.000000
    17  O   -0.013507   0.001755  -0.011365   0.000001   0.000000   0.000003
    18  O   -0.000503   0.000036  -0.000060  -0.000000   0.000000   0.000000
    19  O    9.073541   0.045550  -0.079359   0.000064  -0.000000   0.000099
    20  O    0.045550   8.783377   0.098768   0.003542  -0.000006  -0.001021
    21  O   -0.079359   0.098768   8.596990   0.000007  -0.000000   0.000894
    22  H    0.000064   0.003542   0.000007   0.356764   0.000012  -0.000006
    23  H   -0.000000  -0.000006  -0.000000   0.000012   0.366996   0.000007
    24  H    0.000099  -0.001021   0.000894  -0.000006   0.000007   0.360538
    25  H   -0.000035   0.000001  -0.000006  -0.000000   0.000000  -0.000000
    26  H   -0.000000  -0.000001   0.000011  -0.000000  -0.000000   0.000000
    27  H   -0.001460   0.000058  -0.002498   0.000000   0.000000   0.000000
    28  H   -0.005841   0.231789  -0.001721  -0.002224   0.000000   0.000043
    29  H   -0.005674   0.004427   0.208078   0.000000  -0.000000   0.000023
    30  H    0.217878  -0.007193  -0.003014   0.000000  -0.000000   0.000000
    31  H    0.000019  -0.000000  -0.000000   0.000000  -0.000000  -0.000000
    32  H    0.000032  -0.000002   0.000000   0.000000  -0.000000   0.000000
    33  H    0.013782   0.000193   0.002715  -0.000000  -0.000000  -0.000000
              25         26         27         28         29         30
     1  Si  -0.000977  -0.009015   0.009590  -0.006517  -0.003595  -0.002308
     2  O   -0.005990  -0.015259  -0.032842  -0.000167  -0.007045  -0.000131
     3  O   -0.000143   0.000396  -0.013040  -0.002099  -0.026036  -0.010914
     4  O    0.002831  -0.000096  -0.004901   0.000337   0.000950  -0.000165
     5  O    0.000005   0.000152  -0.000049   0.001084  -0.000142   0.000156
     6  Si   0.004870  -0.000118   0.006322  -0.000463  -0.000290   0.000282
     7  Si  -0.000748   0.000798   0.014636   0.025717   0.070995   0.054903
     8  Si   0.043034   0.061797   0.089997  -0.000353   0.023212   0.000283
     9  Zr  -0.000608  -0.000028   0.003912   0.004772  -0.002227   0.002223
    10  O   -0.000000   0.000000   0.000000   0.000565   0.000000  -0.000000
    11  O    0.000000   0.000058  -0.000007  -0.001232  -0.000432   0.000006
    12  O    0.000000   0.000000  -0.000001   0.034348   0.000003   0.000104
    13  O    0.227660  -0.007539  -0.002464   0.000000   0.000596  -0.000002
    14  O   -0.008579   0.003397   0.189279  -0.000005   0.002117  -0.000459
    15  O    0.006655   0.233475   0.001693  -0.000002   0.000208   0.000000
    16  O    0.000154   0.000000  -0.000183  -0.000003  -0.000010  -0.000075
    17  O    0.000467  -0.000012   0.012464  -0.000011  -0.000289   0.000251
    18  O    0.011075   0.000009   0.000963   0.000000   0.000027  -0.000007
    19  O   -0.000035  -0.000000  -0.001460  -0.005841  -0.005674   0.217878
    20  O    0.000001  -0.000001   0.000058   0.231789   0.004427  -0.007193
    21  O   -0.000006   0.000011  -0.002498  -0.001721   0.208078  -0.003014
    22  H   -0.000000  -0.000000   0.000000  -0.002224   0.000000   0.000000
    23  H    0.000000  -0.000000   0.000000   0.000000  -0.000000  -0.000000
    24  H   -0.000000   0.000000   0.000000   0.000043   0.000023   0.000000
    25  H    0.303658  -0.000008  -0.000115  -0.000000  -0.000000   0.000000
    26  H   -0.000008   0.360372  -0.000053   0.000000   0.000012  -0.000000
    27  H   -0.000115  -0.000053   0.309578   0.000000  -0.000438   0.000054
    28  H   -0.000000   0.000000   0.000000   0.275750  -0.000018   0.000070
    29  H   -0.000000   0.000012  -0.000438  -0.000018   0.298093   0.000134
    30  H    0.000000  -0.000000   0.000054   0.000070   0.000134   0.329138
    31  H   -0.000276   0.000000   0.000009   0.000000   0.000000   0.000000
    32  H   -0.000001  -0.000000  -0.000000   0.000000  -0.000000   0.000000
    33  H   -0.000004   0.000000  -0.001519  -0.000003   0.000071  -0.000249
              31         32         33
     1  Si  -0.001517   0.000608  -0.018669
     2  O   -0.002658  -0.000184   0.001144
     3  O    0.000034   0.000395  -0.004346
     4  O   -0.023248   0.001358  -0.011519
     5  O    0.000117   0.000198  -0.000231
     6  Si   0.079094   0.030730   0.050739
     7  Si   0.000473  -0.000513   0.021895
     8  Si  -0.003404   0.000099  -0.003082
     9  Zr   0.000092   0.001153   0.000595
    10  O   -0.000000   0.000000   0.000000
    11  O    0.000000  -0.000000   0.000005
    12  O    0.000000  -0.000001   0.000012
    13  O    0.002061  -0.000002   0.000698
    14  O   -0.000073  -0.000012   0.000472
    15  O   -0.000010   0.000000  -0.000157
    16  O   -0.001389   0.231072   0.000096
    17  O    0.001825  -0.002964   0.213172
    18  O    0.215878   0.004437   0.003095
    19  O    0.000019   0.000032   0.013782
    20  O   -0.000000  -0.000002   0.000193
    21  O   -0.000000   0.000000   0.002715
    22  H    0.000000   0.000000  -0.000000
    23  H   -0.000000  -0.000000  -0.000000
    24  H   -0.000000   0.000000  -0.000000
    25  H   -0.000276  -0.000001  -0.000004
    26  H    0.000000  -0.000000   0.000000
    27  H    0.000009  -0.000000  -0.001519
    28  H    0.000000   0.000000  -0.000003
    29  H    0.000000  -0.000000   0.000071
    30  H    0.000000   0.000000  -0.000249
    31  H    0.334631   0.000017  -0.000047
    32  H    0.000017   0.347478   0.000125
    33  H   -0.000047   0.000125   0.278695
 Mulliken charges:
               1
     1  Si   2.287037
     2  O   -1.372280
     3  O   -1.182292
     4  O   -1.148466
     5  O   -0.840592
     6  Si   2.277105
     7  Si   2.230612
     8  Si   2.246160
     9  Zr   1.390703
    10  O   -0.944265
    11  O   -0.700967
    12  O   -0.840314
    13  O   -0.827535
    14  O   -1.013727
    15  O   -0.854333
    16  O   -0.768922
    17  O   -1.036201
    18  O   -1.045752
    19  O   -1.056085
    20  O   -0.825875
    21  O   -0.880760
    22  H    0.399138
    23  H    0.371247
    24  H    0.387486
    25  H    0.417080
    26  H    0.371651
    27  H    0.421013
    28  H    0.446182
    29  H    0.437247
    30  H    0.419033
    31  H    0.398373
    32  H    0.385978
    33  H    0.452324
 Sum of Mulliken charges =  -0.00000
 Mulliken charges with hydrogens summed into heavy atoms:
               1
     1  Si   2.287037
     2  O   -1.372280
     3  O   -1.182292
     4  O   -1.148466
     5  O   -0.840592
     6  Si   2.277105
     7  Si   2.230612
     8  Si   2.246160
     9  Zr   1.390703
    10  O   -0.573018
    11  O   -0.313481
    12  O   -0.441176
    13  O   -0.410456
    14  O   -0.592714
    15  O   -0.482682
    16  O   -0.382944
    17  O   -0.583877
    18  O   -0.647379
    19  O   -0.637052
    20  O   -0.379693
    21  O   -0.443513
 Electronic spatial extent (au):  <R**2>=           8014.7973
 Charge=             -0.0000 electrons
 Dipole moment (field-independent basis, Debye):
    X=             -1.9193    Y=             -3.7960    Z=             -2.5242  Tot=              4.9462
 Quadrupole moment (field-independent basis, Debye-Ang):
   XX=           -156.9568   YY=           -156.4590   ZZ=           -160.6932
   XY=             -3.6626   XZ=              2.0735   YZ=             -7.6972
 Traceless Quadrupole moment (field-independent basis, Debye-Ang):
   XX=              1.0796   YY=              1.5773   ZZ=             -2.6569
   XY=             -3.6626   XZ=              2.0735   YZ=             -7.6972
 Octapole moment (field-independent basis, Debye-Ang**2):
  XXX=           -204.2682  YYY=            -19.3309  ZZZ=            -37.9299  XYY=            -56.8598
  XXY=            -36.8119  XXZ=            -72.2704  XZZ=              9.7699  YZZ=            -26.4144
  YYZ=            -30.1875  XYZ=              7.8023
 Hexadecapole moment (field-independent basis, Debye-Ang**3):
 XXXX=          -5292.3256 YYYY=          -2173.5155 ZZZZ=          -2111.2184 XXXY=             24.1672
 XXXZ=            133.4403 YYYX=             14.9947 YYYZ=            -91.0529 ZZZX=            161.1365
 ZZZY=           -104.6499 XXYY=          -1458.2654 XXZZ=          -1118.7461 YYZZ=           -704.8820
 XXYZ=             12.2582 YYXZ=            -24.7500 ZZXY=            -94.2457
 N-N= 3.039996697780D+03 E-N=-1.179175255802D+04  KE= 2.373124831135D+03
 1\1\GINC-GRA629\FOpt\RB3LYP\Gen\H12O16Si4Zr1\SARASHS\29-Jul-2020\0\\#n
  B3LYP/Gen Pseudo=cards EmpiricalDispersion=GD3 Opt=modredundant\\Titl
 e\\0,1\Si,-0.1355930316,0.1816739302,-0.8742552724\O,-1.0009379679,-1.
 1946534786,-0.9780988332\O,0.5970328921,0.2796061265,0.6259059504\O,-1
 .1373146893,1.4720624044,-1.0840403913\O,1.1803936044,0.2126657232,-1.
 8197073197\Si,-2.706126749,1.7446875718,-0.6492655191\Si,0.4347294412,
 0.3185484473,2.2764328286\Si,-2.1504429704,-2.1159056637,-0.2214269004
 \Zr,2.83544146,-0.0280590775,-0.6598116184\O,4.3116990335,-0.024093100
 4,-1.8965173355\O,2.8324820043,-1.7362216065,0.2458580823\O,3.26534381
 27,1.4619964921,0.6189924641\O,-3.5453093364,-2.0049421639,-1.07278828
 65\O,-2.3036352914,-1.5864667007,1.346825215\O,-1.6509626194,-3.668794
 8175,-0.0814419816\O,-3.0292206599,3.3338693527,-0.9233502298\O,-2.949
 2564238,1.2084666975,0.885951937\O,-3.7772775939,0.8385262099,-1.53433
 73425\O,-0.800317827,1.4348546548,2.5299644459\O,1.838898507,0.8218660
 917,2.9275279856\O,0.0379183236,-1.145674895,2.8776741436\H,4.04772474
 82,2.024789308,0.6362907044\H,5.0333583628,-0.2914602145,-2.4676115631
 \H,2.4516990722,-2.2914317878,0.9325389015\H,-3.7796235472,-1.11099799
 9,-1.3791676882\H,-1.5166766048,-4.1675318294,-0.8941635919\H,-2.83177
 95568,-0.7714301782,1.4123832925\H,2.4689154498,1.1836439874,2.2665890
 413\H,-0.8023252602,-1.5041170104,2.5286912914\H,-0.8654221147,1.78983
 0066,3.4252361865\H,-4.1386078227,1.258108259,-2.3236699124\H,-2.27145
 17214,3.9157667536,-1.0505570272\H,-2.2464949241,1.433708447,1.5366383
 43\\Version=ES64L-G16RevB.01\State=1-A\HF=-2416.9435959\RMSD=5.467e-09
 \RMSF=4.770e-04\Dipole=0.783093,1.5028065,-0.9566827\Quadrupole=0.8326
 283,1.043615,-1.8762432,-2.8152226,-1.4931245,5.7179148\PG=C01 [X(H12O
 16Si4Zr1)]\\@


 At the touch of love, everyone becomes a poet.
                                -- Plato
 Job cpu time:       1 days  3 hours 37 minutes 58.8 seconds.
 Elapsed time:       0 days  2 hours  4 minutes 12.1 seconds.
 File lengths (MBytes):  RWF=    167 Int=      0 D2E=      0 Chk=     21 Scr=      1
 Normal termination of Gaussian 16 at Wed Jul 29 22:10:25 2020.
