 Entering Gaussian System, Link 0=g16
 Initial command:
 /opt/software/gaussian/g16.b01/l1.exe "/localscratch/sarashs.36567450.0/Gau-7581.inp" -scrdir="/localscratch/sarashs.36567450.0/"
 Entering Link 1 = /opt/software/gaussian/g16.b01/l1.exe PID=      7587.
  
 Copyright (c) 1988-2017, Gaussian, Inc.  All Rights Reserved.
  
 This is part of the Gaussian(R) 16 program.  It is based on
 the Gaussian(R) 09 system (copyright 2009, Gaussian, Inc.),
 the Gaussian(R) 03 system (copyright 2003, Gaussian, Inc.),
 the Gaussian(R) 98 system (copyright 1998, Gaussian, Inc.),
 the Gaussian(R) 94 system (copyright 1995, Gaussian, Inc.),
 the Gaussian 92(TM) system (copyright 1992, Gaussian, Inc.),
 the Gaussian 90(TM) system (copyright 1990, Gaussian, Inc.),
 the Gaussian 88(TM) system (copyright 1988, Gaussian, Inc.),
 the Gaussian 86(TM) system (copyright 1986, Carnegie Mellon
 University), and the Gaussian 82(TM) system (copyright 1983,
 Carnegie Mellon University). Gaussian is a federally registered
 trademark of Gaussian, Inc.
  
 This software contains proprietary and confidential information,
 including trade secrets, belonging to Gaussian, Inc.
  
 This software is provided under written license and may be
 used, copied, transmitted, or stored only in accord with that
 written license.
  
 The following legend is applicable only to US Government
 contracts under FAR:
  
                    RESTRICTED RIGHTS LEGEND
  
 Use, reproduction and disclosure by the US Government is
 subject to restrictions as set forth in subparagraphs (a)
 and (c) of the Commercial Computer Software - Restricted
 Rights clause in FAR 52.227-19.
  
 Gaussian, Inc.
 340 Quinnipiac St., Bldg. 40, Wallingford CT 06492
  
  
 ---------------------------------------------------------------
 Warning -- This program may not be used in any manner that
 competes with the business of Gaussian, Inc. or will provide
 assistance to any competitor of Gaussian, Inc.  The licensee
 of this program is prohibited from giving any competitor of
 Gaussian, Inc. access to this program.  By using this program,
 the user acknowledges that Gaussian, Inc. is engaged in the
 business of creating and licensing software in the field of
 computational chemistry and represents and warrants to the
 licensee that it is not a competitor of Gaussian, Inc. and that
 it will not use this program in any manner prohibited above.
 ---------------------------------------------------------------
  

 Cite this work as:
 Gaussian 16, Revision B.01,
 M. J. Frisch, G. W. Trucks, H. B. Schlegel, G. E. Scuseria, 
 M. A. Robb, J. R. Cheeseman, G. Scalmani, V. Barone, 
 G. A. Petersson, H. Nakatsuji, X. Li, M. Caricato, A. V. Marenich, 
 J. Bloino, B. G. Janesko, R. Gomperts, B. Mennucci, H. P. Hratchian, 
 J. V. Ortiz, A. F. Izmaylov, J. L. Sonnenberg, D. Williams-Young, 
 F. Ding, F. Lipparini, F. Egidi, J. Goings, B. Peng, A. Petrone, 
 T. Henderson, D. Ranasinghe, V. G. Zakrzewski, J. Gao, N. Rega, 
 G. Zheng, W. Liang, M. Hada, M. Ehara, K. Toyota, R. Fukuda, 
 J. Hasegawa, M. Ishida, T. Nakajima, Y. Honda, O. Kitao, H. Nakai, 
 T. Vreven, K. Throssell, J. A. Montgomery, Jr., J. E. Peralta, 
 F. Ogliaro, M. J. Bearpark, J. J. Heyd, E. N. Brothers, K. N. Kudin, 
 V. N. Staroverov, T. A. Keith, R. Kobayashi, J. Normand, 
 K. Raghavachari, A. P. Rendell, J. C. Burant, S. S. Iyengar, 
 J. Tomasi, M. Cossi, J. M. Millam, M. Klene, C. Adamo, R. Cammi, 
 J. W. Ochterski, R. L. Martin, K. Morokuma, O. Farkas, 
 J. B. Foresman, and D. J. Fox, Gaussian, Inc., Wallingford CT, 2016.
 
 ******************************************
 Gaussian 16:  ES64L-G16RevB.01 20-Dec-2017
                29-Jul-2020 
 ******************************************
 %NProcShared=16
 Will use up to   16 processors via shared memory.
 ------------------------------------------------------------------
 #n B3LYP/Gen Pseudo=cards EmpiricalDispersion=GD3 Opt=modredundant
 ------------------------------------------------------------------
 1/18=120,19=15,26=3,38=1/1,3;
 2/9=110,12=2,17=6,18=5,40=1/2;
 3/5=7,11=2,16=1,17=8,25=1,30=1,71=1,74=-5,124=31/1,2,3;
 4//1;
 5/5=2,38=5/2;
 6/7=2,8=2,9=2,10=2,28=1/1;
 7//1,2,3,16;
 1/18=20,19=15,26=3/3(2);
 2/9=110/2;
 99//99;
 2/9=110/2;
 3/5=7,6=1,11=2,16=1,17=8,25=1,30=1,71=1,74=-5,82=7,124=31/1,2,3;
 4/5=5,16=3,69=1/1;
 5/5=2,38=5/2;
 7//1,2,3,16;
 1/18=20,19=15,26=3/3(-5);
 2/9=110/2;
 6/7=2,8=2,9=2,10=2,19=2,28=1/1;
 99/9=1/99;
 -----
 Title
 -----
 Symbolic Z-matrix:
 Charge =  0 Multiplicity = 1
 Si                   -0.13817   0.15907  -0.88672 
 O                    -1.00571  -1.21557  -1.00367 
 O                     0.58179   0.25267   0.61501 
 O                    -1.1339    1.45311  -1.10627 
 O                     1.18134   0.19206  -1.82677 
 Si                   -2.69339   1.74371  -0.65114 
 Si                    0.45246   0.31404   2.26262 
 Si                   -2.1548   -2.1204   -0.22503 
 Zr                    2.88309  -0.01599  -0.75203 
 O                     4.3195    0.03552  -2.03526 
 O                     2.93255  -1.7232    0.149 
 O                     3.28626   1.47116   0.53375 
 O                    -3.55825  -2.00436  -1.06221 
 O                    -2.28687  -1.57711   1.34004 
 O                    -1.66915  -3.67748  -0.08045 
 O                    -3.00596   3.33412  -0.93077 
 O                    -2.92057   1.21838   0.89035 
 O                    -3.78511   0.84272  -1.51643 
 O                    -0.76335   1.45159   2.52316 
 O                     1.87673   0.80442   2.88257 
 O                     0.04596  -1.13257   2.9006 
 H                     4.0395    2.07224   0.55088 
 H                     5.0328   -0.24299  -2.61192 
 H                     2.61316  -2.31106   0.83898 
 H                    -3.79221  -1.10963  -1.36628 
 H                    -1.5614   -4.18568  -0.89124 
 H                    -2.80623  -0.75615   1.40497 
 H                     2.4905    1.16992   2.20997 
 H                    -0.78842  -1.49858   2.54684 
 H                    -0.84185   1.77955   3.42764 
 H                    -4.15196   1.2615   -2.30365 
 H                    -2.24428   3.9095   -1.06409 
 H                    -2.21087   1.44549   1.53341 
 
 The following ModRedundant input section has been read:
 A       1       5       9 F                                                   
 

 GradGradGradGradGradGradGradGradGradGradGradGradGradGradGradGradGradGrad
 Berny optimization.
 Initialization pass.
                           ----------------------------
                           !    Initial Parameters    !
                           ! (Angstroms and Degrees)  !
 --------------------------                            --------------------------
 ! Name  Definition              Value          Derivative Info.                !
 --------------------------------------------------------------------------------
 ! R1    R(1,2)                  1.6297         estimate D2E/DX2                !
 ! R2    R(1,3)                  1.668          estimate D2E/DX2                !
 ! R3    R(1,4)                  1.6475         estimate D2E/DX2                !
 ! R4    R(1,5)                  1.6205         estimate D2E/DX2                !
 ! R5    R(1,9)                  3.0293         estimate D2E/DX2                !
 ! R6    R(2,8)                  1.6569         estimate D2E/DX2                !
 ! R7    R(3,7)                  1.6538         estimate D2E/DX2                !
 ! R8    R(4,6)                  1.6503         estimate D2E/DX2                !
 ! R9    R(5,9)                  2.0234         estimate D2E/DX2                !
 ! R10   R(6,16)                 1.6448         estimate D2E/DX2                !
 ! R11   R(6,17)                 1.6443         estimate D2E/DX2                !
 ! R12   R(6,18)                 1.659          estimate D2E/DX2                !
 ! R13   R(7,19)                 1.6853         estimate D2E/DX2                !
 ! R14   R(7,20)                 1.6289         estimate D2E/DX2                !
 ! R15   R(7,21)                 1.6325         estimate D2E/DX2                !
 ! R16   R(8,13)                 1.6383         estimate D2E/DX2                !
 ! R17   R(8,14)                 1.6619         estimate D2E/DX2                !
 ! R18   R(8,15)                 1.6375         estimate D2E/DX2                !
 ! R19   R(9,10)                 1.9268         estimate D2E/DX2                !
 ! R20   R(9,11)                 1.931          estimate D2E/DX2                !
 ! R21   R(9,12)                 2.0068         estimate D2E/DX2                !
 ! R22   R(10,23)                0.9586         estimate D2E/DX2                !
 ! R23   R(11,24)                0.9611         estimate D2E/DX2                !
 ! R24   R(12,22)                0.9638         estimate D2E/DX2                !
 ! R25   R(13,25)                0.9735         estimate D2E/DX2                !
 ! R26   R(14,27)                0.9736         estimate D2E/DX2                !
 ! R27   R(15,26)                0.9629         estimate D2E/DX2                !
 ! R28   R(16,32)                0.9638         estimate D2E/DX2                !
 ! R29   R(17,33)                0.9843         estimate D2E/DX2                !
 ! R30   R(18,31)                0.9642         estimate D2E/DX2                !
 ! R31   R(19,30)                0.9653         estimate D2E/DX2                !
 ! R32   R(20,28)                0.9812         estimate D2E/DX2                !
 ! R33   R(21,29)                0.9774         estimate D2E/DX2                !
 ! A1    A(2,1,3)              109.9808         estimate D2E/DX2                !
 ! A2    A(2,1,4)              109.3435         estimate D2E/DX2                !
 ! A3    A(2,1,5)              114.1426         estimate D2E/DX2                !
 ! A4    A(2,1,9)              119.036          estimate D2E/DX2                !
 ! A5    A(3,1,4)              109.6804         estimate D2E/DX2                !
 ! A6    A(3,1,5)               99.7688         estimate D2E/DX2                !
 ! A7    A(3,1,9)               62.1432         estimate D2E/DX2                !
 ! A8    A(4,1,5)              113.5061         estimate D2E/DX2                !
 ! A9    A(4,1,9)              130.8514         estimate D2E/DX2                !
 ! A10   A(1,2,8)              142.7567         estimate D2E/DX2                !
 ! A11   A(1,3,7)              149.9119         estimate D2E/DX2                !
 ! A12   A(1,4,6)              132.2743         estimate D2E/DX2                !
 ! A13   A(1,5,9)              112.0001         Frozen                          !
 ! A14   A(4,6,16)             107.6353         estimate D2E/DX2                !
 ! A15   A(4,6,17)             109.4409         estimate D2E/DX2                !
 ! A16   A(4,6,18)             112.4799         estimate D2E/DX2                !
 ! A17   A(16,6,17)            116.2345         estimate D2E/DX2                !
 ! A18   A(16,6,18)            108.144          estimate D2E/DX2                !
 ! A19   A(17,6,18)            102.9751         estimate D2E/DX2                !
 ! A20   A(3,7,19)             103.6202         estimate D2E/DX2                !
 ! A21   A(3,7,20)             108.7814         estimate D2E/DX2                !
 ! A22   A(3,7,21)             112.0818         estimate D2E/DX2                !
 ! A23   A(19,7,20)            111.639          estimate D2E/DX2                !
 ! A24   A(19,7,21)            110.9828         estimate D2E/DX2                !
 ! A25   A(20,7,21)            109.6189         estimate D2E/DX2                !
 ! A26   A(2,8,13)             108.3776         estimate D2E/DX2                !
 ! A27   A(2,8,14)             108.6105         estimate D2E/DX2                !
 ! A28   A(2,8,15)             110.799          estimate D2E/DX2                !
 ! A29   A(13,8,14)            112.954          estimate D2E/DX2                !
 ! A30   A(13,8,15)            111.5028         estimate D2E/DX2                !
 ! A31   A(14,8,15)            104.553          estimate D2E/DX2                !
 ! A32   A(1,9,10)             135.426          estimate D2E/DX2                !
 ! A33   A(1,9,11)              95.5884         estimate D2E/DX2                !
 ! A34   A(1,9,12)             100.721          estimate D2E/DX2                !
 ! A35   A(5,9,10)             105.693          estimate D2E/DX2                !
 ! A36   A(5,9,11)             111.1174         estimate D2E/DX2                !
 ! A37   A(5,9,12)             115.6626         estimate D2E/DX2                !
 ! A38   A(10,9,11)            108.3785         estimate D2E/DX2                !
 ! A39   A(10,9,12)            104.8992         estimate D2E/DX2                !
 ! A40   A(11,9,12)            110.5516         estimate D2E/DX2                !
 ! A41   A(9,10,23)            161.3685         estimate D2E/DX2                !
 ! A42   A(9,11,24)            150.1408         estimate D2E/DX2                !
 ! A43   A(9,12,22)            129.0895         estimate D2E/DX2                !
 ! A44   A(8,13,25)            115.5044         estimate D2E/DX2                !
 ! A45   A(8,14,27)            112.3856         estimate D2E/DX2                !
 ! A46   A(8,15,26)            117.432          estimate D2E/DX2                !
 ! A47   A(6,16,32)            116.7803         estimate D2E/DX2                !
 ! A48   A(6,17,33)            116.0494         estimate D2E/DX2                !
 ! A49   A(6,18,31)            116.1247         estimate D2E/DX2                !
 ! A50   A(7,19,30)            115.6491         estimate D2E/DX2                !
 ! A51   A(7,20,28)            113.4661         estimate D2E/DX2                !
 ! A52   A(7,21,29)            113.7637         estimate D2E/DX2                !
 ! D1    D(3,1,2,8)             50.0624         estimate D2E/DX2                !
 ! D2    D(4,1,2,8)            -70.4297         estimate D2E/DX2                !
 ! D3    D(5,1,2,8)            161.2125         estimate D2E/DX2                !
 ! D4    D(9,1,2,8)            118.5426         estimate D2E/DX2                !
 ! D5    D(2,1,3,7)            -60.1512         estimate D2E/DX2                !
 ! D6    D(4,1,3,7)             60.1373         estimate D2E/DX2                !
 ! D7    D(5,1,3,7)            179.5701         estimate D2E/DX2                !
 ! D8    D(9,1,3,7)           -173.2287         estimate D2E/DX2                !
 ! D9    D(2,1,4,6)             37.0076         estimate D2E/DX2                !
 ! D10   D(3,1,4,6)            -83.6678         estimate D2E/DX2                !
 ! D11   D(5,1,4,6)            165.7183         estimate D2E/DX2                !
 ! D12   D(9,1,4,6)           -153.3777         estimate D2E/DX2                !
 ! D13   D(2,1,9,10)            92.4151         estimate D2E/DX2                !
 ! D14   D(2,1,9,11)           -31.0002         estimate D2E/DX2                !
 ! D15   D(2,1,9,12)          -143.1802         estimate D2E/DX2                !
 ! D16   D(3,1,9,10)          -169.0355         estimate D2E/DX2                !
 ! D17   D(3,1,9,11)            67.5492         estimate D2E/DX2                !
 ! D18   D(3,1,9,12)           -44.6308         estimate D2E/DX2                !
 ! D19   D(4,1,9,10)           -76.3668         estimate D2E/DX2                !
 ! D20   D(4,1,9,11)           160.2178         estimate D2E/DX2                !
 ! D21   D(4,1,9,12)            48.0378         estimate D2E/DX2                !
 ! D22   D(1,2,8,13)           108.4711         estimate D2E/DX2                !
 ! D23   D(1,2,8,14)           -14.5876         estimate D2E/DX2                !
 ! D24   D(1,2,8,15)          -128.8886         estimate D2E/DX2                !
 ! D25   D(1,3,7,19)           -46.0619         estimate D2E/DX2                !
 ! D26   D(1,3,7,20)          -164.9541         estimate D2E/DX2                !
 ! D27   D(1,3,7,21)            73.6681         estimate D2E/DX2                !
 ! D28   D(1,4,6,16)           169.4411         estimate D2E/DX2                !
 ! D29   D(1,4,6,17)            42.2775         estimate D2E/DX2                !
 ! D30   D(1,4,6,18)           -71.5346         estimate D2E/DX2                !
 ! D31   D(4,6,16,32)          -16.3726         estimate D2E/DX2                !
 ! D32   D(17,6,16,32)         106.7215         estimate D2E/DX2                !
 ! D33   D(18,6,16,32)        -138.134          estimate D2E/DX2                !
 ! D34   D(4,6,17,33)           44.2632         estimate D2E/DX2                !
 ! D35   D(16,6,17,33)         -77.8848         estimate D2E/DX2                !
 ! D36   D(18,6,17,33)         164.0932         estimate D2E/DX2                !
 ! D37   D(4,6,18,31)          -92.9354         estimate D2E/DX2                !
 ! D38   D(16,6,18,31)          25.7911         estimate D2E/DX2                !
 ! D39   D(17,6,18,31)         149.3552         estimate D2E/DX2                !
 ! D40   D(3,7,19,30)         -166.1155         estimate D2E/DX2                !
 ! D41   D(20,7,19,30)         -49.2104         estimate D2E/DX2                !
 ! D42   D(21,7,19,30)          73.4066         estimate D2E/DX2                !
 ! D43   D(3,7,20,28)           12.9879         estimate D2E/DX2                !
 ! D44   D(19,7,20,28)        -100.7463         estimate D2E/DX2                !
 ! D45   D(21,7,20,28)         135.8599         estimate D2E/DX2                !
 ! D46   D(3,7,21,29)          -57.2164         estimate D2E/DX2                !
 ! D47   D(19,7,21,29)          58.1093         estimate D2E/DX2                !
 ! D48   D(20,7,21,29)        -178.1114         estimate D2E/DX2                !
 ! D49   D(2,8,13,25)          -43.843          estimate D2E/DX2                !
 ! D50   D(14,8,13,25)          76.5485         estimate D2E/DX2                !
 ! D51   D(15,8,13,25)        -166.0547         estimate D2E/DX2                !
 ! D52   D(2,8,14,27)           78.098          estimate D2E/DX2                !
 ! D53   D(13,8,14,27)         -42.1603         estimate D2E/DX2                !
 ! D54   D(15,8,14,27)        -163.5737         estimate D2E/DX2                !
 ! D55   D(2,8,15,26)          -65.1514         estimate D2E/DX2                !
 ! D56   D(13,8,15,26)          55.6545         estimate D2E/DX2                !
 ! D57   D(14,8,15,26)         178.0211         estimate D2E/DX2                !
 ! D58   D(1,9,10,23)         -104.7694         estimate D2E/DX2                !
 ! D59   D(5,9,10,23)         -105.0484         estimate D2E/DX2                !
 ! D60   D(11,9,10,23)          14.1403         estimate D2E/DX2                !
 ! D61   D(12,9,10,23)         132.2515         estimate D2E/DX2                !
 ! D62   D(1,9,11,24)          -45.2848         estimate D2E/DX2                !
 ! D63   D(5,9,11,24)          -71.4528         estimate D2E/DX2                !
 ! D64   D(10,9,11,24)         172.8347         estimate D2E/DX2                !
 ! D65   D(12,9,11,24)          58.3837         estimate D2E/DX2                !
 ! D66   D(1,9,12,22)         -145.2877         estimate D2E/DX2                !
 ! D67   D(5,9,12,22)         -118.0996         estimate D2E/DX2                !
 ! D68   D(10,9,12,22)          -2.1005         estimate D2E/DX2                !
 ! D69   D(11,9,12,22)         114.5271         estimate D2E/DX2                !
 --------------------------------------------------------------------------------
 Trust Radius=3.00D-01 FncErr=1.00D-07 GrdErr=1.00D-06 EigMax=2.50D+02 EigMin=1.00D-04
 Number of steps in this run=    164 maximum allowed number of steps=    198.
 GradGradGradGradGradGradGradGradGradGradGradGradGradGradGradGradGradGrad

                          Input orientation:                          
 ---------------------------------------------------------------------
 Center     Atomic      Atomic             Coordinates (Angstroms)
 Number     Number       Type             X           Y           Z
 ---------------------------------------------------------------------
      1         14           0       -0.138170    0.159070   -0.886720
      2          8           0       -1.005710   -1.215570   -1.003670
      3          8           0        0.581790    0.252670    0.615010
      4          8           0       -1.133900    1.453110   -1.106270
      5          8           0        1.181340    0.192060   -1.826770
      6         14           0       -2.693390    1.743710   -0.651140
      7         14           0        0.452460    0.314040    2.262620
      8         14           0       -2.154800   -2.120400   -0.225030
      9         40           0        2.883090   -0.015990   -0.752030
     10          8           0        4.319500    0.035520   -2.035260
     11          8           0        2.932550   -1.723200    0.149000
     12          8           0        3.286260    1.471160    0.533750
     13          8           0       -3.558250   -2.004360   -1.062210
     14          8           0       -2.286870   -1.577110    1.340040
     15          8           0       -1.669150   -3.677480   -0.080450
     16          8           0       -3.005960    3.334120   -0.930770
     17          8           0       -2.920570    1.218380    0.890350
     18          8           0       -3.785110    0.842720   -1.516430
     19          8           0       -0.763350    1.451590    2.523160
     20          8           0        1.876730    0.804420    2.882570
     21          8           0        0.045960   -1.132570    2.900600
     22          1           0        4.039500    2.072240    0.550880
     23          1           0        5.032800   -0.242990   -2.611920
     24          1           0        2.613160   -2.311060    0.838980
     25          1           0       -3.792210   -1.109630   -1.366280
     26          1           0       -1.561400   -4.185680   -0.891240
     27          1           0       -2.806230   -0.756150    1.404970
     28          1           0        2.490500    1.169920    2.209970
     29          1           0       -0.788420   -1.498580    2.546840
     30          1           0       -0.841850    1.779550    3.427640
     31          1           0       -4.151960    1.261500   -2.303650
     32          1           0       -2.244280    3.909500   -1.064090
     33          1           0       -2.210870    1.445490    1.533410
 ---------------------------------------------------------------------
                    Distance matrix (angstroms):
                    1          2          3          4          5
     1  Si   0.000000
     2  O    1.629705   0.000000
     3  O    1.668022   2.701113   0.000000
     4  O    1.647489   2.673726   2.710619   0.000000
     5  O    1.620459   2.728022   2.515039   2.733076   0.000000
     6  Si   3.015913   3.424891   3.814858   1.650334   4.336272
     7  Si   3.207990   3.890323   1.653817   3.894026   4.155629
     8  Si   3.114581   1.656926   3.718340   3.819528   4.363814
     9  Zr   3.029323   4.077386   2.690160   4.291847   2.023439
    10  O    4.604914   5.566621   4.587108   5.710705   3.148971
    11  O    3.747663   4.134759   3.106010   5.310430   3.261690
    12  O    3.932688   5.291804   2.967403   4.714637   3.411574
    13  O    4.050700   2.672279   5.004716   4.222974   5.279444
    14  O    3.548196   2.695377   3.478933   4.061528   5.018678
    15  O    4.208692   2.711732   4.582191   5.259444   5.113538
    16  O    4.278680   4.970512   4.975613   2.659625   5.311199
    17  O    3.467256   3.630167   3.643478   2.689569   5.026106
    18  O    3.763520   3.496362   4.894999   2.751313   5.018495
    19  O    3.699830   4.428432   2.624471   3.648297   4.928501
    20  O    4.322481   5.243251   2.668919   5.039398   4.799629
    21  O    4.005750   4.044283   2.725789   4.912516   5.039024
    22  H    4.814545   6.219362   3.907775   5.467498   4.166218
    23  H    5.465976   6.324238   5.519986   6.570535   3.954677
    24  H    4.080368   4.206148   3.278618   5.656274   3.927078
    25  H    3.897638   2.811991   4.991317   3.701601   5.161652
    26  H    4.571920   3.023737   5.153737   5.659059   5.249995
    27  H    3.634283   3.042119   3.622214   3.739498   5.219575
    28  H    4.185835   5.314276   2.651117   4.920764   4.354926
    29  H    3.867811   3.568393   2.945559   4.709251   5.085930
    30  H    4.662062   5.351084   3.502713   4.555019   5.849978
    31  H    4.396994   4.210073   5.651965   3.252556   5.460330
    32  H    4.304984   5.272954   4.917159   2.696029   5.112330
    33  H    3.436276   3.869163   3.172574   2.850935   4.936495
                    6          7          8          9         10
     6  Si   0.000000
     7  Si   4.519992   0.000000
     8  Si   3.924665   4.348874   0.000000
     9  Zr   5.848406   3.886515   5.485126   0.000000
    10  O    7.349444   5.788207   7.059850   1.926812   0.000000
    11  O    6.656643   3.842991   5.116522   1.931028   3.128533
    12  O    6.102005   3.515443   6.563550   2.006836   3.119048
    13  O    3.868461   5.702216   1.638294   6.748384   8.195540
    14  O    3.893315   3.454205   1.661942   5.791575   7.591927
    15  O    5.546535   5.091506   1.637455   5.880512   7.312426
    16  O    1.644779   5.592789   5.565459   6.777617   8.109440
    17  O    1.644316   3.752104   3.602489   6.156586   7.897909
    18  O    1.659025   5.702431   3.620180   6.766578   8.161217
    19  O    3.726469   1.685258   4.716757   5.116364   6.972791
    20  O    5.852809   1.628912   5.870689   3.859553   5.544672
    21  O    5.328403   1.632465   3.948255   4.757916   6.632518
    22  H    6.847232   4.346053   7.519948   2.719478   3.303748
    23  H    8.214965   6.711999   7.802788   2.851661   0.958593
    24  H    6.842594   3.685990   4.888958   2.805623   4.084029
    25  H    3.140124   5.763070   2.237235   6.792126   8.219413
    26  H    6.041251   5.852345   2.249742   6.095833   7.328867
    27  H    3.238768   3.535524   2.223160   6.129343   7.952229
    28  H    5.948773   2.211088   6.191465   3.214647   4.759630
    29  H    4.936439   2.214984   3.152288   5.153698   7.031355
    30  H    4.479501   2.276012   5.502313   5.879522   7.715209
    31  H    2.256267   6.553563   4.443710   7.316518   8.563918
    32  H    2.250083   5.591667   6.088655   6.465043   7.683365
    33  H    2.256993   2.984167   3.976283   5.771273   7.574243
                   11         12         13         14         15
    11  O    0.000000
    12  O    3.236832   0.000000
    13  O    6.608825   7.840513   0.000000
    14  O    5.355582   6.403267   2.751319   0.000000
    15  O    5.004748   7.172296   2.707745   2.609775   0.000000
    16  O    7.874534   6.723650   5.368582   5.458374   7.188368
    17  O    6.592534   6.222202   3.821672   2.901476   5.145673
    18  O    7.381366   7.389347   2.891997   4.032334   5.193412
    19  O    5.419927   4.511926   5.710511   3.590809   5.822939
    20  O    3.869887   2.819268   7.279392   5.038517   6.437405
    21  O    4.031445   4.783402   5.427173   2.841665   4.278414
    22  H    3.973941   0.963826   8.771917   7.345984   8.126902
    23  H    3.771571   3.985468   8.905625   8.424692   7.944822
    24  H    0.961073   3.853754   6.464897   4.979964   4.588097
    25  H    6.920617   7.770156   0.973518   3.131893   3.571358
    26  H    5.228909   7.584869   2.962228   3.508497   0.962942
    27  H    5.953675   6.545103   2.865404   0.973615   3.468947
    28  H    3.579546   1.879812   7.574338   5.579087   6.785720
    29  H    4.432348   5.429079   4.577446   1.925587   3.525045
    30  H    6.104493   5.050841   6.469587   4.208720   6.539900
    31  H    8.069338   7.963788   3.543939   4.981239   5.958229
    32  H    7.745868   6.251837   6.058074   5.990371   7.672065
    33  H    6.197738   5.587344   4.522625   3.029732   5.398410
                   16         17         18         19         20
    16  O    0.000000
    17  O    2.792870   0.000000
    18  O    2.675284   2.584790   0.000000
    19  O    4.528007   2.715521   5.081343   0.000000
    20  O    6.691906   5.210987   7.170014   2.741902   0.000000
    21  O    6.629097   4.285834   6.171630   2.734104   2.665328
    22  H    7.309318   7.020462   8.185964   5.229002   3.423700
    23  H    8.957882   8.812354   8.951782   7.926916   6.422403
    24  H    8.159325   6.563669   7.512133   5.328679   3.798000
    25  H    4.533737   3.357345   1.958128   5.555320   7.338474
    26  H    7.657396   5.850237   5.533584   6.638812   7.138871
    27  H    4.714433   2.043692   3.471191   3.209022   5.152552
    28  H    6.690223   5.569867   7.305915   3.281001   0.981170
    29  H    6.353443   3.830391   5.565249   2.950372   3.538297
    30  H    5.108405   3.327736   5.829602   0.965300   2.939159
    31  H    2.737493   3.423422   0.964194   5.900585   7.965608
    32  H    0.963843   3.394014   3.461778   4.593783   6.496181
    33  H    3.204883   0.984266   3.484693   1.753555   4.351974
                   21         22         23         24         25
    21  O    0.000000
    22  H    5.633858   0.000000
    23  H    7.486508   4.043543   0.000000
    24  H    3.497089   4.618524   4.694708   0.000000
    25  H    5.739193   8.668072   8.954523   6.880071   0.000000
    26  H    5.126708   8.521230   7.873310   4.892322   3.829394
    27  H    3.242466   7.456090   8.823215   5.666381   2.962589
    28  H    3.428441   2.442573   5.631183   3.743245   7.580129
    29  H    0.977394   6.327987   7.878827   3.891999   4.948388
    30  H    3.089728   5.673534   8.664783   5.947381   6.327215
    31  H    7.101994   8.712385   9.312268   8.270801   2.574945
    32  H    6.810759   6.743111   8.520261   8.118606   5.261090
    33  H    3.689022   6.358090   8.515015   6.153468   4.175820
                   26         27         28         29         30
    26  H    0.000000
    27  H    4.310900   0.000000
    28  H    7.397151   5.693252   0.000000
    29  H    4.431523   2.434466   4.240954   0.000000
    30  H    7.399625   3.792065   3.599851   3.394820   0.000000
    31  H    6.194972   4.431226   8.031403   6.516034   6.638742
    32  H    8.125770   5.308515   6.375179   6.663758   5.165185
    33  H    6.165291   2.284331   4.757789   3.423150   2.360915
                   31         32         33
    31  H    0.000000
    32  H    3.491082   0.000000
    33  H    4.304034   3.580428   0.000000
 Stoichiometry    H12O16Si4Zr
 Framework group  C1[X(H12O16Si4Zr)]
 Deg. of freedom    93
 Full point group                 C1      NOp   1
 Largest Abelian subgroup         C1      NOp   1
 Largest concise Abelian subgroup C1      NOp   1
                         Standard orientation:                         
 ---------------------------------------------------------------------
 Center     Atomic      Atomic             Coordinates (Angstroms)
 Number     Number       Type             X           Y           Z
 ---------------------------------------------------------------------
      1         14           0        0.137758   -0.159633   -0.884244
      2          8           0        1.005236    1.214773   -1.004354
      3          8           0       -0.578750   -0.251855    0.619222
      4          8           0        1.132781   -1.454012   -1.104998
      5          8           0       -1.183923   -0.193212   -1.821219
      6         14           0        2.693272   -1.744470   -0.653222
      7         14           0       -0.445629   -0.311856    2.266580
      8         14           0        2.156257    2.120081   -0.229131
      9         40           0       -2.883157    0.016008   -0.742732
     10          8           0       -4.322531   -0.036362   -2.022601
     11          8           0       -2.930277    1.723985    0.156969
     12          8           0       -3.283587   -1.469995    0.545229
     13          8           0        3.557754    2.003118   -1.069448
     14          8           0        2.291854    1.578091    1.336088
     15          8           0        1.671180    3.677358   -0.084745
     16          8           0        3.004953   -3.335164   -0.932230
     17          8           0        2.924088   -1.217875    0.887296
     18          8           0        3.783131   -0.844379   -1.521788
     19          8           0        0.770605   -1.449374    2.525274
     20          8           0       -1.868540   -0.801492    2.890228
     21          8           0       -0.037437    1.135229    2.902400
     22          1           0       -4.036877   -2.070943    0.564603
     23          1           0       -5.037117    0.241772   -2.597849
     24          1           0       -2.609206    2.312377    0.845714
     25          1           0        3.790876    1.108096   -1.373302
     26          1           0        1.561638    4.184891   -0.895713
     27          1           0        2.811237    0.757106    1.400512
     28          1           0       -2.483916   -1.167464    2.219354
     29          1           0        0.796181    1.500811    2.546407
     30          1           0        0.851141   -1.776583    3.429847
     31          1           0        4.148099   -1.263880   -2.309498
     32          1           0        2.242879   -3.910538   -1.063307
     33          1           0        2.215839   -1.444333    1.532183
 ---------------------------------------------------------------------
 Rotational constants (GHZ):           0.2621828           0.1368934           0.1336425
 General basis read from cards:  (5D, 7F)
 ======================================================================================================
                                       Pseudopotential Parameters
 ======================================================================================================
  Center     Atomic      Valence      Angular      Power
  Number     Number     Electrons     Momentum     of R      Exponent        Coefficient   SO-Coeffient
 ======================================================================================================
    1         14
                                   No pseudopotential on this center.
    2          8
                                   No pseudopotential on this center.
    3          8
                                   No pseudopotential on this center.
    4          8
                                   No pseudopotential on this center.
    5          8
                                   No pseudopotential on this center.
    6         14
                                   No pseudopotential on this center.
    7         14
                                   No pseudopotential on this center.
    8         14
                                   No pseudopotential on this center.
    9         40           12
                                      G and up 
                                                     2        1.0000000        0.00000000    0.00000000
                                      S - G
                                                     2        8.6365280      150.24299400    0.00000000
                                                     2        3.7176390       18.78003600    0.00000000
                                      P - G
                                                     2        7.6267280       33.19279100    0.00000000
                                                     2        7.4532070       66.38903900    0.00000000
                                                     2        3.3583890        4.62072600    0.00000000
                                                     2        3.2297380        9.26027000    0.00000000
                                      D - G
                                                     2        5.9380860       13.99338300    0.00000000
                                                     2        5.8255440       20.99588200    0.00000000
                                                     2        2.2050190        2.28516600    0.00000000
                                                     2        2.2062920        3.44126000    0.00000000
                                      F - G
                                                     2        4.8002150       -5.23932000    0.00000000
                                                     2        4.7989920       -6.98742400    0.00000000
   10          8
                                   No pseudopotential on this center.
   11          8
                                   No pseudopotential on this center.
   12          8
                                   No pseudopotential on this center.
   13          8
                                   No pseudopotential on this center.
   14          8
                                   No pseudopotential on this center.
   15          8
                                   No pseudopotential on this center.
   16          8
                                   No pseudopotential on this center.
   17          8
                                   No pseudopotential on this center.
   18          8
                                   No pseudopotential on this center.
   19          8
                                   No pseudopotential on this center.
   20          8
                                   No pseudopotential on this center.
   21          8
                                   No pseudopotential on this center.
   22          1
                                   No pseudopotential on this center.
   23          1
                                   No pseudopotential on this center.
   24          1
                                   No pseudopotential on this center.
   25          1
                                   No pseudopotential on this center.
   26          1
                                   No pseudopotential on this center.
   27          1
                                   No pseudopotential on this center.
   28          1
                                   No pseudopotential on this center.
   29          1
                                   No pseudopotential on this center.
   30          1
                                   No pseudopotential on this center.
   31          1
                                   No pseudopotential on this center.
   32          1
                                   No pseudopotential on this center.
   33          1
                                   No pseudopotential on this center.
 ======================================================================================================
 There are   570 symmetry adapted cartesian basis functions of A   symmetry.
 There are   524 symmetry adapted basis functions of A   symmetry.
   524 basis functions,  1074 primitive gaussians,   570 cartesian basis functions
   104 alpha electrons      104 beta electrons
       nuclear repulsion energy      3032.6094271808 Hartrees.
 NAtoms=   33 NActive=   33 NUniq=   33 SFac= 1.00D+00 NAtFMM=   60 NAOKFM=F Big=F
 Integral buffers will be    131072 words long.
 Raffenetti 2 integral format.
 Two-electron integral symmetry is turned on.
 Nuclear repulsion after empirical dispersion term =     3032.5623988100 Hartrees.
 One-electron integrals computed using PRISM.
 PrsmSu:  requested number of processors reduced to:   4 ShMem   1 Linda.
   1 Symmetry operations used in ECPInt.
 ECPInt:  NShTT=   13203 NPrTT=   78401 LenC2=   11897 LenP2D=   45139.
 LDataN:  DoStor=T MaxTD1= 8 Len=  415
 Number of processors reduced to  13 by ecpmxn.
 NBasis=   524 RedAO= T EigKep=  2.50D-05  NBF=   524
 NBsUse=   524 1.00D-06 EigRej= -1.00D+00 NBFU=   524
 Defaulting to unpruned grid for atomic number  40.
 ExpMin= 1.01D-02 ExpMax= 1.61D+04 ExpMxC= 2.43D+03 IAcc=3 IRadAn=         5 AccDes= 0.00D+00
 Harris functional with IExCor=  402 and IRadAn=       5 diagonalized for initial guess.
 HarFok:  IExCor=  402 AccDes= 0.00D+00 IRadAn=         5 IDoV= 1 UseB2=F ITyADJ=14
 ICtDFT=  3500011 ScaDFX=  1.000000  1.000000  1.000000  1.000000
 Defaulting to unpruned grid for atomic number  40.
 FoFCou: FMM=F IPFlag=           0 FMFlag=      100000 FMFlg1=           0
         NFxFlg=           0 DoJE=T BraDBF=F KetDBF=T FulRan=T
         wScrn=  0.000000 ICntrl=       500 IOpCl=  0 I1Cent=   200000004 NGrid=           0
         NMat0=    1 NMatS0=      1 NMatT0=    0 NMatD0=    1 NMtDS0=    0 NMtDT0=    0
 Petite list used in FoFCou.
 Requested convergence on RMS density matrix=1.00D-08 within 128 cycles.
 Requested convergence on MAX density matrix=1.00D-06.
 Requested convergence on             energy=1.00D-06.
 No special actions if energy rises.
 Defaulting to unpruned grid for atomic number  40.
 Defaulting to unpruned grid for atomic number  40.
 Defaulting to unpruned grid for atomic number  40.
 Defaulting to unpruned grid for atomic number  40.
 Defaulting to unpruned grid for atomic number  40.
 Defaulting to unpruned grid for atomic number  40.
 Defaulting to unpruned grid for atomic number  40.
 Defaulting to unpruned grid for atomic number  40.
 Defaulting to unpruned grid for atomic number  40.
 Defaulting to unpruned grid for atomic number  40.
 Defaulting to unpruned grid for atomic number  40.
 Defaulting to unpruned grid for atomic number  40.
 Defaulting to unpruned grid for atomic number  40.
 Defaulting to unpruned grid for atomic number  40.
 Defaulting to unpruned grid for atomic number  40.
 Defaulting to unpruned grid for atomic number  40.
 SCF Done:  E(RB3LYP) =  -2416.94375451     A.U. after   14 cycles
            NFock= 14  Conv=0.38D-08     -V/T= 2.0185

 **********************************************************************

            Population analysis using the SCF Density.

 **********************************************************************

 Orbital symmetries:
       Occupied  (A) (A) (A) (A) (A) (A) (A) (A) (A) (A) (A) (A)
                 (A) (A) (A) (A) (A) (A) (A) (A) (A) (A) (A) (A)
                 (A) (A) (A) (A) (A) (A) (A) (A) (A) (A) (A) (A)
                 (A) (A) (A) (A) (A) (A) (A) (A) (A) (A) (A) (A)
                 (A) (A) (A) (A) (A) (A) (A) (A) (A) (A) (A) (A)
                 (A) (A) (A) (A) (A) (A) (A) (A) (A) (A) (A) (A)
                 (A) (A) (A) (A) (A) (A) (A) (A) (A) (A) (A) (A)
                 (A) (A) (A) (A) (A) (A) (A) (A) (A) (A) (A) (A)
                 (A) (A) (A) (A) (A) (A) (A) (A)
       Virtual   (A) (A) (A) (A) (A) (A) (A) (A) (A) (A) (A) (A)
                 (A) (A) (A) (A) (A) (A) (A) (A) (A) (A) (A) (A)
                 (A) (A) (A) (A) (A) (A) (A) (A) (A) (A) (A) (A)
                 (A) (A) (A) (A) (A) (A) (A) (A) (A) (A) (A) (A)
                 (A) (A) (A) (A) (A) (A) (A) (A) (A) (A) (A) (A)
                 (A) (A) (A) (A) (A) (A) (A) (A) (A) (A) (A) (A)
                 (A) (A) (A) (A) (A) (A) (A) (A) (A) (A) (A) (A)
                 (A) (A) (A) (A) (A) (A) (A) (A) (A) (A) (A) (A)
                 (A) (A) (A) (A) (A) (A) (A) (A) (A) (A) (A) (A)
                 (A) (A) (A) (A) (A) (A) (A) (A) (A) (A) (A) (A)
                 (A) (A) (A) (A) (A) (A) (A) (A) (A) (A) (A) (A)
                 (A) (A) (A) (A) (A) (A) (A) (A) (A) (A) (A) (A)
                 (A) (A) (A) (A) (A) (A) (A) (A) (A) (A) (A) (A)
                 (A) (A) (A) (A) (A) (A) (A) (A) (A) (A) (A) (A)
                 (A) (A) (A) (A) (A) (A) (A) (A) (A) (A) (A) (A)
                 (A) (A) (A) (A) (A) (A) (A) (A) (A) (A) (A) (A)
                 (A) (A) (A) (A) (A) (A) (A) (A) (A) (A) (A) (A)
                 (A) (A) (A) (A) (A) (A) (A) (A) (A) (A) (A) (A)
                 (A) (A) (A) (A) (A) (A) (A) (A) (A) (A) (A) (A)
                 (A) (A) (A) (A) (A) (A) (A) (A) (A) (A) (A) (A)
                 (A) (A) (A) (A) (A) (A) (A) (A) (A) (A) (A) (A)
                 (A) (A) (A) (A) (A) (A) (A) (A) (A) (A) (A) (A)
                 (A) (A) (A) (A) (A) (A) (A) (A) (A) (A) (A) (A)
                 (A) (A) (A) (A) (A) (A) (A) (A) (A) (A) (A) (A)
                 (A) (A) (A) (A) (A) (A) (A) (A) (A) (A) (A) (A)
                 (A) (A) (A) (A) (A) (A) (A) (A) (A) (A) (A) (A)
                 (A) (A) (A) (A) (A) (A) (A) (A) (A) (A) (A) (A)
                 (A) (A) (A) (A) (A) (A) (A) (A) (A) (A) (A) (A)
                 (A) (A) (A) (A) (A) (A) (A) (A) (A) (A) (A) (A)
                 (A) (A) (A) (A) (A) (A) (A) (A) (A) (A) (A) (A)
                 (A) (A) (A) (A) (A) (A) (A) (A) (A) (A) (A) (A)
                 (A) (A) (A) (A) (A) (A) (A) (A) (A) (A) (A) (A)
                 (A) (A) (A) (A) (A) (A) (A) (A) (A) (A) (A) (A)
                 (A) (A) (A) (A) (A) (A) (A) (A) (A) (A) (A) (A)
                 (A) (A) (A) (A) (A) (A) (A) (A) (A) (A) (A) (A)
 The electronic state is 1-A.
 Alpha  occ. eigenvalues --  -66.23552 -66.23200 -66.22342 -66.21851 -19.18924
 Alpha  occ. eigenvalues --  -19.18854 -19.18114 -19.17494 -19.17250 -19.17215
 Alpha  occ. eigenvalues --  -19.16707 -19.16427 -19.16142 -19.15809 -19.15782
 Alpha  occ. eigenvalues --  -19.15308 -19.15286 -19.15107 -19.14960 -19.14442
 Alpha  occ. eigenvalues --   -5.37615  -5.37097  -5.36392  -5.35902  -3.73611
 Alpha  occ. eigenvalues --   -3.73579  -3.73507  -3.73147  -3.73075  -3.72968
 Alpha  occ. eigenvalues --   -3.72455  -3.72353  -3.72221  -3.71903  -3.71843
 Alpha  occ. eigenvalues --   -3.71814  -2.12469  -1.28840  -1.28525  -1.28148
 Alpha  occ. eigenvalues --   -1.06701  -1.05459  -1.04524  -1.03381  -1.02923
 Alpha  occ. eigenvalues --   -1.02381  -1.01564  -1.01019  -1.00368  -1.00207
 Alpha  occ. eigenvalues --   -0.99854  -0.99493  -0.97812  -0.96964  -0.96154
 Alpha  occ. eigenvalues --   -0.95452  -0.62783  -0.61171  -0.60134  -0.57060
 Alpha  occ. eigenvalues --   -0.55922  -0.55326  -0.53608  -0.53322  -0.52562
 Alpha  occ. eigenvalues --   -0.52325  -0.51233  -0.50555  -0.50411  -0.50014
 Alpha  occ. eigenvalues --   -0.49242  -0.45956  -0.44134  -0.43813  -0.42931
 Alpha  occ. eigenvalues --   -0.42548  -0.42234  -0.41679  -0.40800  -0.40260
 Alpha  occ. eigenvalues --   -0.39146  -0.38963  -0.38418  -0.37782  -0.37498
 Alpha  occ. eigenvalues --   -0.37240  -0.36997  -0.36629  -0.36213  -0.35939
 Alpha  occ. eigenvalues --   -0.35687  -0.35632  -0.35151  -0.35116  -0.34532
 Alpha  occ. eigenvalues --   -0.34236  -0.33920  -0.33404  -0.33165  -0.32844
 Alpha  occ. eigenvalues --   -0.32589  -0.32369  -0.32245  -0.31863
 Alpha virt. eigenvalues --   -0.04108  -0.02792  -0.02195  -0.01916  -0.01515
 Alpha virt. eigenvalues --   -0.01274  -0.00442   0.00223   0.00625   0.01232
 Alpha virt. eigenvalues --    0.01369   0.01543   0.02363   0.02594   0.02793
 Alpha virt. eigenvalues --    0.03176   0.03361   0.03460   0.03734   0.03928
 Alpha virt. eigenvalues --    0.04179   0.04584   0.04920   0.05727   0.06313
 Alpha virt. eigenvalues --    0.06586   0.07138   0.07551   0.07998   0.08418
 Alpha virt. eigenvalues --    0.08707   0.08889   0.09222   0.09574   0.09821
 Alpha virt. eigenvalues --    0.10315   0.10472   0.10768   0.11020   0.11321
 Alpha virt. eigenvalues --    0.11628   0.12033   0.12355   0.12665   0.12992
 Alpha virt. eigenvalues --    0.13505   0.13952   0.14195   0.14382   0.14851
 Alpha virt. eigenvalues --    0.15071   0.15495   0.15763   0.16160   0.16444
 Alpha virt. eigenvalues --    0.16818   0.17258   0.17636   0.17754   0.18327
 Alpha virt. eigenvalues --    0.18413   0.18783   0.19223   0.19780   0.20193
 Alpha virt. eigenvalues --    0.20436   0.20729   0.21376   0.21478   0.22030
 Alpha virt. eigenvalues --    0.22200   0.22575   0.22955   0.23212   0.23517
 Alpha virt. eigenvalues --    0.23993   0.24221   0.24361   0.24669   0.25003
 Alpha virt. eigenvalues --    0.25250   0.25503   0.25874   0.26176   0.26706
 Alpha virt. eigenvalues --    0.26914   0.27063   0.27320   0.27774   0.28172
 Alpha virt. eigenvalues --    0.28335   0.28633   0.28772   0.29123   0.29458
 Alpha virt. eigenvalues --    0.29649   0.29831   0.30559   0.30772   0.31092
 Alpha virt. eigenvalues --    0.31260   0.31585   0.31717   0.32309   0.32446
 Alpha virt. eigenvalues --    0.32853   0.33261   0.33670   0.34080   0.34740
 Alpha virt. eigenvalues --    0.34841   0.35209   0.35691   0.36541   0.37147
 Alpha virt. eigenvalues --    0.37234   0.37371   0.37900   0.38702   0.38867
 Alpha virt. eigenvalues --    0.39272   0.40026   0.40820   0.41552   0.41803
 Alpha virt. eigenvalues --    0.42421   0.42519   0.43019   0.43754   0.43982
 Alpha virt. eigenvalues --    0.44820   0.45275   0.45486   0.46112   0.46693
 Alpha virt. eigenvalues --    0.47128   0.47734   0.49313   0.49707   0.50396
 Alpha virt. eigenvalues --    0.50751   0.51611   0.52271   0.52937   0.54483
 Alpha virt. eigenvalues --    0.54929   0.55347   0.55828   0.57153   0.57265
 Alpha virt. eigenvalues --    0.57539   0.58368   0.60609   0.60922   0.61198
 Alpha virt. eigenvalues --    0.61960   0.63394   0.64094   0.64224   0.64506
 Alpha virt. eigenvalues --    0.66425   0.66838   0.67484   0.68282   0.69350
 Alpha virt. eigenvalues --    0.70289   0.71300   0.72055   0.72276   0.73498
 Alpha virt. eigenvalues --    0.74172   0.74548   0.75387   0.77602   0.77961
 Alpha virt. eigenvalues --    0.80140   0.81409   0.82314   0.83060   0.84093
 Alpha virt. eigenvalues --    0.85961   0.86137   0.88353   0.89575   0.93347
 Alpha virt. eigenvalues --    0.94160   0.95274   0.95606   0.96828   0.97614
 Alpha virt. eigenvalues --    0.98208   0.99349   1.00214   1.00524   1.02120
 Alpha virt. eigenvalues --    1.02484   1.04349   1.05106   1.05999   1.06194
 Alpha virt. eigenvalues --    1.07896   1.08656   1.09438   1.09961   1.11596
 Alpha virt. eigenvalues --    1.12494   1.14062   1.15143   1.15752   1.17566
 Alpha virt. eigenvalues --    1.18621   1.19474   1.20830   1.21159   1.21700
 Alpha virt. eigenvalues --    1.22501   1.22907   1.23210   1.23572   1.24289
 Alpha virt. eigenvalues --    1.24450   1.25596   1.25632   1.26204   1.26701
 Alpha virt. eigenvalues --    1.26899   1.27228   1.27929   1.29039   1.29519
 Alpha virt. eigenvalues --    1.29581   1.30302   1.31060   1.31376   1.31478
 Alpha virt. eigenvalues --    1.32011   1.32337   1.33251   1.34206   1.34534
 Alpha virt. eigenvalues --    1.34991   1.35522   1.36267   1.36606   1.37535
 Alpha virt. eigenvalues --    1.38279   1.38522   1.39492   1.40167   1.41047
 Alpha virt. eigenvalues --    1.42703   1.43172   1.44255   1.45058   1.46301
 Alpha virt. eigenvalues --    1.47307   1.48455   1.50448   1.52369   1.53383
 Alpha virt. eigenvalues --    1.55470   1.56354   1.58180   1.59037   1.59546
 Alpha virt. eigenvalues --    1.59922   1.61084   1.61787   1.62655   1.63113
 Alpha virt. eigenvalues --    1.64202   1.65882   1.66350   1.66701   1.67432
 Alpha virt. eigenvalues --    1.68028   1.68926   1.69659   1.70103   1.70624
 Alpha virt. eigenvalues --    1.71385   1.71514   1.72695   1.73394   1.73665
 Alpha virt. eigenvalues --    1.73962   1.74763   1.75042   1.75824   1.76599
 Alpha virt. eigenvalues --    1.77568   1.78297   1.78514   1.78691   1.79080
 Alpha virt. eigenvalues --    1.80425   1.80720   1.81126   1.82121   1.83074
 Alpha virt. eigenvalues --    1.84012   1.85030   1.85429   1.86518   1.87377
 Alpha virt. eigenvalues --    1.87743   1.89052   1.89905   1.91024   1.91910
 Alpha virt. eigenvalues --    1.92163   1.92343   1.94246   1.95036   1.95815
 Alpha virt. eigenvalues --    1.97228   1.97399   1.98241   1.98675   1.99655
 Alpha virt. eigenvalues --    2.00798   2.01851   2.03124   2.04062   2.04456
 Alpha virt. eigenvalues --    2.04853   2.05344   2.07185   2.08644   2.08851
 Alpha virt. eigenvalues --    2.09372   2.12289   2.14065   2.14292   2.15513
 Alpha virt. eigenvalues --    2.17088   2.18936   2.19399   2.22746   2.23477
 Alpha virt. eigenvalues --    2.27613   2.31953   2.33252   2.38224   2.38718
 Alpha virt. eigenvalues --    2.39508   2.40114   2.40788   2.41962   2.42538
 Alpha virt. eigenvalues --    2.44182   2.44585   2.46963   2.47483   2.48956
 Alpha virt. eigenvalues --    2.49425   2.51723   2.52353   2.52899   2.54837
 Alpha virt. eigenvalues --    2.56614   2.58587   2.59307   2.60060   2.60189
 Alpha virt. eigenvalues --    2.60771   2.61123   2.61347   2.62223   2.63199
 Alpha virt. eigenvalues --    2.63815   2.64849   2.65483   2.66135   2.66259
 Alpha virt. eigenvalues --    2.67124   2.67976   2.70823   2.71880   2.72335
 Alpha virt. eigenvalues --    2.72703   2.73298   2.74842   2.75607   2.76407
 Alpha virt. eigenvalues --    2.77305   2.77781   2.78068   2.79025   2.81816
 Alpha virt. eigenvalues --    2.82262   2.84040   2.84291   2.85344   2.86513
 Alpha virt. eigenvalues --    2.87350   2.89357   2.90083   2.92725   2.96576
 Alpha virt. eigenvalues --    3.00007   3.05083   3.18265   3.27902   3.46326
 Alpha virt. eigenvalues --    3.48112   3.49103   3.50191   3.52615   3.56499
 Alpha virt. eigenvalues --    3.59938   3.60959   3.61719   3.63991   3.72002
 Alpha virt. eigenvalues --    3.75929   4.01434   4.13248   6.69468  30.88816
          Condensed to atoms (all electrons):
               1          2          3          4          5          6
     1  Si  24.137573  -1.116815  -2.650250  -1.571927  -3.925136  -0.209028
     2  O   -1.116815  10.081650   0.474835  -0.138769   0.207687  -0.130087
     3  O   -2.650250   0.474835  11.147527   0.401147   1.060622   0.061170
     4  O   -1.571927  -0.138769   0.401147   9.825720   0.542482  -0.576063
     5  O   -3.925136   0.207687   1.060622   0.542482  10.491681  -0.002474
     6  Si  -0.209028  -0.130087   0.061170  -0.576063  -0.002474  13.683769
     7  Si  -1.712821  -0.172715  -1.792834   0.001722   0.305821   0.045501
     8  Si  -0.202389  -0.572267  -0.124278   0.041285   0.042144  -0.209528
     9  Zr  -1.342865   0.060682  -0.507462  -0.006571   0.251127   0.023305
    10  O   -0.023315   0.001192   0.011699   0.000867  -0.027462  -0.000861
    11  O    0.080383  -0.003441  -0.069451  -0.002175  -0.041077  -0.000395
    12  O    0.044590   0.004352  -0.036349  -0.010124  -0.023183  -0.002107
    13  O   -0.020785   0.237879   0.001798  -0.005563  -0.002443   0.065176
    14  O   -0.035621   0.387996   0.114810  -0.020465  -0.012816   0.011058
    15  O    0.012425   0.088575   0.006052   0.002352  -0.004501  -0.011009
    16  O    0.068242   0.015467  -0.007279   0.274735  -0.014334  -0.525155
    17  O   -0.067459  -0.034586   0.032341   0.255545   0.018645  -0.361537
    18  O   -0.082299  -0.005788  -0.011875   0.179975   0.005916  -0.305573
    19  O    0.156584  -0.008400   0.510947   0.017699  -0.009439  -0.007064
    20  O    0.221875  -0.005554   0.438894  -0.005116  -0.031981   0.000926
    21  O   -0.013954   0.045348   0.222431  -0.006684  -0.006285  -0.000183
    22  H   -0.000277  -0.000005   0.004546   0.000174   0.000207  -0.000173
    23  H   -0.001447   0.000001  -0.000115   0.000002  -0.000057   0.000016
    24  H   -0.011272   0.000456   0.003446   0.000026   0.000308   0.000025
    25  H   -0.000884  -0.005769  -0.000125   0.002894  -0.000001   0.004972
    26  H   -0.008941  -0.015506   0.000394  -0.000091   0.000156  -0.000108
    27  H    0.011692  -0.033006  -0.014135  -0.004861  -0.000141   0.005937
    28  H   -0.006981  -0.000137  -0.001568   0.000328   0.001154  -0.000450
    29  H   -0.003860  -0.006786  -0.026701   0.000891  -0.000174  -0.000424
    30  H   -0.002316  -0.000103  -0.010140  -0.000197   0.000154   0.000075
    31  H   -0.001091  -0.002586   0.000042  -0.023103   0.000098   0.078967
    32  H    0.000575  -0.000176   0.000397   0.001632   0.000188   0.030475
    33  H   -0.017985   0.001311  -0.005125  -0.011906  -0.000300   0.052026
               7          8          9         10         11         12
     1  Si  -1.712821  -0.202389  -1.342865  -0.023315   0.080383   0.044590
     2  O   -0.172715  -0.572267   0.060682   0.001192  -0.003441   0.004352
     3  O   -1.792834  -0.124278  -0.507462   0.011699  -0.069451  -0.036349
     4  O    0.001722   0.041285  -0.006571   0.000867  -0.002175  -0.010124
     5  O    0.305821   0.042144   0.251127  -0.027462  -0.041077  -0.023183
     6  Si   0.045501  -0.209528   0.023305  -0.000861  -0.000395  -0.002107
     7  Si  16.476640   0.168967   0.299309   0.004929  -0.040149  -0.004557
     8  Si   0.168967  12.908037   0.088772  -0.000917   0.001885   0.002223
     9  Zr   0.299309   0.088772  11.970596  -0.097096   0.155198   0.095808
    10  O    0.004929  -0.000917  -0.097096   8.802477  -0.046707  -0.044251
    11  O   -0.040149   0.001885   0.155198  -0.046707   8.377004  -0.019660
    12  O   -0.004557   0.002223   0.095808  -0.044251  -0.019660   8.556130
    13  O    0.010565  -0.165656  -0.006797  -0.000001  -0.000074  -0.000006
    14  O   -0.139024  -0.497742  -0.034937  -0.000007   0.000132   0.000031
    15  O   -0.016245  -0.087736  -0.011634  -0.000005   0.000247   0.000020
    16  O   -0.002971  -0.014933  -0.015839  -0.000001   0.000009   0.000057
    17  O   -0.071283   0.117344  -0.015348  -0.000017  -0.000093   0.000038
    18  O   -0.004750   0.112276  -0.002703   0.000001  -0.000020  -0.000018
    19  O   -0.749339  -0.031132  -0.073414  -0.000066   0.000159  -0.003318
    20  O   -0.836557   0.005821  -0.082417  -0.000740   0.003218  -0.018951
    21  O   -0.189411  -0.040621  -0.002321  -0.000018   0.007062   0.001255
    22  H   -0.000633   0.000032  -0.027686  -0.001948   0.000213   0.267455
    23  H   -0.000316   0.000034  -0.079829   0.342660  -0.000140  -0.000107
    24  H    0.003187  -0.000937  -0.057686   0.000537   0.315697  -0.002212
    25  H   -0.000788   0.042868  -0.000514  -0.000000   0.000000   0.000000
    26  H    0.000727   0.062423   0.000008   0.000000   0.000053   0.000000
    27  H    0.016088   0.089640   0.003275   0.000000  -0.000006  -0.000001
    28  H    0.023984  -0.000330   0.003794   0.000502  -0.001010   0.033209
    29  H    0.070718   0.022997  -0.001753  -0.000000  -0.000237   0.000007
    30  H    0.054311   0.000218   0.002244  -0.000000   0.000004   0.000094
    31  H    0.000463  -0.003610   0.000101  -0.000000   0.000000   0.000000
    32  H   -0.000508   0.000091   0.001099   0.000000  -0.000000  -0.000002
    33  H    0.022180  -0.003090   0.000286   0.000000   0.000005   0.000012
              13         14         15         16         17         18
     1  Si  -0.020785  -0.035621   0.012425   0.068242  -0.067459  -0.082299
     2  O    0.237879   0.387996   0.088575   0.015467  -0.034586  -0.005788
     3  O    0.001798   0.114810   0.006052  -0.007279   0.032341  -0.011875
     4  O   -0.005563  -0.020465   0.002352   0.274735   0.255545   0.179975
     5  O   -0.002443  -0.012816  -0.004501  -0.014334   0.018645   0.005916
     6  Si   0.065176   0.011058  -0.011009  -0.525155  -0.361537  -0.305573
     7  Si   0.010565  -0.139024  -0.016245  -0.002971  -0.071283  -0.004750
     8  Si  -0.165656  -0.497742  -0.087736  -0.014933   0.117344   0.112276
     9  Zr  -0.006797  -0.034937  -0.011634  -0.015839  -0.015348  -0.002703
    10  O   -0.000001  -0.000007  -0.000005  -0.000001  -0.000017   0.000001
    11  O   -0.000074   0.000132   0.000247   0.000009  -0.000093  -0.000020
    12  O   -0.000006   0.000031   0.000020   0.000057   0.000038  -0.000018
    13  O    8.630831   0.008103  -0.079055   0.003331  -0.024463  -0.044500
    14  O    0.008103   8.985220   0.086554   0.006192  -0.059605  -0.026744
    15  O   -0.079055   0.086554   8.614334  -0.000219   0.003498   0.002078
    16  O    0.003331   0.006192  -0.000219   8.947919  -0.121703  -0.074562
    17  O   -0.024463  -0.059605   0.003498  -0.121703   8.998292   0.171004
    18  O   -0.044500  -0.026744   0.002078  -0.074562   0.171004   8.898050
    19  O    0.000375   0.019329   0.000614  -0.001800  -0.013661  -0.000599
    20  O   -0.000026  -0.003367   0.000309  -0.000001   0.001759   0.000042
    21  O   -0.001041   0.044109   0.004958  -0.000069  -0.010944  -0.000073
    22  H   -0.000000  -0.000001   0.000000  -0.000000   0.000001  -0.000000
    23  H   -0.000000  -0.000000   0.000000   0.000000   0.000000   0.000000
    24  H    0.000003  -0.000034   0.000001   0.000000   0.000003   0.000000
    25  H    0.227652  -0.008531   0.006797   0.000176   0.000371   0.010878
    26  H   -0.007391   0.003514   0.232974   0.000000  -0.000013   0.000009
    27  H   -0.002369   0.188009   0.001628  -0.000175   0.013039   0.001007
    28  H    0.000000  -0.000002  -0.000002  -0.000003  -0.000010   0.000000
    29  H    0.000568   0.002220   0.000156  -0.000010  -0.000251   0.000026
    30  H   -0.000002  -0.000433   0.000000  -0.000067   0.000263  -0.000008
    31  H    0.002133  -0.000079  -0.000012  -0.001476   0.001836   0.215414
    32  H   -0.000002  -0.000013   0.000000   0.231307  -0.002960   0.004484
    33  H    0.000660   0.000350  -0.000153   0.000208   0.212164   0.003151
              19         20         21         22         23         24
     1  Si   0.156584   0.221875  -0.013954  -0.000277  -0.001447  -0.011272
     2  O   -0.008400  -0.005554   0.045348  -0.000005   0.000001   0.000456
     3  O    0.510947   0.438894   0.222431   0.004546  -0.000115   0.003446
     4  O    0.017699  -0.005116  -0.006684   0.000174   0.000002   0.000026
     5  O   -0.009439  -0.031981  -0.006285   0.000207  -0.000057   0.000308
     6  Si  -0.007064   0.000926  -0.000183  -0.000173   0.000016   0.000025
     7  Si  -0.749339  -0.836557  -0.189411  -0.000633  -0.000316   0.003187
     8  Si  -0.031132   0.005821  -0.040621   0.000032   0.000034  -0.000937
     9  Zr  -0.073414  -0.082417  -0.002321  -0.027686  -0.079829  -0.057686
    10  O   -0.000066  -0.000740  -0.000018  -0.001948   0.342660   0.000537
    11  O    0.000159   0.003218   0.007062   0.000213  -0.000140   0.315697
    12  O   -0.003318  -0.018951   0.001255   0.267455  -0.000107  -0.002212
    13  O    0.000375  -0.000026  -0.001041  -0.000000  -0.000000   0.000003
    14  O    0.019329  -0.003367   0.044109  -0.000001  -0.000000  -0.000034
    15  O    0.000614   0.000309   0.004958   0.000000   0.000000   0.000001
    16  O   -0.001800  -0.000001  -0.000069  -0.000000   0.000000   0.000000
    17  O   -0.013661   0.001759  -0.010944   0.000001   0.000000   0.000003
    18  O   -0.000599   0.000042  -0.000073  -0.000000   0.000000   0.000000
    19  O    9.048219   0.048154  -0.069211   0.000074  -0.000000   0.000067
    20  O    0.048154   8.752558   0.094166   0.003421  -0.000006  -0.000630
    21  O   -0.069211   0.094166   8.596756  -0.000000  -0.000000  -0.000327
    22  H    0.000074   0.003421  -0.000000   0.357371   0.000011  -0.000006
    23  H   -0.000000  -0.000006  -0.000000   0.000011   0.366614   0.000008
    24  H    0.000067  -0.000630  -0.000327  -0.000006   0.000008   0.361548
    25  H   -0.000033   0.000001  -0.000003  -0.000000   0.000000  -0.000000
    26  H   -0.000000  -0.000001   0.000010  -0.000000  -0.000000  -0.000000
    27  H   -0.001796   0.000061  -0.002974   0.000000   0.000000  -0.000000
    28  H   -0.006084   0.234762  -0.001406  -0.002065   0.000000   0.000038
    29  H   -0.006242   0.004310   0.208459   0.000000  -0.000000   0.000022
    30  H    0.219281  -0.007605  -0.003318   0.000000  -0.000000   0.000000
    31  H    0.000018  -0.000000  -0.000000   0.000000  -0.000000  -0.000000
    32  H    0.000020  -0.000002   0.000000   0.000000  -0.000000   0.000000
    33  H    0.013834   0.000162   0.002676  -0.000000  -0.000000  -0.000000
              25         26         27         28         29         30
     1  Si  -0.000884  -0.008941   0.011692  -0.006981  -0.003860  -0.002316
     2  O   -0.005769  -0.015506  -0.033006  -0.000137  -0.006786  -0.000103
     3  O   -0.000125   0.000394  -0.014135  -0.001568  -0.026701  -0.010140
     4  O    0.002894  -0.000091  -0.004861   0.000328   0.000891  -0.000197
     5  O   -0.000001   0.000156  -0.000141   0.001154  -0.000174   0.000154
     6  Si   0.004972  -0.000108   0.005937  -0.000450  -0.000424   0.000075
     7  Si  -0.000788   0.000727   0.016088   0.023984   0.070718   0.054311
     8  Si   0.042868   0.062423   0.089640  -0.000330   0.022997   0.000218
     9  Zr  -0.000514   0.000008   0.003275   0.003794  -0.001753   0.002244
    10  O   -0.000000   0.000000   0.000000   0.000502  -0.000000  -0.000000
    11  O    0.000000   0.000053  -0.000006  -0.001010  -0.000237   0.000004
    12  O    0.000000   0.000000  -0.000001   0.033209   0.000007   0.000094
    13  O    0.227652  -0.007391  -0.002369   0.000000   0.000568  -0.000002
    14  O   -0.008531   0.003514   0.188009  -0.000002   0.002220  -0.000433
    15  O    0.006797   0.232974   0.001628  -0.000002   0.000156   0.000000
    16  O    0.000176   0.000000  -0.000175  -0.000003  -0.000010  -0.000067
    17  O    0.000371  -0.000013   0.013039  -0.000010  -0.000251   0.000263
    18  O    0.010878   0.000009   0.001007   0.000000   0.000026  -0.000008
    19  O   -0.000033  -0.000000  -0.001796  -0.006084  -0.006242   0.219281
    20  O    0.000001  -0.000001   0.000061   0.234762   0.004310  -0.007605
    21  O   -0.000003   0.000010  -0.002974  -0.001406   0.208459  -0.003318
    22  H   -0.000000  -0.000000   0.000000  -0.002065   0.000000   0.000000
    23  H    0.000000  -0.000000   0.000000   0.000000  -0.000000  -0.000000
    24  H   -0.000000  -0.000000  -0.000000   0.000038   0.000022   0.000000
    25  H    0.304205  -0.000011  -0.000116  -0.000000  -0.000001   0.000000
    26  H   -0.000011   0.360474  -0.000053   0.000000   0.000011  -0.000000
    27  H   -0.000116  -0.000053   0.309106   0.000000  -0.000358   0.000053
    28  H   -0.000000   0.000000   0.000000   0.278823  -0.000021   0.000065
    29  H   -0.000001   0.000011  -0.000358  -0.000021   0.299460   0.000141
    30  H    0.000000  -0.000000   0.000053   0.000065   0.000141   0.332177
    31  H   -0.000327   0.000000   0.000010   0.000000   0.000000   0.000000
    32  H   -0.000001  -0.000000  -0.000000   0.000000  -0.000000   0.000000
    33  H   -0.000005   0.000000  -0.001499  -0.000003   0.000074  -0.000429
              31         32         33
     1  Si  -0.001091   0.000575  -0.017985
     2  O   -0.002586  -0.000176   0.001311
     3  O    0.000042   0.000397  -0.005125
     4  O   -0.023103   0.001632  -0.011906
     5  O    0.000098   0.000188  -0.000300
     6  Si   0.078967   0.030475   0.052026
     7  Si   0.000463  -0.000508   0.022180
     8  Si  -0.003610   0.000091  -0.003090
     9  Zr   0.000101   0.001099   0.000286
    10  O   -0.000000   0.000000   0.000000
    11  O    0.000000  -0.000000   0.000005
    12  O    0.000000  -0.000002   0.000012
    13  O    0.002133  -0.000002   0.000660
    14  O   -0.000079  -0.000013   0.000350
    15  O   -0.000012   0.000000  -0.000153
    16  O   -0.001476   0.231307   0.000208
    17  O    0.001836  -0.002960   0.212164
    18  O    0.215414   0.004484   0.003151
    19  O    0.000018   0.000020   0.013834
    20  O   -0.000000  -0.000002   0.000162
    21  O   -0.000000   0.000000   0.002676
    22  H    0.000000   0.000000  -0.000000
    23  H   -0.000000  -0.000000  -0.000000
    24  H   -0.000000   0.000000  -0.000000
    25  H   -0.000327  -0.000001  -0.000005
    26  H    0.000000  -0.000000   0.000000
    27  H    0.000010  -0.000000  -0.001499
    28  H    0.000000   0.000000  -0.000003
    29  H    0.000000  -0.000000   0.000074
    30  H    0.000000   0.000000  -0.000429
    31  H    0.335338   0.000015  -0.000047
    32  H    0.000015   0.347994   0.000126
    33  H   -0.000047   0.000126   0.278119
 Mulliken charges:
               1
     1  Si   2.295779
     2  O   -1.354935
     3  O   -1.235411
     4  O   -1.165861
     5  O   -0.826590
     6  Si   2.278822
     7  Si   2.229791
     8  Si   2.248111
     9  Zr   1.411269
    10  O   -0.921453
    11  O   -0.716631
    12  O   -0.840434
    13  O   -0.828902
    14  O   -1.018204
    15  O   -0.853003
    16  O   -0.767046
    17  O   -1.042209
    18  O   -1.044799
    19  O   -1.053774
    20  O   -0.817484
    21  O   -0.878388
    22  H    0.399290
    23  H    0.372670
    24  H    0.387734
    25  H    0.416294
    26  H    0.371360
    27  H    0.421946
    28  H    0.443416
    29  H    0.436758
    30  H    0.415536
    31  H    0.397895
    32  H    0.385259
    33  H    0.453196
 Sum of Mulliken charges =  -0.00000
 Mulliken charges with hydrogens summed into heavy atoms:
               1
     1  Si   2.295779
     2  O   -1.354935
     3  O   -1.235411
     4  O   -1.165861
     5  O   -0.826590
     6  Si   2.278822
     7  Si   2.229791
     8  Si   2.248111
     9  Zr   1.411269
    10  O   -0.548784
    11  O   -0.328898
    12  O   -0.441144
    13  O   -0.412608
    14  O   -0.596259
    15  O   -0.481643
    16  O   -0.381787
    17  O   -0.589013
    18  O   -0.646904
    19  O   -0.638238
    20  O   -0.374068
    21  O   -0.441629
 Electronic spatial extent (au):  <R**2>=           8075.7819
 Charge=             -0.0000 electrons
 Dipole moment (field-independent basis, Debye):
    X=             -2.2419    Y=             -3.7115    Z=             -2.5831  Tot=              5.0471
 Quadrupole moment (field-independent basis, Debye-Ang):
   XX=           -156.4222   YY=           -156.1335   ZZ=           -160.7483
   XY=             -3.9710   XZ=              2.1758   YZ=             -7.6625
 Traceless Quadrupole moment (field-independent basis, Debye-Ang):
   XX=              1.3458   YY=              1.6345   ZZ=             -2.9803
   XY=             -3.9710   XZ=              2.1758   YZ=             -7.6625
 Octapole moment (field-independent basis, Debye-Ang**2):
  XXX=           -210.1449  YYY=            -17.7603  ZZZ=            -40.1712  XYY=            -59.5740
  XXY=            -35.7177  XXZ=            -69.2048  XZZ=              9.4993  YZZ=            -26.8471
  YYZ=            -30.1506  XYZ=              8.1692
 Hexadecapole moment (field-independent basis, Debye-Ang**3):
 XXXX=          -5352.4595 YYYY=          -2173.1205 ZZZZ=          -2144.4111 XXXY=             13.7465
 XXXZ=            138.5064 YYYX=             21.3039 YYYZ=            -91.1878 ZZZX=            166.7414
 ZZZY=           -107.0480 XXYY=          -1460.3388 XXZZ=          -1130.2956 YYZZ=           -712.0064
 XXYZ=             12.7398 YYXZ=            -30.6843 ZZXY=            -95.0270
 N-N= 3.032562398810D+03 E-N=-1.177704408111D+04  KE= 2.373124640300D+03
 PrsmSu:  requested number of processors reduced to:   2 ShMem   1 Linda.
 PrsmSu:  requested number of processors reduced to:  10 ShMem   1 Linda.
   1 Symmetry operations used in ECPInt.
 ECPInt:  NShTT=   13203 NPrTT=   78401 LenC2=   11897 LenP2D=   45139.
 LDataN:  DoStor=T MaxTD1= 9 Len=  602
 Number of processors reduced to  14 by ecpmxn.
 Calling FoFJK, ICntrl=      2127 FMM=F ISym2X=0 I1Cent= 0 IOpClX= 0 NMat=1 NMatS=1 NMatT=0.
 CoulSu:  requested number of processors reduced to:  10 ShMem   1 Linda.
 Defaulting to unpruned grid for atomic number  40.
 Defaulting to unpruned grid for atomic number  40.
 Defaulting to unpruned grid for atomic number  40.
 Defaulting to unpruned grid for atomic number  40.
 Defaulting to unpruned grid for atomic number  40.
 Defaulting to unpruned grid for atomic number  40.
 Defaulting to unpruned grid for atomic number  40.
 Defaulting to unpruned grid for atomic number  40.
 Defaulting to unpruned grid for atomic number  40.
 Defaulting to unpruned grid for atomic number  40.
 Defaulting to unpruned grid for atomic number  40.
 Defaulting to unpruned grid for atomic number  40.
 Defaulting to unpruned grid for atomic number  40.
 Defaulting to unpruned grid for atomic number  40.
 Defaulting to unpruned grid for atomic number  40.
 Defaulting to unpruned grid for atomic number  40.
 ***** Axes restored to original set *****
 -------------------------------------------------------------------
 Center     Atomic                   Forces (Hartrees/Bohr)
 Number     Number              X              Y              Z
 -------------------------------------------------------------------
      1       14           0.000357162   -0.000007947    0.000272521
      2        8          -0.000013846   -0.000007889   -0.000032219
      3        8           0.000016796    0.000014039    0.000163393
      4        8          -0.000032642    0.000019502   -0.000030350
      5        8           0.000074309    0.000008889   -0.000119065
      6       14           0.000015941   -0.000059998   -0.000003298
      7       14          -0.000193669   -0.000168838   -0.000404925
      8       14           0.000016814   -0.000008419   -0.000002169
      9       40          -0.000100971    0.000237504   -0.000037918
     10        8          -0.000061215    0.000007225    0.000055023
     11        8          -0.000093312    0.000004006    0.000075581
     12        8          -0.000365082   -0.000285617    0.000037048
     13        8          -0.000004539   -0.000017251   -0.000021438
     14        8          -0.000005612    0.000005305    0.000006810
     15        8           0.000000381   -0.000003018   -0.000000634
     16        8          -0.000009594    0.000030484    0.000008486
     17        8          -0.000009979    0.000015602   -0.000004195
     18        8           0.000008107    0.000016078    0.000002961
     19        8           0.000032625    0.000015054    0.000060124
     20        8           0.000448460    0.000224099   -0.000399620
     21        8           0.000047236    0.000059058    0.000054433
     22        1          -0.000059753   -0.000005690    0.000090288
     23        1          -0.000002272   -0.000005153    0.000006974
     24        1           0.000014025   -0.000013669   -0.000016140
     25        1           0.000000285    0.000012514    0.000008867
     26        1           0.000000672    0.000002146   -0.000005275
     27        1           0.000006084   -0.000003617    0.000001635
     28        1          -0.000065432   -0.000079836    0.000238992
     29        1          -0.000001369    0.000003360   -0.000012380
     30        1          -0.000015383    0.000009734    0.000006628
     31        1           0.000003966   -0.000001723    0.000008484
     32        1          -0.000006213   -0.000004703   -0.000005140
     33        1          -0.000001982   -0.000011229   -0.000003484
 -------------------------------------------------------------------
 Cartesian Forces:  Max     0.000448460 RMS     0.000114635

 GradGradGradGradGradGradGradGradGradGradGradGradGradGradGradGradGradGrad
 Berny optimization.
 FormGI is forming the generalized inverse of G from B-inverse, IUseBI=4.
 Internal  Forces:  Max     0.001609787 RMS     0.000221378
 Search for a local minimum.
 Step number   1 out of a maximum of  164
 All quantities printed in internal units (Hartrees-Bohrs-Radians)
 Mixed Optimization -- En-DIIS/RFO-DIIS
 Second derivative matrix not updated -- first step.
 ITU=  0
     Eigenvalues ---    0.00230   0.00230   0.00230   0.00548   0.03211
     Eigenvalues ---    0.03439   0.03520   0.03558   0.03586   0.03627
     Eigenvalues ---    0.03673   0.03711   0.03747   0.03753   0.03833
     Eigenvalues ---    0.03844   0.03910   0.03946   0.03957   0.04397
     Eigenvalues ---    0.04842   0.08292   0.08628   0.10871   0.11319
     Eigenvalues ---    0.11516   0.11815   0.11842   0.12054   0.12258
     Eigenvalues ---    0.12943   0.12968   0.13045   0.13235   0.14961
     Eigenvalues ---    0.15402   0.16000   0.16000   0.16000   0.16000
     Eigenvalues ---    0.16000   0.16000   0.16000   0.16000   0.16000
     Eigenvalues ---    0.16000   0.16000   0.16000   0.17756   0.18527
     Eigenvalues ---    0.19009   0.20145   0.20369   0.20384   0.21054
     Eigenvalues ---    0.21061   0.21266   0.21462   0.21864   0.22128
     Eigenvalues ---    0.22794   0.25000   0.25000   0.25000   0.36514
     Eigenvalues ---    0.37725   0.40032   0.40890   0.41311   0.41617
     Eigenvalues ---    0.42076   0.42599   0.43032   0.43450   0.43522
     Eigenvalues ---    0.44473   0.44608   0.45420   0.45878   0.46010
     Eigenvalues ---    0.50565   0.51158   0.51894   0.52645   0.52665
     Eigenvalues ---    0.54349   0.54581   0.54655   0.54658   0.54845
     Eigenvalues ---    0.55243   0.557771000.000001000.000001000.00000
     Eigenvalues --- 1000.000001000.000001000.000001000.000001000.00000
     Eigenvalues --- 1000.000001000.000001000.000001000.000001000.00000
     Eigenvalues --- 1000.000001000.000001000.000001000.000001000.00000
     Eigenvalues --- 1000.000001000.000001000.000001000.000001000.00000
     Eigenvalues --- 1000.000001000.000001000.000001000.000001000.00000
     Eigenvalues --- 1000.000001000.000001000.000001000.000001000.00000
     Eigenvalues --- 1000.000001000.000001000.000001000.000001000.00000
     Eigenvalues --- 1000.000001000.000001000.000001000.000001000.00000
     Eigenvalues --- 1000.000001000.000001000.000001000.000001000.00000
     Eigenvalues --- 1000.000001000.000001000.000001000.000001000.00000
     Eigenvalues --- 1000.000001000.000001000.000001000.000001000.00000
     Eigenvalues --- 1000.000001000.000001000.000001000.00000
 RFO step:  Lambda=-6.14084624D-05 EMin= 2.30000000D-03
 Linear search not attempted -- first point.
 Iteration  1 RMS(Cart)=  0.02056515 RMS(Int)=  0.00010251
 Iteration  2 RMS(Cart)=  0.00016754 RMS(Int)=  0.00000655
 Iteration  3 RMS(Cart)=  0.00000001 RMS(Int)=  0.00000655
 Iteration  1 RMS(Cart)=  0.00000197 RMS(Int)=  0.00000106
 Iteration  2 RMS(Cart)=  0.00000140 RMS(Int)=  0.00000116
 Iteration  3 RMS(Cart)=  0.00000100 RMS(Int)=  0.00000134
 Variable       Old X    -DE/DX   Delta X   Delta X   Delta X     New X
                                 (Linear)    (Quad)   (Total)
    R1        3.07970   0.00002   0.00000   0.00004   0.00004   3.07974
    R2        3.15210  -0.00014   0.00000  -0.00036  -0.00036   3.15174
    R3        3.11330   0.00003   0.00000   0.00006   0.00006   3.11337
    R4        3.06222   0.00012   0.00000  -0.00088  -0.00087   3.06135
    R5        5.72459  -0.00070   0.00000  -0.00268  -0.00269   5.72190
    R6        3.13114   0.00000   0.00000   0.00000   0.00000   3.13114
    R7        3.12526  -0.00047   0.00000  -0.00113  -0.00113   3.12413
    R8        3.11868  -0.00001   0.00000  -0.00003  -0.00003   3.11865
    R9        3.82374   0.00007   0.00000  -0.00229  -0.00230   3.82145
   R10        3.10818   0.00003   0.00000   0.00007   0.00007   3.10825
   R11        3.10731  -0.00001   0.00000  -0.00003  -0.00003   3.10728
   R12        3.13510  -0.00002   0.00000  -0.00005  -0.00005   3.13505
   R13        3.18468   0.00002   0.00000   0.00004   0.00004   3.18472
   R14        3.07820   0.00032   0.00000   0.00069   0.00069   3.07889
   R15        3.08491  -0.00005   0.00000  -0.00012  -0.00012   3.08479
   R16        3.09593   0.00001   0.00000   0.00002   0.00002   3.09595
   R17        3.14061   0.00001   0.00000   0.00003   0.00003   3.14065
   R18        3.09434  -0.00000   0.00000  -0.00000  -0.00000   3.09434
   R19        3.64115  -0.00009   0.00000  -0.00040  -0.00040   3.64075
   R20        3.64911   0.00004   0.00000   0.00018   0.00018   3.64929
   R21        3.79237  -0.00023   0.00000  -0.00127  -0.00127   3.79110
   R22        1.81148  -0.00000   0.00000  -0.00001  -0.00001   1.81147
   R23        1.81617  -0.00000   0.00000  -0.00001  -0.00001   1.81616
   R24        1.82137  -0.00005   0.00000  -0.00009  -0.00009   1.82128
   R25        1.83968   0.00001   0.00000   0.00002   0.00002   1.83970
   R26        1.83987  -0.00000   0.00000  -0.00001  -0.00001   1.83986
   R27        1.81970  -0.00000   0.00000  -0.00000  -0.00000   1.81970
[...]
 Alpha virt. eigenvalues --    2.99989   3.05066   3.18259   3.27946   3.46336
 Alpha virt. eigenvalues --    3.48112   3.49117   3.50222   3.52680   3.56506
 Alpha virt. eigenvalues --    3.59964   3.61000   3.61824   3.63986   3.72056
 Alpha virt. eigenvalues --    3.76083   4.01523   4.13240   6.70817  30.88983
          Condensed to atoms (all electrons):
               1          2          3          4          5          6
     1  Si  24.178424  -1.122661  -2.663432  -1.573823  -3.932856  -0.209782
     2  O   -1.122661  10.082363   0.477358  -0.140451   0.209788  -0.129139
     3  O   -2.663432   0.477358  11.158359   0.402340   1.063335   0.061002
     4  O   -1.573823  -0.140451   0.402340   9.826412   0.543829  -0.574455
     5  O   -3.932856   0.209788   1.063335   0.543829  10.492503  -0.002587
     6  Si  -0.209782  -0.129139   0.061002  -0.574455  -0.002587  13.681324
     7  Si  -1.721474  -0.171971  -1.799959   0.001640   0.306495   0.045440
     8  Si  -0.202266  -0.571091  -0.124265   0.041620   0.041777  -0.209555
     9  Zr  -1.348941   0.061245  -0.508206  -0.006307   0.251996   0.023509
    10  O   -0.023406   0.001190   0.011751   0.000866  -0.027496  -0.000855
    11  O    0.080787  -0.003462  -0.069301  -0.002173  -0.041299  -0.000394
    12  O    0.045019   0.004407  -0.036867  -0.010245  -0.023279  -0.002153
    13  O   -0.021010   0.237147   0.001796  -0.005581  -0.002429   0.065175
    14  O   -0.035439   0.388025   0.114944  -0.020664  -0.012732   0.011057
    15  O    0.012417   0.088293   0.006101   0.002382  -0.004523  -0.011044
    16  O    0.068478   0.015427  -0.007280   0.274370  -0.014298  -0.524462
    17  O   -0.067231  -0.035184   0.032495   0.255138   0.018765  -0.361448
    18  O   -0.082288  -0.005881  -0.011947   0.179963   0.005950  -0.306040
    19  O    0.156337  -0.008257   0.512235   0.017744  -0.009444  -0.007153
    20  O    0.222775  -0.005679   0.440075  -0.005085  -0.032050   0.000930
    21  O   -0.013753   0.045449   0.224696  -0.006650  -0.006395  -0.000137
    22  H   -0.000313  -0.000005   0.004613   0.000180   0.000224  -0.000175
    23  H   -0.001470   0.000001  -0.000113   0.000002  -0.000057   0.000016
    24  H   -0.011300   0.000456   0.003467   0.000026   0.000306   0.000027
    25  H   -0.000866  -0.005771  -0.000124   0.002894  -0.000002   0.004970
    26  H   -0.008949  -0.015508   0.000396  -0.000090   0.000156  -0.000107
    27  H    0.011784  -0.033034  -0.014231  -0.004855  -0.000144   0.005877
    28  H   -0.006998  -0.000136  -0.001724   0.000327   0.001164  -0.000451
    29  H   -0.003934  -0.006775  -0.026753   0.000888  -0.000174  -0.000426
    30  H   -0.002305  -0.000102  -0.010187  -0.000195   0.000153   0.000066
    31  H   -0.001071  -0.002580   0.000043  -0.023096   0.000096   0.078972
    32  H    0.000559  -0.000176   0.000400   0.001665   0.000188   0.030418
    33  H   -0.018021   0.001330  -0.005154  -0.011908  -0.000303   0.052089
               7          8          9         10         11         12
     1  Si  -1.721474  -0.202266  -1.348941  -0.023406   0.080787   0.045019
     2  O   -0.171971  -0.571091   0.061245   0.001190  -0.003462   0.004407
     3  O   -1.799959  -0.124265  -0.508206   0.011751  -0.069301  -0.036867
     4  O    0.001640   0.041620  -0.006307   0.000866  -0.002173  -0.010245
     5  O    0.306495   0.041777   0.251996  -0.027496  -0.041299  -0.023279
     6  Si   0.045440  -0.209555   0.023509  -0.000855  -0.000394  -0.002153
     7  Si  16.499375   0.168549   0.299046   0.004990  -0.040723  -0.003216
     8  Si   0.168549  12.904514   0.088786  -0.000918   0.001900   0.002247
     9  Zr   0.299046   0.088786  11.975080  -0.096871   0.155194   0.094068
    10  O    0.004990  -0.000918  -0.096871   8.802206  -0.046587  -0.044209
    11  O   -0.040723   0.001900   0.155194  -0.046587   8.376944  -0.019742
    12  O   -0.003216   0.002247   0.094068  -0.044209  -0.019742   8.560892
    13  O    0.010573  -0.164271  -0.006771  -0.000001  -0.000074  -0.000006
    14  O   -0.139035  -0.497373  -0.034986  -0.000007   0.000119   0.000028
    15  O   -0.016195  -0.087191  -0.011633  -0.000005   0.000251   0.000020
    16  O   -0.002946  -0.014943  -0.015903  -0.000001   0.000009   0.000057
    17  O   -0.071449   0.117503  -0.015299  -0.000017  -0.000093   0.000041
    18  O   -0.004749   0.112413  -0.002670   0.000001  -0.000020  -0.000018
    19  O   -0.751302  -0.031043  -0.073362  -0.000068   0.000174  -0.003357
    20  O   -0.839733   0.005814  -0.082193  -0.000758   0.003329  -0.020269
    21  O   -0.193880  -0.040628  -0.002479  -0.000018   0.007118   0.001216
    22  H   -0.000682   0.000032  -0.027701  -0.001961   0.000215   0.267391
    23  H   -0.000320   0.000034  -0.079820   0.342648  -0.000143  -0.000115
    24  H    0.003228  -0.000938  -0.057809   0.000534   0.315810  -0.002225
    25  H   -0.000788   0.042903  -0.000516  -0.000000   0.000000   0.000000
    26  H    0.000725   0.062462   0.000005   0.000000   0.000053   0.000000
    27  H    0.016192   0.089619   0.003286   0.000000  -0.000006  -0.000001
    28  H    0.024302  -0.000332   0.003817   0.000512  -0.001027   0.033396
    29  H    0.070931   0.022978  -0.001749  -0.000000  -0.000241   0.000008
    30  H    0.054382   0.000218   0.002244  -0.000000   0.000004   0.000096
    31  H    0.000464  -0.003627   0.000100  -0.000000   0.000000   0.000000
    32  H   -0.000511   0.000092   0.001107   0.000000  -0.000000  -0.000002
    33  H    0.022214  -0.003091   0.000297   0.000000   0.000004   0.000012
              13         14         15         16         17         18
     1  Si  -0.021010  -0.035439   0.012417   0.068478  -0.067231  -0.082288
     2  O    0.237147   0.388025   0.088293   0.015427  -0.035184  -0.005881
     3  O    0.001796   0.114944   0.006101  -0.007280   0.032495  -0.011947
     4  O   -0.005581  -0.020664   0.002382   0.274370   0.255138   0.179963
     5  O   -0.002429  -0.012732  -0.004523  -0.014298   0.018765   0.005950
     6  Si   0.065175   0.011057  -0.011044  -0.524462  -0.361448  -0.306040
     7  Si   0.010573  -0.139035  -0.016195  -0.002946  -0.071449  -0.004749
     8  Si  -0.164271  -0.497373  -0.087191  -0.014943   0.117503   0.112413
     9  Zr  -0.006771  -0.034986  -0.011633  -0.015903  -0.015299  -0.002670
    10  O   -0.000001  -0.000007  -0.000005  -0.000001  -0.000017   0.000001
    11  O   -0.000074   0.000119   0.000251   0.000009  -0.000093  -0.000020
    12  O   -0.000006   0.000028   0.000020   0.000057   0.000041  -0.000018
    13  O    8.630656   0.007846  -0.079140   0.003327  -0.024469  -0.044504
    14  O    0.007846   8.985368   0.086493   0.006197  -0.059684  -0.026794
    15  O   -0.079140   0.086493   8.614083  -0.000219   0.003507   0.002068
    16  O    0.003327   0.006197  -0.000219   8.947605  -0.121956  -0.074455
    17  O   -0.024469  -0.059684   0.003507  -0.121956   8.999085   0.171097
    18  O   -0.044504  -0.026794   0.002068  -0.074455   0.171097   8.898376
    19  O    0.000372   0.019368   0.000614  -0.001781  -0.013550  -0.000596
    20  O   -0.000026  -0.003385   0.000307  -0.000003   0.001765   0.000042
    21  O   -0.001044   0.044276   0.004945  -0.000066  -0.010903  -0.000075
    22  H   -0.000000  -0.000001   0.000000  -0.000000   0.000001  -0.000000
    23  H   -0.000000  -0.000000   0.000000   0.000000   0.000000   0.000000
    24  H    0.000003  -0.000034   0.000000   0.000000   0.000003   0.000000
    25  H    0.227612  -0.008531   0.006806   0.000178   0.000366   0.010883
    26  H   -0.007385   0.003519   0.232950   0.000000  -0.000013   0.000009
    27  H   -0.002365   0.187959   0.001629  -0.000176   0.013107   0.001013
    28  H    0.000000  -0.000001  -0.000002  -0.000003  -0.000010   0.000000
    29  H    0.000565   0.002163   0.000154  -0.000010  -0.000253   0.000026
    30  H   -0.000002  -0.000430   0.000000  -0.000066   0.000264  -0.000007
    31  H    0.002139  -0.000079  -0.000012  -0.001467   0.001834   0.215383
    32  H   -0.000002  -0.000013   0.000000   0.231324  -0.002945   0.004474
    33  H    0.000659   0.000337  -0.000152   0.000219   0.212077   0.003148
              19         20         21         22         23         24
     1  Si   0.156337   0.222775  -0.013753  -0.000313  -0.001470  -0.011300
     2  O   -0.008257  -0.005679   0.045449  -0.000005   0.000001   0.000456
     3  O    0.512235   0.440075   0.224696   0.004613  -0.000113   0.003467
     4  O    0.017744  -0.005085  -0.006650   0.000180   0.000002   0.000026
     5  O   -0.009444  -0.032050  -0.006395   0.000224  -0.000057   0.000306
     6  Si  -0.007153   0.000930  -0.000137  -0.000175   0.000016   0.000027
     7  Si  -0.751302  -0.839733  -0.193880  -0.000682  -0.000320   0.003228
     8  Si  -0.031043   0.005814  -0.040628   0.000032   0.000034  -0.000938
     9  Zr  -0.073362  -0.082193  -0.002479  -0.027701  -0.079820  -0.057809
    10  O   -0.000068  -0.000758  -0.000018  -0.001961   0.342648   0.000534
    11  O    0.000174   0.003329   0.007118   0.000215  -0.000143   0.315810
    12  O   -0.003357  -0.020269   0.001216   0.267391  -0.000115  -0.002225
    13  O    0.000372  -0.000026  -0.001044  -0.000000  -0.000000   0.000003
    14  O    0.019368  -0.003385   0.044276  -0.000001  -0.000000  -0.000034
    15  O    0.000614   0.000307   0.004945   0.000000   0.000000   0.000000
    16  O   -0.001781  -0.000003  -0.000066  -0.000000   0.000000   0.000000
    17  O   -0.013550   0.001765  -0.010903   0.000001   0.000000   0.000003
    18  O   -0.000596   0.000042  -0.000075  -0.000000   0.000000   0.000000
    19  O    9.048661   0.048547  -0.068738   0.000078  -0.000000   0.000066
    20  O    0.048547   8.754835   0.094541   0.003491  -0.000006  -0.000626
    21  O   -0.068738   0.094541   8.598272  -0.000001  -0.000000  -0.000313
    22  H    0.000078   0.003491  -0.000001   0.357204   0.000011  -0.000005
    23  H   -0.000000  -0.000006  -0.000000   0.000011   0.366564   0.000008
    24  H    0.000066  -0.000626  -0.000313  -0.000005   0.000008   0.361463
    25  H   -0.000033   0.000001  -0.000003  -0.000000   0.000000  -0.000000
    26  H   -0.000000  -0.000001   0.000010  -0.000000  -0.000000  -0.000000
    27  H   -0.001814   0.000061  -0.003006   0.000000   0.000000  -0.000000
    28  H   -0.006074   0.234281  -0.001443  -0.002122   0.000000   0.000038
    29  H   -0.006266   0.004296   0.208406   0.000000  -0.000000   0.000022
    30  H    0.219301  -0.007640  -0.003321   0.000000  -0.000000   0.000000
    31  H    0.000018  -0.000000  -0.000000   0.000000  -0.000000  -0.000000
    32  H    0.000021  -0.000002   0.000000   0.000000  -0.000000   0.000000
    33  H    0.013897   0.000161   0.002666  -0.000000  -0.000000  -0.000000
              25         26         27         28         29         30
     1  Si  -0.000866  -0.008949   0.011784  -0.006998  -0.003934  -0.002305
     2  O   -0.005771  -0.015508  -0.033034  -0.000136  -0.006775  -0.000102
     3  O   -0.000124   0.000396  -0.014231  -0.001724  -0.026753  -0.010187
     4  O    0.002894  -0.000090  -0.004855   0.000327   0.000888  -0.000195
     5  O   -0.000002   0.000156  -0.000144   0.001164  -0.000174   0.000153
     6  Si   0.004970  -0.000107   0.005877  -0.000451  -0.000426   0.000066
     7  Si  -0.000788   0.000725   0.016192   0.024302   0.070931   0.054382
     8  Si   0.042903   0.062462   0.089619  -0.000332   0.022978   0.000218
     9  Zr  -0.000516   0.000005   0.003286   0.003817  -0.001749   0.002244
    10  O   -0.000000   0.000000   0.000000   0.000512  -0.000000  -0.000000
    11  O    0.000000   0.000053  -0.000006  -0.001027  -0.000241   0.000004
    12  O    0.000000   0.000000  -0.000001   0.033396   0.000008   0.000096
    13  O    0.227612  -0.007385  -0.002365   0.000000   0.000565  -0.000002
    14  O   -0.008531   0.003519   0.187959  -0.000001   0.002163  -0.000430
    15  O    0.006806   0.232950   0.001629  -0.000002   0.000154   0.000000
    16  O    0.000178   0.000000  -0.000176  -0.000003  -0.000010  -0.000066
    17  O    0.000366  -0.000013   0.013107  -0.000010  -0.000253   0.000264
    18  O    0.010883   0.000009   0.001013   0.000000   0.000026  -0.000007
    19  O   -0.000033  -0.000000  -0.001814  -0.006074  -0.006266   0.219301
    20  O    0.000001  -0.000001   0.000061   0.234281   0.004296  -0.007640
    21  O   -0.000003   0.000010  -0.003006  -0.001443   0.208406  -0.003321
    22  H   -0.000000  -0.000000   0.000000  -0.002122   0.000000   0.000000
    23  H    0.000000  -0.000000   0.000000   0.000000  -0.000000  -0.000000
    24  H   -0.000000  -0.000000  -0.000000   0.000038   0.000022   0.000000
    25  H    0.304211  -0.000011  -0.000116  -0.000000  -0.000001   0.000000
    26  H   -0.000011   0.360475  -0.000053   0.000000   0.000011  -0.000000
    27  H   -0.000116  -0.000053   0.309051   0.000000  -0.000348   0.000053
    28  H   -0.000000   0.000000   0.000000   0.278158  -0.000021   0.000065
    29  H   -0.000001   0.000011  -0.000348  -0.000021   0.299712   0.000141
    30  H    0.000000  -0.000000   0.000053   0.000065   0.000141   0.332124
    31  H   -0.000330   0.000000   0.000010   0.000000   0.000000   0.000000
    32  H   -0.000001  -0.000000  -0.000000   0.000000  -0.000000   0.000000
    33  H   -0.000005   0.000000  -0.001500  -0.000003   0.000074  -0.000423
              31         32         33
     1  Si  -0.001071   0.000559  -0.018021
     2  O   -0.002580  -0.000176   0.001330
     3  O    0.000043   0.000400  -0.005154
     4  O   -0.023096   0.001665  -0.011908
     5  O    0.000096   0.000188  -0.000303
     6  Si   0.078972   0.030418   0.052089
     7  Si   0.000464  -0.000511   0.022214
     8  Si  -0.003627   0.000092  -0.003091
     9  Zr   0.000100   0.001107   0.000297
    10  O   -0.000000   0.000000   0.000000
    11  O    0.000000  -0.000000   0.000004
    12  O    0.000000  -0.000002   0.000012
    13  O    0.002139  -0.000002   0.000659
    14  O   -0.000079  -0.000013   0.000337
    15  O   -0.000012   0.000000  -0.000152
    16  O   -0.001467   0.231324   0.000219
    17  O    0.001834  -0.002945   0.212077
    18  O    0.215383   0.004474   0.003148
    19  O    0.000018   0.000021   0.013897
    20  O   -0.000000  -0.000002   0.000161
    21  O   -0.000000   0.000000   0.002666
    22  H    0.000000   0.000000  -0.000000
    23  H   -0.000000  -0.000000  -0.000000
    24  H   -0.000000   0.000000  -0.000000
    25  H   -0.000330  -0.000001  -0.000005
    26  H    0.000000  -0.000000   0.000000
    27  H    0.000010  -0.000000  -0.001500
    28  H    0.000000   0.000000  -0.000003
    29  H    0.000000  -0.000000   0.000074
    30  H    0.000000   0.000000  -0.000423
    31  H    0.335352   0.000015  -0.000047
    32  H    0.000015   0.348013   0.000126
    33  H   -0.000047   0.000126   0.277934
 Mulliken charges:
               1
     1  Si   2.297008
     2  O   -1.354614
     3  O   -1.235861
     4  O   -1.166709
     5  O   -0.826658
     6  Si   2.279489
     7  Si   2.230391
     8  Si   2.248072
     9  Zr   1.413435
    10  O   -0.921519
    11  O   -0.716625
    12  O   -0.843194
    13  O   -0.828793
    14  O   -1.018513
    15  O   -0.852905
    16  O   -0.767157
    17  O   -1.042544
    18  O   -1.044801
    19  O   -1.054594
    20  O   -0.817795
    21  O   -0.878743
    22  H    0.399528
    23  H    0.372759
    24  H    0.387795
    25  H    0.416273
    26  H    0.371345
    27  H    0.422009
    28  H    0.444286
    29  H    0.436575
    30  H    0.415566
    31  H    0.397883
    32  H    0.385245
    33  H    0.453363
 Sum of Mulliken charges =  -0.00000
 Mulliken charges with hydrogens summed into heavy atoms:
               1
     1  Si   2.297008
     2  O   -1.354614
     3  O   -1.235861
     4  O   -1.166709
     5  O   -0.826658
     6  Si   2.279489
     7  Si   2.230391
     8  Si   2.248072
     9  Zr   1.413435
    10  O   -0.548760
    11  O   -0.328830
    12  O   -0.443666
    13  O   -0.412520
    14  O   -0.596504
    15  O   -0.481561
    16  O   -0.381912
    17  O   -0.589181
    18  O   -0.646917
    19  O   -0.639027
    20  O   -0.373509
    21  O   -0.442168
 Electronic spatial extent (au):  <R**2>=           8072.1721
 Charge=             -0.0000 electrons
 Dipole moment (field-independent basis, Debye):
    X=             -2.2584    Y=             -3.7175    Z=             -2.5917  Tot=              5.0633
 Quadrupole moment (field-independent basis, Debye-Ang):
   XX=           -156.3823   YY=           -156.1268   ZZ=           -160.7682
   XY=             -3.9111   XZ=              2.1950   YZ=             -7.6597
 Traceless Quadrupole moment (field-independent basis, Debye-Ang):
   XX=              1.3768   YY=              1.6323   ZZ=             -3.0091
   XY=             -3.9111   XZ=              2.1950   YZ=             -7.6597
 Octapole moment (field-independent basis, Debye-Ang**2):
  XXX=           -210.1948  YYY=            -17.8539  ZZZ=            -39.9888  XYY=            -59.6006
  XXY=            -35.8349  XXZ=            -69.2879  XZZ=              9.4725  YZZ=            -26.8511
  YYZ=            -30.2544  XYZ=              8.3763
 Hexadecapole moment (field-independent basis, Debye-Ang**3):
 XXXX=          -5347.9882 YYYY=          -2173.5735 ZZZZ=          -2142.9964 XXXY=             13.1701
 XXXZ=            138.6033 YYYX=             22.2378 YYYZ=            -91.3383 ZZZX=            167.3936
 ZZZY=           -107.2802 XXYY=          -1459.5280 XXZZ=          -1130.3123 YYZZ=           -711.8116
 XXYZ=             13.2343 YYXZ=            -31.5315 ZZXY=            -94.1500
 N-N= 3.033086379105D+03 E-N=-1.177810237842D+04  KE= 2.373129620728D+03
 1\1\GINC-GRA631\FOpt\RB3LYP\Gen\H12O16Si4Zr1\SARASHS\29-Jul-2020\0\\#n
  B3LYP/Gen Pseudo=cards EmpiricalDispersion=GD3 Opt=modredundant\\Titl
 e\\0,1\Si,-0.138221051,0.1571505905,-0.8876079213\O,-1.0061244085,-1.2
 171963311,-1.0054679332\O,0.5807054669,0.2505780498,0.614088685\O,-1.1
 332703329,1.4515773501,-1.1082083975\O,1.1815659219,0.1901561904,-1.82
 74057531\Si,-2.6920060896,1.7437685235,-0.6514630316\Si,0.4542667392,0
 .313057099,2.2613908103\Si,-2.1553085474,-2.1206474962,-0.2251673543\Z
 r,2.8822846607,-0.0157963476,-0.7526315855\O,4.3214539026,0.0386724613
 ,-2.0326240125\O,2.9299135906,-1.7226744482,0.1488932216\O,3.276814477
 1,1.4706912619,0.5363242634\O,-3.5593516095,-2.0041091252,-1.061342379
 4\O,-2.2853842735,-1.5762462438,1.3396595388\O,-1.6708287624,-3.678072
 2879,-0.0802400388\O,-3.0037377515,3.334218739,-0.9322079721\O,-2.9181
 993832,1.2199310896,0.8905892235\O,-3.7852799524,0.8430202328,-1.51500
 8726\O,-0.7608763751,1.4511130028,2.5234665315\O,1.8797165554,0.803791
 7055,2.878543664\O,0.0483201313,-1.132852496,2.9014362089\H,4.02718117
 74,2.0752240063,0.5571861236\H,5.036545461,-0.2388289023,-2.6075611458
 \H,2.6094421519,-2.3114285847,0.8375922464\H,-3.7933846141,-1.10914048
 48,-1.3647191953\H,-1.5646604547,-4.1867967613,-0.8909120011\H,-2.8039
 533774,-0.7548175614,1.4048295664\H,2.492280145,1.1683051633,2.2043605
 732\H,-0.7860981468,-1.4991857091,2.5482744662\H,-0.8381473262,1.77956
 94039,3.4278565606\H,-4.1526922926,1.26165493,-2.3020336524\H,-2.24179
 67798,3.9088095538,-1.0673818778\H,-2.2079788523,1.4465034262,1.533351
 2941\\Version=ES64L-G16RevB.01\State=1-A\HF=-2416.9437618\RMSD=1.504e-
 09\RMSF=4.608e-05\Dipole=0.8857744,1.4599071,-1.0258161\Quadrupole=1.0
 195281,1.2449663,-2.2644944,-2.9011506,-1.6324361,5.6895983\PG=C01 [X(
 H12O16Si4Zr1)]\\@


 A MAN IS EXACTLY AS GREAT AS THE TIDE SURGING
 BENEATH HIM.      - BISMARCK
 Job cpu time:       0 days 10 hours 15 minutes  2.0 seconds.
 Elapsed time:       0 days  0 hours 45 minutes 55.7 seconds.
 File lengths (MBytes):  RWF=    167 Int=      0 D2E=      0 Chk=     21 Scr=      1
 Normal termination of Gaussian 16 at Wed Jul 29 20:52:08 2020.
