 Entering Gaussian System, Link 0=g16
 Initial command:
 /opt/software/gaussian/g16.b01/l1.exe "/localscratch/sarashs.36567444.0/Gau-1798.inp" -scrdir="/localscratch/sarashs.36567444.0/"
 Entering Link 1 = /opt/software/gaussian/g16.b01/l1.exe PID=      1799.
  
 Copyright (c) 1988-2017, Gaussian, Inc.  All Rights Reserved.
  
 This is part of the Gaussian(R) 16 program.  It is based on
 the Gaussian(R) 09 system (copyright 2009, Gaussian, Inc.),
 the Gaussian(R) 03 system (copyright 2003, Gaussian, Inc.),
 the Gaussian(R) 98 system (copyright 1998, Gaussian, Inc.),
 the Gaussian(R) 94 system (copyright 1995, Gaussian, Inc.),
 the Gaussian 92(TM) system (copyright 1992, Gaussian, Inc.),
 the Gaussian 90(TM) system (copyright 1990, Gaussian, Inc.),
 the Gaussian 88(TM) system (copyright 1988, Gaussian, Inc.),
 the Gaussian 86(TM) system (copyright 1986, Carnegie Mellon
 University), and the Gaussian 82(TM) system (copyright 1983,
 Carnegie Mellon University). Gaussian is a federally registered
 trademark of Gaussian, Inc.
  
 This software contains proprietary and confidential information,
 including trade secrets, belonging to Gaussian, Inc.
  
 This software is provided under written license and may be
 used, copied, transmitted, or stored only in accord with that
 written license.
  
 The following legend is applicable only to US Government
 contracts under FAR:
  
                    RESTRICTED RIGHTS LEGEND
  
 Use, reproduction and disclosure by the US Government is
 subject to restrictions as set forth in subparagraphs (a)
 and (c) of the Commercial Computer Software - Restricted
 Rights clause in FAR 52.227-19.
  
 Gaussian, Inc.
 340 Quinnipiac St., Bldg. 40, Wallingford CT 06492
  
  
 ---------------------------------------------------------------
 Warning -- This program may not be used in any manner that
 competes with the business of Gaussian, Inc. or will provide
 assistance to any competitor of Gaussian, Inc.  The licensee
 of this program is prohibited from giving any competitor of
 Gaussian, Inc. access to this program.  By using this program,
 the user acknowledges that Gaussian, Inc. is engaged in the
 business of creating and licensing software in the field of
 computational chemistry and represents and warrants to the
 licensee that it is not a competitor of Gaussian, Inc. and that
 it will not use this program in any manner prohibited above.
 ---------------------------------------------------------------
  

 Cite this work as:
 Gaussian 16, Revision B.01,
 M. J. Frisch, G. W. Trucks, H. B. Schlegel, G. E. Scuseria, 
 M. A. Robb, J. R. Cheeseman, G. Scalmani, V. Barone, 
 G. A. Petersson, H. Nakatsuji, X. Li, M. Caricato, A. V. Marenich, 
 J. Bloino, B. G. Janesko, R. Gomperts, B. Mennucci, H. P. Hratchian, 
 J. V. Ortiz, A. F. Izmaylov, J. L. Sonnenberg, D. Williams-Young, 
 F. Ding, F. Lipparini, F. Egidi, J. Goings, B. Peng, A. Petrone, 
 T. Henderson, D. Ranasinghe, V. G. Zakrzewski, J. Gao, N. Rega, 
 G. Zheng, W. Liang, M. Hada, M. Ehara, K. Toyota, R. Fukuda, 
 J. Hasegawa, M. Ishida, T. Nakajima, Y. Honda, O. Kitao, H. Nakai, 
 T. Vreven, K. Throssell, J. A. Montgomery, Jr., J. E. Peralta, 
 F. Ogliaro, M. J. Bearpark, J. J. Heyd, E. N. Brothers, K. N. Kudin, 
 V. N. Staroverov, T. A. Keith, R. Kobayashi, J. Normand, 
 K. Raghavachari, A. P. Rendell, J. C. Burant, S. S. Iyengar, 
 J. Tomasi, M. Cossi, J. M. Millam, M. Klene, C. Adamo, R. Cammi, 
 J. W. Ochterski, R. L. Martin, K. Morokuma, O. Farkas, 
 J. B. Foresman, and D. J. Fox, Gaussian, Inc., Wallingford CT, 2016.
 
 ******************************************
 Gaussian 16:  ES64L-G16RevB.01 20-Dec-2017
                29-Jul-2020 
 ******************************************
 %NProcShared=16
 Will use up to   16 processors via shared memory.
 ------------------------------------------------------------------
 #n B3LYP/Gen Pseudo=cards EmpiricalDispersion=GD3 Opt=modredundant
 ------------------------------------------------------------------
 1/18=120,19=15,26=3,38=1/1,3;
 2/9=110,12=2,17=6,18=5,40=1/2;
 3/5=7,11=2,16=1,17=8,25=1,30=1,71=1,74=-5,124=31/1,2,3;
 4//1;
 5/5=2,38=5/2;
 6/7=2,8=2,9=2,10=2,28=1/1;
 7//1,2,3,16;
 1/18=20,19=15,26=3/3(2);
 2/9=110/2;
 99//99;
 2/9=110/2;
 3/5=7,6=1,11=2,16=1,17=8,25=1,30=1,71=1,74=-5,82=7,124=31/1,2,3;
 4/5=5,16=3,69=1/1;
 5/5=2,38=5/2;
 7//1,2,3,16;
 1/18=20,19=15,26=3/3(-5);
 2/9=110/2;
 6/7=2,8=2,9=2,10=2,19=2,28=1/1;
 99/9=1/99;
 -----
 Title
 -----
 Symbolic Z-matrix:
 Charge =  0 Multiplicity = 1
 Si                   -0.13817   0.15907  -0.88672 
 O                    -1.00571  -1.21557  -1.00367 
 O                     0.58179   0.25267   0.61501 
 O                    -1.1339    1.45311  -1.10627 
 O                     1.18134   0.19206  -1.82677 
 Si                   -2.69339   1.74371  -0.65114 
 Si                    0.45246   0.31404   2.26262 
 Si                   -2.1548   -2.1204   -0.22503 
 Zr                    2.75988  -0.02828  -0.5802 
 O                     4.32216  -0.00052  -1.70764 
 O                     2.69571  -1.7304    0.32948 
 O                     3.04481   1.46212   0.73316 
 O                    -3.55825  -2.00436  -1.06221 
 O                    -2.28687  -1.57711   1.34004 
 O                    -1.66915  -3.67748  -0.08045 
 O                    -3.00596   3.33412  -0.93077 
 O                    -2.92057   1.21838   0.89035 
 O                    -3.78511   0.84272  -1.51643 
 O                    -0.76335   1.45159   2.52316 
 O                     1.87673   0.80442   2.88257 
 O                     0.04596  -1.13257   2.9006 
 H                     3.79917   2.05492   0.82542 
 H                     5.08813  -0.29042  -2.20578 
 H                     2.29964  -2.31048   0.98547 
 H                    -3.79221  -1.10963  -1.36628 
 H                    -1.5614   -4.18568  -0.89124 
 H                    -2.80623  -0.75615   1.40497 
 H                     2.4905    1.16992   2.20997 
 H                    -0.78842  -1.49858   2.54684 
 H                    -0.84185   1.77955   3.42764 
 H                    -4.15196   1.2615   -2.30365 
 H                    -2.24428   3.9095   -1.06409 
 H                    -2.21087   1.44549   1.53341 
 
 The following ModRedundant input section has been read:
 A       1       5       9 F                                                   
 

 GradGradGradGradGradGradGradGradGradGradGradGradGradGradGradGradGradGrad
 Berny optimization.
 Initialization pass.
                           ----------------------------
                           !    Initial Parameters    !
                           ! (Angstroms and Degrees)  !
 --------------------------                            --------------------------
 ! Name  Definition              Value          Derivative Info.                !
 --------------------------------------------------------------------------------
 ! R1    R(1,2)                  1.6297         estimate D2E/DX2                !
 ! R2    R(1,3)                  1.668          estimate D2E/DX2                !
 ! R3    R(1,4)                  1.6475         estimate D2E/DX2                !
 ! R4    R(1,5)                  1.6205         estimate D2E/DX2                !
 ! R5    R(1,9)                  2.9202         estimate D2E/DX2                !
 ! R6    R(2,8)                  1.6569         estimate D2E/DX2                !
 ! R7    R(3,7)                  1.6538         estimate D2E/DX2                !
 ! R8    R(4,6)                  1.6503         estimate D2E/DX2                !
 ! R9    R(5,9)                  2.0234         estimate D2E/DX2                !
 ! R10   R(6,16)                 1.6448         estimate D2E/DX2                !
 ! R11   R(6,17)                 1.6443         estimate D2E/DX2                !
 ! R12   R(6,18)                 1.659          estimate D2E/DX2                !
 ! R13   R(7,19)                 1.6853         estimate D2E/DX2                !
 ! R14   R(7,20)                 1.6289         estimate D2E/DX2                !
 ! R15   R(7,21)                 1.6325         estimate D2E/DX2                !
 ! R16   R(8,13)                 1.6383         estimate D2E/DX2                !
 ! R17   R(8,14)                 1.6619         estimate D2E/DX2                !
 ! R18   R(8,15)                 1.6375         estimate D2E/DX2                !
 ! R19   R(9,10)                 1.9268         estimate D2E/DX2                !
 ! R20   R(9,11)                 1.931          estimate D2E/DX2                !
 ! R21   R(9,12)                 2.0068         estimate D2E/DX2                !
 ! R22   R(10,23)                0.9586         estimate D2E/DX2                !
 ! R23   R(11,24)                0.9611         estimate D2E/DX2                !
 ! R24   R(12,22)                0.9638         estimate D2E/DX2                !
 ! R25   R(13,25)                0.9735         estimate D2E/DX2                !
 ! R26   R(14,27)                0.9736         estimate D2E/DX2                !
 ! R27   R(15,26)                0.9629         estimate D2E/DX2                !
 ! R28   R(16,32)                0.9638         estimate D2E/DX2                !
 ! R29   R(17,33)                0.9843         estimate D2E/DX2                !
 ! R30   R(18,31)                0.9642         estimate D2E/DX2                !
 ! R31   R(19,30)                0.9653         estimate D2E/DX2                !
 ! R32   R(20,28)                0.9812         estimate D2E/DX2                !
 ! R33   R(21,29)                0.9774         estimate D2E/DX2                !
 ! A1    A(2,1,3)              109.9808         estimate D2E/DX2                !
 ! A2    A(2,1,4)              109.3435         estimate D2E/DX2                !
 ! A3    A(2,1,5)              114.1426         estimate D2E/DX2                !
 ! A4    A(2,1,9)              118.7967         estimate D2E/DX2                !
 ! A5    A(3,1,4)              109.6804         estimate D2E/DX2                !
 ! A6    A(3,1,5)               99.7688         estimate D2E/DX2                !
 ! A7    A(3,1,9)               58.7183         estimate D2E/DX2                !
 ! A8    A(4,1,5)              113.5061         estimate D2E/DX2                !
 ! A9    A(4,1,9)              131.6196         estimate D2E/DX2                !
 ! A10   A(1,2,8)              142.7567         estimate D2E/DX2                !
 ! A11   A(1,3,7)              149.9119         estimate D2E/DX2                !
 ! A12   A(1,4,6)              132.2743         estimate D2E/DX2                !
 ! A13   A(1,5,9)              106.0001         Frozen                          !
 ! A14   A(4,6,16)             107.6353         estimate D2E/DX2                !
 ! A15   A(4,6,17)             109.4409         estimate D2E/DX2                !
 ! A16   A(4,6,18)             112.4799         estimate D2E/DX2                !
 ! A17   A(16,6,17)            116.2345         estimate D2E/DX2                !
 ! A18   A(16,6,18)            108.144          estimate D2E/DX2                !
 ! A19   A(17,6,18)            102.9751         estimate D2E/DX2                !
 ! A20   A(3,7,19)             103.6202         estimate D2E/DX2                !
 ! A21   A(3,7,20)             108.7814         estimate D2E/DX2                !
 ! A22   A(3,7,21)             112.0818         estimate D2E/DX2                !
 ! A23   A(19,7,20)            111.639          estimate D2E/DX2                !
 ! A24   A(19,7,21)            110.9828         estimate D2E/DX2                !
 ! A25   A(20,7,21)            109.6189         estimate D2E/DX2                !
 ! A26   A(2,8,13)             108.3776         estimate D2E/DX2                !
 ! A27   A(2,8,14)             108.6105         estimate D2E/DX2                !
 ! A28   A(2,8,15)             110.799          estimate D2E/DX2                !
 ! A29   A(13,8,14)            112.954          estimate D2E/DX2                !
 ! A30   A(13,8,15)            111.5028         estimate D2E/DX2                !
 ! A31   A(14,8,15)            104.553          estimate D2E/DX2                !
 ! A32   A(1,9,10)             137.9285         estimate D2E/DX2                !
 ! A33   A(1,9,11)              94.1874         estimate D2E/DX2                !
 ! A34   A(1,9,12)              99.32           estimate D2E/DX2                !
 ! A35   A(5,9,10)             105.6933         estimate D2E/DX2                !
 ! A36   A(5,9,11)             111.1176         estimate D2E/DX2                !
 ! A37   A(5,9,12)             115.6627         estimate D2E/DX2                !
 ! A38   A(10,9,11)            108.3784         estimate D2E/DX2                !
 ! A39   A(10,9,12)            104.8991         estimate D2E/DX2                !
 ! A40   A(11,9,12)            110.5513         estimate D2E/DX2                !
 ! A41   A(9,10,23)            161.3692         estimate D2E/DX2                !
 ! A42   A(9,11,24)            150.1413         estimate D2E/DX2                !
 ! A43   A(9,12,22)            129.0895         estimate D2E/DX2                !
 ! A44   A(8,13,25)            115.5044         estimate D2E/DX2                !
 ! A45   A(8,14,27)            112.3856         estimate D2E/DX2                !
 ! A46   A(8,15,26)            117.432          estimate D2E/DX2                !
 ! A47   A(6,16,32)            116.7803         estimate D2E/DX2                !
 ! A48   A(6,17,33)            116.0494         estimate D2E/DX2                !
 ! A49   A(6,18,31)            116.1247         estimate D2E/DX2                !
 ! A50   A(7,19,30)            115.6491         estimate D2E/DX2                !
 ! A51   A(7,20,28)            113.4661         estimate D2E/DX2                !
 ! A52   A(7,21,29)            113.7637         estimate D2E/DX2                !
 ! D1    D(3,1,2,8)             50.0624         estimate D2E/DX2                !
 ! D2    D(4,1,2,8)            -70.4297         estimate D2E/DX2                !
 ! D3    D(5,1,2,8)            161.2125         estimate D2E/DX2                !
 ! D4    D(9,1,2,8)            114.556          estimate D2E/DX2                !
 ! D5    D(2,1,3,7)            -60.1512         estimate D2E/DX2                !
 ! D6    D(4,1,3,7)             60.1373         estimate D2E/DX2                !
 ! D7    D(5,1,3,7)            179.5701         estimate D2E/DX2                !
 ! D8    D(9,1,3,7)           -172.4128         estimate D2E/DX2                !
 ! D9    D(2,1,4,6)             37.0076         estimate D2E/DX2                !
 ! D10   D(3,1,4,6)            -83.6678         estimate D2E/DX2                !
 ! D11   D(5,1,4,6)            165.7183         estimate D2E/DX2                !
 ! D12   D(9,1,4,6)           -148.8396         estimate D2E/DX2                !
 ! D13   D(2,1,9,10)            94.3177         estimate D2E/DX2                !
 ! D14   D(2,1,9,11)           -29.2495         estimate D2E/DX2                !
 ! D15   D(2,1,9,12)          -140.8855         estimate D2E/DX2                !
 ! D16   D(3,1,9,10)          -168.6584         estimate D2E/DX2                !
 ! D17   D(3,1,9,11)            67.7745         estimate D2E/DX2                !
 ! D18   D(3,1,9,12)           -43.8615         estimate D2E/DX2                !
 ! D19   D(4,1,9,10)           -79.3849         estimate D2E/DX2                !
 ! D20   D(4,1,9,11)           157.048          estimate D2E/DX2                !
 ! D21   D(4,1,9,12)            45.4119         estimate D2E/DX2                !
 ! D22   D(1,2,8,13)           108.4711         estimate D2E/DX2                !
 ! D23   D(1,2,8,14)           -14.5876         estimate D2E/DX2                !
 ! D24   D(1,2,8,15)          -128.8886         estimate D2E/DX2                !
 ! D25   D(1,3,7,19)           -46.0619         estimate D2E/DX2                !
 ! D26   D(1,3,7,20)          -164.9541         estimate D2E/DX2                !
 ! D27   D(1,3,7,21)            73.6681         estimate D2E/DX2                !
 ! D28   D(1,4,6,16)           169.4411         estimate D2E/DX2                !
 ! D29   D(1,4,6,17)            42.2775         estimate D2E/DX2                !
 ! D30   D(1,4,6,18)           -71.5346         estimate D2E/DX2                !
 ! D31   D(4,6,16,32)          -16.3726         estimate D2E/DX2                !
 ! D32   D(17,6,16,32)         106.7215         estimate D2E/DX2                !
 ! D33   D(18,6,16,32)        -138.134          estimate D2E/DX2                !
 ! D34   D(4,6,17,33)           44.2632         estimate D2E/DX2                !
 ! D35   D(16,6,17,33)         -77.8848         estimate D2E/DX2                !
 ! D36   D(18,6,17,33)         164.0932         estimate D2E/DX2                !
 ! D37   D(4,6,18,31)          -92.9354         estimate D2E/DX2                !
 ! D38   D(16,6,18,31)          25.7911         estimate D2E/DX2                !
 ! D39   D(17,6,18,31)         149.3552         estimate D2E/DX2                !
 ! D40   D(3,7,19,30)         -166.1155         estimate D2E/DX2                !
 ! D41   D(20,7,19,30)         -49.2104         estimate D2E/DX2                !
 ! D42   D(21,7,19,30)          73.4066         estimate D2E/DX2                !
 ! D43   D(3,7,20,28)           12.9879         estimate D2E/DX2                !
 ! D44   D(19,7,20,28)        -100.7463         estimate D2E/DX2                !
 ! D45   D(21,7,20,28)         135.8599         estimate D2E/DX2                !
 ! D46   D(3,7,21,29)          -57.2164         estimate D2E/DX2                !
 ! D47   D(19,7,21,29)          58.1093         estimate D2E/DX2                !
 ! D48   D(20,7,21,29)        -178.1114         estimate D2E/DX2                !
 ! D49   D(2,8,13,25)          -43.843          estimate D2E/DX2                !
 ! D50   D(14,8,13,25)          76.5485         estimate D2E/DX2                !
 ! D51   D(15,8,13,25)        -166.0547         estimate D2E/DX2                !
 ! D52   D(2,8,14,27)           78.098          estimate D2E/DX2                !
 ! D53   D(13,8,14,27)         -42.1603         estimate D2E/DX2                !
 ! D54   D(15,8,14,27)        -163.5737         estimate D2E/DX2                !
 ! D55   D(2,8,15,26)          -65.1514         estimate D2E/DX2                !
 ! D56   D(13,8,15,26)          55.6545         estimate D2E/DX2                !
 ! D57   D(14,8,15,26)         178.0211         estimate D2E/DX2                !
 ! D58   D(1,9,10,23)         -104.7321         estimate D2E/DX2                !
 ! D59   D(5,9,10,23)         -105.0465         estimate D2E/DX2                !
 ! D60   D(11,9,10,23)          14.1425         estimate D2E/DX2                !
 ! D61   D(12,9,10,23)         132.2533         estimate D2E/DX2                !
 ! D62   D(1,9,11,24)          -43.2034         estimate D2E/DX2                !
 ! D63   D(5,9,11,24)          -71.4522         estimate D2E/DX2                !
 ! D64   D(10,9,11,24)         172.8349         estimate D2E/DX2                !
 ! D65   D(12,9,11,24)          58.3843         estimate D2E/DX2                !
 ! D66   D(1,9,12,22)         -147.3925         estimate D2E/DX2                !
 ! D67   D(5,9,12,22)         -118.099          estimate D2E/DX2                !
 ! D68   D(10,9,12,22)          -2.0995         estimate D2E/DX2                !
 ! D69   D(11,9,12,22)         114.5277         estimate D2E/DX2                !
 --------------------------------------------------------------------------------
 Trust Radius=3.00D-01 FncErr=1.00D-07 GrdErr=1.00D-06 EigMax=2.50D+02 EigMin=1.00D-04
 Number of steps in this run=    164 maximum allowed number of steps=    198.
 GradGradGradGradGradGradGradGradGradGradGradGradGradGradGradGradGradGrad

                          Input orientation:                          
 ---------------------------------------------------------------------
 Center     Atomic      Atomic             Coordinates (Angstroms)
 Number     Number       Type             X           Y           Z
 ---------------------------------------------------------------------
      1         14           0       -0.138170    0.159070   -0.886720
      2          8           0       -1.005710   -1.215570   -1.003670
      3          8           0        0.581790    0.252670    0.615010
      4          8           0       -1.133900    1.453110   -1.106270
      5          8           0        1.181340    0.192060   -1.826770
      6         14           0       -2.693390    1.743710   -0.651140
      7         14           0        0.452460    0.314040    2.262620
      8         14           0       -2.154800   -2.120400   -0.225030
      9         40           0        2.759880   -0.028280   -0.580200
     10          8           0        4.322160   -0.000520   -1.707640
     11          8           0        2.695710   -1.730400    0.329480
     12          8           0        3.044810    1.462120    0.733160
     13          8           0       -3.558250   -2.004360   -1.062210
     14          8           0       -2.286870   -1.577110    1.340040
     15          8           0       -1.669150   -3.677480   -0.080450
     16          8           0       -3.005960    3.334120   -0.930770
     17          8           0       -2.920570    1.218380    0.890350
     18          8           0       -3.785110    0.842720   -1.516430
     19          8           0       -0.763350    1.451590    2.523160
     20          8           0        1.876730    0.804420    2.882570
     21          8           0        0.045960   -1.132570    2.900600
     22          1           0        3.799170    2.054920    0.825420
     23          1           0        5.088130   -0.290420   -2.205780
     24          1           0        2.299640   -2.310480    0.985470
     25          1           0       -3.792210   -1.109630   -1.366280
     26          1           0       -1.561400   -4.185680   -0.891240
     27          1           0       -2.806230   -0.756150    1.404970
     28          1           0        2.490500    1.169920    2.209970
     29          1           0       -0.788420   -1.498580    2.546840
     30          1           0       -0.841850    1.779550    3.427640
     31          1           0       -4.151960    1.261500   -2.303650
     32          1           0       -2.244280    3.909500   -1.064090
     33          1           0       -2.210870    1.445490    1.533410
 ---------------------------------------------------------------------
                    Distance matrix (angstroms):
                    1          2          3          4          5
     1  Si   0.000000
     2  O    1.629705   0.000000
     3  O    1.668022   2.701113   0.000000
     4  O    1.647489   2.673726   2.710619   0.000000
     5  O    1.620459   2.728022   2.515039   2.733076   0.000000
     6  Si   3.015913   3.424891   3.814858   1.650334   4.336272
     7  Si   3.207990   3.890323   1.653817   3.894026   4.155629
     8  Si   3.114581   1.656926   3.718340   3.819528   4.363814
     9  Zr   2.920231   3.970976   2.500307   4.199141   2.023431
    10  O    4.538053   5.509820   4.410122   5.678316   3.148973
    11  O    3.616644   3.967726   2.912516   5.182859   3.261684
    12  O    3.801751   5.156871   2.746488   4.565655   3.411571
    13  O    4.050700   2.672279   5.004716   4.222974   5.279444
    14  O    3.548196   2.695377   3.478933   4.061528   5.018678
    15  O    4.208692   2.711732   4.582191   5.259444   5.113538
    16  O    4.278680   4.970512   4.975613   2.659625   5.311199
    17  O    3.467256   3.630167   3.643478   2.689569   5.026106
    18  O    3.763520   3.496362   4.894999   2.751313   5.018495
    19  O    3.699830   4.428432   2.624471   3.648297   4.928501
    20  O    4.322481   5.243251   2.668919   5.039398   4.799629
    21  O    4.005750   4.044283   2.725789   4.912516   5.039024
    22  H    4.693433   6.093320   3.693767   5.331865   4.166220
    23  H    5.408898   6.279798   5.344053   6.554577   3.954674
    24  H    3.942929   4.010093   3.107730   5.507194   3.927085
    25  H    3.897638   2.811991   4.991317   3.701601   5.161652
    26  H    4.571920   3.023737   5.153737   5.659059   5.249995
    27  H    3.634283   3.042119   3.622214   3.739498   5.219575
    28  H    4.185835   5.314276   2.651117   4.920764   4.354926
    29  H    3.867811   3.568393   2.945559   4.709251   5.085930
    30  H    4.662062   5.351084   3.502713   4.555019   5.849978
    31  H    4.396994   4.210073   5.651965   3.252556   5.460330
    32  H    4.304984   5.272954   4.917159   2.696029   5.112330
    33  H    3.436276   3.869163   3.172574   2.850935   4.936495
                    6          7          8          9         10
     6  Si   0.000000
     7  Si   4.519992   0.000000
     8  Si   3.924665   4.348874   0.000000
     9  Zr   5.734382   3.677363   5.353241   0.000000
    10  O    7.305920   5.553061   6.974456   1.926814   0.000000
    11  O    6.486405   3.598463   4.897655   1.931023   3.128527
    12  O    5.909528   3.221430   6.386589   2.006836   3.119045
    13  O    3.868461   5.702216   1.638294   6.637469   8.156765
    14  O    3.893315   3.454205   1.661942   5.617462   7.446695
    15  O    5.546535   5.091506   1.637455   5.760444   7.215510
    16  O    1.644779   5.592789   5.565459   6.683827   8.088553
    17  O    1.644316   3.752104   3.602489   5.998682   7.790533
    18  O    1.659025   5.702431   3.620180   6.668738   8.153247
    19  O    3.726469   1.685258   4.716757   4.922805   6.772791
    20  O    5.852809   1.628912   5.870689   3.669349   5.262897
    21  O    5.328403   1.632465   3.948255   4.549812   6.387746
    22  H    6.665614   4.036914   7.347551   2.719488   3.303747
    23  H    8.191864   6.466947   7.728663   2.851662   0.958590
    24  H    6.636663   3.454170   4.619900   2.805634   4.084035
    25  H    3.140124   5.763070   2.237235   6.687086   8.196929
    26  H    6.041251   5.852345   2.249742   6.004513   7.266247
    27  H    3.238768   3.535524   2.223160   5.954181   7.814938
    28  H    5.948773   2.211088   6.191465   3.048491   4.480243
    29  H    4.936439   2.214984   3.152288   4.952837   6.816364
    30  H    4.479501   2.276012   5.502313   5.683616   7.497116
    31  H    2.256267   6.553563   4.443710   7.239292   8.588285
    32  H    2.250083   5.591667   6.088655   6.386069   7.669455
    33  H    2.256993   2.984167   3.976283   5.598902   7.434772
                   11         12         13         14         15
    11  O    0.000000
    12  O    3.236821   0.000000
    13  O    6.412790   7.670739   0.000000
    14  O    5.086338   6.167012   2.751319   0.000000
    15  O    4.796996   7.021315   2.707745   2.609775   0.000000
    16  O    7.729595   6.548654   5.368582   5.458374   7.188368
    17  O    6.368083   5.972426   3.821672   2.901476   5.145673
    18  O    7.213138   7.217487   2.891997   4.032334   5.193412
    19  O    5.186751   4.207885   5.710511   3.590809   5.822939
    20  O    3.689757   2.533169   7.279392   5.038517   6.437405
    21  O    3.740218   4.519216   5.427173   2.841665   4.278414
    22  H    3.973944   0.963838   8.612348   7.106079   7.973928
    23  H    3.771573   3.985464   8.888489   8.283661   7.851754
    24  H    0.961086   3.853758   6.213017   4.658286   4.330839
    25  H    6.734543   7.600420   0.973518   3.131893   3.571358
    26  H    5.063748   7.466826   2.962228   3.508497   0.962942
    27  H    5.690095   6.293387   2.865404   0.973615   3.468947
    28  H    3.462688   1.604247   7.574338   5.579087   6.785720
    29  H    4.136374   5.171927   4.577446   1.925587   3.525045
    30  H    5.867936   4.739948   6.469587   4.208720   6.539900
    31  H    7.923094   7.813831   3.543939   4.981239   5.958229
    32  H    7.625878   6.098709   6.058074   5.990371   7.672065
    33  H    5.967433   5.316281   4.522625   3.029732   5.398410
                   16         17         18         19         20
    16  O    0.000000
    17  O    2.792870   0.000000
    18  O    2.675284   2.584790   0.000000
    19  O    4.528007   2.715521   5.081343   0.000000
    20  O    6.691906   5.210987   7.170014   2.741902   0.000000
    21  O    6.629097   4.285834   6.171630   2.734104   2.665328
    22  H    7.143553   6.771921   8.029632   4.905397   3.080810
    23  H    8.959756   8.717900   8.971822   7.722518   6.115805
    24  H    7.980155   6.301785   7.295640   5.089162   3.671572
    25  H    4.533737   3.357345   1.958128   5.555320   7.338474
    26  H    7.657396   5.850237   5.533584   6.638812   7.138871
    27  H    4.714433   2.043692   3.471191   3.209022   5.152552
    28  H    6.690223   5.569867   7.305915   3.281001   0.981170
    29  H    6.353443   3.830391   5.565249   2.950372   3.538297
    30  H    5.108405   3.327736   5.829602   0.965300   2.939159
    31  H    2.737493   3.423422   0.964194   5.900585   7.965608
    32  H    0.963843   3.394014   3.461778   4.593783   6.496181
    33  H    3.204883   0.984266   3.484693   1.753555   4.351974
                   21         22         23         24         25
    21  O    0.000000
    22  H    5.343505   0.000000
    23  H    7.225497   4.043539   0.000000
    24  H    3.183437   4.618541   4.694720   0.000000
    25  H    5.739193   8.511579   8.957472   6.639534   0.000000
    26  H    5.126708   8.404030   7.817756   4.684661   3.829394
    27  H    3.242466   7.202035   8.693408   5.353674   2.962589
    28  H    3.428441   2.100672   5.327206   3.694457   7.580129
    29  H    0.977394   6.052820   7.653815   3.554317   4.948388
    30  H    3.089728   5.327893   8.437112   5.706268   6.327215
    31  H    7.101994   8.581437   9.370021   8.074682   2.574945
    32  H    6.810759   6.597954   8.526841   7.970951   5.261090
    33  H    3.689022   6.082206   8.382740   5.895104   4.175820
                   26         27         28         29         30
    26  H    0.000000
    27  H    4.310900   0.000000
    28  H    7.397151   5.693252   0.000000
    29  H    4.431523   2.434466   4.240954   0.000000
    30  H    7.399625   3.792065   3.599851   3.394820   0.000000
    31  H    6.194972   4.431226   8.031403   6.516034   6.638742
    32  H    8.125770   5.308515   6.375179   6.663758   5.165185
    33  H    6.165291   2.284331   4.757789   3.423150   2.360915
                   31         32         33
    31  H    0.000000
    32  H    3.491082   0.000000
    33  H    4.304034   3.580428   0.000000
 Stoichiometry    H12O16Si4Zr
 Framework group  C1[X(H12O16Si4Zr)]
 Deg. of freedom    93
 Full point group                 C1      NOp   1
 Largest Abelian subgroup         C1      NOp   1
 Largest concise Abelian subgroup C1      NOp   1
                         Standard orientation:                         
 ---------------------------------------------------------------------
 Center     Atomic      Atomic             Coordinates (Angstroms)
 Number     Number       Type             X           Y           Z
 ---------------------------------------------------------------------
      1         14           0        0.146229   -0.151042   -0.936681
      2          8           0        1.014290    1.227007   -0.994893
      3          8           0       -0.644711   -0.265024    0.527463
      4          8           0        1.155196   -1.439878   -1.124054
      5          8           0       -1.126528   -0.175479   -1.939368
      6         14           0        2.691896   -1.732403   -0.598145
      7         14           0       -0.594443   -0.346572    2.178504
      8         14           0        2.121980    2.124816   -0.150873
      9         40           0       -2.763739    0.025583   -0.767451
     10          8           0       -4.270005    0.008129   -1.968896
     11          8           0       -2.748376    1.716406    0.165142
     12          8           0       -3.106954   -1.481709    0.512261
     13          8           0        3.564340    2.022537   -0.921031
     14          8           0        2.180381    1.562420    1.411929
     15          8           0        1.625320    3.678817   -0.010637
     16          8           0        3.022259   -3.318464   -0.881990
     17          8           0        2.843250   -1.225745    0.958828
     18          8           0        3.821211   -0.818126   -1.398836
     19          8           0        0.610837   -1.484378    2.483128
     20          8           0       -2.045367   -0.848013    2.723235
     21          8           0       -0.223343    1.092955    2.853031
     22          1           0       -3.863107   -2.077404    0.560873
     23          1           0       -5.012037    0.302378   -2.499651
     24          1           0       -2.385981    2.289224    0.846491
     25          1           0        3.815288    1.132217   -1.224500
     26          1           0        1.555105    4.196803   -0.819350
     27          1           0        2.698465    0.741954    1.491624
     28          1           0       -2.625050   -1.206580    2.017479
     29          1           0        0.625965    1.465321    2.544294
     30          1           0        0.646801   -1.823373    3.386230
     31          1           0        4.226674   -1.226209   -2.172618
     32          1           0        2.269572   -3.893953   -1.058818
     33          1           0        2.104177   -1.462524    1.564208
 ---------------------------------------------------------------------
 Rotational constants (GHZ):           0.2674567           0.1424849           0.1375454
 General basis read from cards:  (5D, 7F)
 ======================================================================================================
                                       Pseudopotential Parameters
 ======================================================================================================
  Center     Atomic      Valence      Angular      Power
  Number     Number     Electrons     Momentum     of R      Exponent        Coefficient   SO-Coeffient
 ======================================================================================================
    1         14
                                   No pseudopotential on this center.
    2          8
                                   No pseudopotential on this center.
    3          8
                                   No pseudopotential on this center.
    4          8
                                   No pseudopotential on this center.
    5          8
                                   No pseudopotential on this center.
    6         14
                                   No pseudopotential on this center.
    7         14
                                   No pseudopotential on this center.
    8         14
                                   No pseudopotential on this center.
    9         40           12
                                      G and up 
                                                     2        1.0000000        0.00000000    0.00000000
                                      S - G
                                                     2        8.6365280      150.24299400    0.00000000
                                                     2        3.7176390       18.78003600    0.00000000
                                      P - G
                                                     2        7.6267280       33.19279100    0.00000000
                                                     2        7.4532070       66.38903900    0.00000000
                                                     2        3.3583890        4.62072600    0.00000000
                                                     2        3.2297380        9.26027000    0.00000000
                                      D - G
                                                     2        5.9380860       13.99338300    0.00000000
                                                     2        5.8255440       20.99588200    0.00000000
                                                     2        2.2050190        2.28516600    0.00000000
                                                     2        2.2062920        3.44126000    0.00000000
                                      F - G
                                                     2        4.8002150       -5.23932000    0.00000000
                                                     2        4.7989920       -6.98742400    0.00000000
   10          8
                                   No pseudopotential on this center.
   11          8
                                   No pseudopotential on this center.
   12          8
                                   No pseudopotential on this center.
   13          8
                                   No pseudopotential on this center.
   14          8
                                   No pseudopotential on this center.
   15          8
                                   No pseudopotential on this center.
   16          8
                                   No pseudopotential on this center.
   17          8
                                   No pseudopotential on this center.
   18          8
                                   No pseudopotential on this center.
   19          8
                                   No pseudopotential on this center.
   20          8
                                   No pseudopotential on this center.
   21          8
                                   No pseudopotential on this center.
   22          1
                                   No pseudopotential on this center.
   23          1
                                   No pseudopotential on this center.
   24          1
                                   No pseudopotential on this center.
   25          1
                                   No pseudopotential on this center.
   26          1
                                   No pseudopotential on this center.
   27          1
                                   No pseudopotential on this center.
   28          1
                                   No pseudopotential on this center.
   29          1
                                   No pseudopotential on this center.
   30          1
                                   No pseudopotential on this center.
   31          1
                                   No pseudopotential on this center.
   32          1
                                   No pseudopotential on this center.
   33          1
                                   No pseudopotential on this center.
 ======================================================================================================
 There are   570 symmetry adapted cartesian basis functions of A   symmetry.
 There are   524 symmetry adapted basis functions of A   symmetry.
   524 basis functions,  1074 primitive gaussians,   570 cartesian basis functions
   104 alpha electrons      104 beta electrons
       nuclear repulsion energy      3058.6825301184 Hartrees.
 NAtoms=   33 NActive=   33 NUniq=   33 SFac= 1.00D+00 NAtFMM=   60 NAOKFM=F Big=F
 Integral buffers will be    131072 words long.
 Raffenetti 2 integral format.
 Two-electron integral symmetry is turned on.
 Nuclear repulsion after empirical dispersion term =     3058.6348149280 Hartrees.
 One-electron integrals computed using PRISM.
 PrsmSu:  requested number of processors reduced to:   4 ShMem   1 Linda.
   1 Symmetry operations used in ECPInt.
 ECPInt:  NShTT=   13203 NPrTT=   78401 LenC2=   11940 LenP2D=   45504.
 LDataN:  DoStor=T MaxTD1= 8 Len=  415
 Number of processors reduced to  13 by ecpmxn.
 NBasis=   524 RedAO= T EigKep=  2.49D-05  NBF=   524
 NBsUse=   524 1.00D-06 EigRej= -1.00D+00 NBFU=   524
 Defaulting to unpruned grid for atomic number  40.
 ExpMin= 1.01D-02 ExpMax= 1.61D+04 ExpMxC= 2.43D+03 IAcc=3 IRadAn=         5 AccDes= 0.00D+00
 Harris functional with IExCor=  402 and IRadAn=       5 diagonalized for initial guess.
 HarFok:  IExCor=  402 AccDes= 0.00D+00 IRadAn=         5 IDoV= 1 UseB2=F ITyADJ=14
 ICtDFT=  3500011 ScaDFX=  1.000000  1.000000  1.000000  1.000000
 Defaulting to unpruned grid for atomic number  40.
 FoFCou: FMM=F IPFlag=           0 FMFlag=      100000 FMFlg1=           0
         NFxFlg=           0 DoJE=T BraDBF=F KetDBF=T FulRan=T
         wScrn=  0.000000 ICntrl=       500 IOpCl=  0 I1Cent=   200000004 NGrid=           0
         NMat0=    1 NMatS0=      1 NMatT0=    0 NMatD0=    1 NMtDS0=    0 NMtDT0=    0
 Petite list used in FoFCou.
 Requested convergence on RMS density matrix=1.00D-08 within 128 cycles.
 Requested convergence on MAX density matrix=1.00D-06.
 Requested convergence on             energy=1.00D-06.
 No special actions if energy rises.
 Defaulting to unpruned grid for atomic number  40.
 Defaulting to unpruned grid for atomic number  40.
 Defaulting to unpruned grid for atomic number  40.
 Defaulting to unpruned grid for atomic number  40.
 Defaulting to unpruned grid for atomic number  40.
 Defaulting to unpruned grid for atomic number  40.
 Defaulting to unpruned grid for atomic number  40.
 Defaulting to unpruned grid for atomic number  40.
 Defaulting to unpruned grid for atomic number  40.
 Defaulting to unpruned grid for atomic number  40.
 Defaulting to unpruned grid for atomic number  40.
 Defaulting to unpruned grid for atomic number  40.
 Defaulting to unpruned grid for atomic number  40.
 Defaulting to unpruned grid for atomic number  40.
 Defaulting to unpruned grid for atomic number  40.
 Defaulting to unpruned grid for atomic number  40.
 SCF Done:  E(RB3LYP) =  -2416.93846070     A.U. after   14 cycles
            NFock= 14  Conv=0.48D-08     -V/T= 2.0184

 **********************************************************************

            Population analysis using the SCF Density.

 **********************************************************************

 Orbital symmetries:
       Occupied  (A) (A) (A) (A) (A) (A) (A) (A) (A) (A) (A) (A)
                 (A) (A) (A) (A) (A) (A) (A) (A) (A) (A) (A) (A)
                 (A) (A) (A) (A) (A) (A) (A) (A) (A) (A) (A) (A)
                 (A) (A) (A) (A) (A) (A) (A) (A) (A) (A) (A) (A)
                 (A) (A) (A) (A) (A) (A) (A) (A) (A) (A) (A) (A)
                 (A) (A) (A) (A) (A) (A) (A) (A) (A) (A) (A) (A)
                 (A) (A) (A) (A) (A) (A) (A) (A) (A) (A) (A) (A)
                 (A) (A) (A) (A) (A) (A) (A) (A) (A) (A) (A) (A)
                 (A) (A) (A) (A) (A) (A) (A) (A)
       Virtual   (A) (A) (A) (A) (A) (A) (A) (A) (A) (A) (A) (A)
                 (A) (A) (A) (A) (A) (A) (A) (A) (A) (A) (A) (A)
                 (A) (A) (A) (A) (A) (A) (A) (A) (A) (A) (A) (A)
                 (A) (A) (A) (A) (A) (A) (A) (A) (A) (A) (A) (A)
                 (A) (A) (A) (A) (A) (A) (A) (A) (A) (A) (A) (A)
                 (A) (A) (A) (A) (A) (A) (A) (A) (A) (A) (A) (A)
                 (A) (A) (A) (A) (A) (A) (A) (A) (A) (A) (A) (A)
                 (A) (A) (A) (A) (A) (A) (A) (A) (A) (A) (A) (A)
                 (A) (A) (A) (A) (A) (A) (A) (A) (A) (A) (A) (A)
                 (A) (A) (A) (A) (A) (A) (A) (A) (A) (A) (A) (A)
                 (A) (A) (A) (A) (A) (A) (A) (A) (A) (A) (A) (A)
                 (A) (A) (A) (A) (A) (A) (A) (A) (A) (A) (A) (A)
                 (A) (A) (A) (A) (A) (A) (A) (A) (A) (A) (A) (A)
                 (A) (A) (A) (A) (A) (A) (A) (A) (A) (A) (A) (A)
                 (A) (A) (A) (A) (A) (A) (A) (A) (A) (A) (A) (A)
                 (A) (A) (A) (A) (A) (A) (A) (A) (A) (A) (A) (A)
                 (A) (A) (A) (A) (A) (A) (A) (A) (A) (A) (A) (A)
                 (A) (A) (A) (A) (A) (A) (A) (A) (A) (A) (A) (A)
                 (A) (A) (A) (A) (A) (A) (A) (A) (A) (A) (A) (A)
                 (A) (A) (A) (A) (A) (A) (A) (A) (A) (A) (A) (A)
                 (A) (A) (A) (A) (A) (A) (A) (A) (A) (A) (A) (A)
                 (A) (A) (A) (A) (A) (A) (A) (A) (A) (A) (A) (A)
                 (A) (A) (A) (A) (A) (A) (A) (A) (A) (A) (A) (A)
                 (A) (A) (A) (A) (A) (A) (A) (A) (A) (A) (A) (A)
                 (A) (A) (A) (A) (A) (A) (A) (A) (A) (A) (A) (A)
                 (A) (A) (A) (A) (A) (A) (A) (A) (A) (A) (A) (A)
                 (A) (A) (A) (A) (A) (A) (A) (A) (A) (A) (A) (A)
                 (A) (A) (A) (A) (A) (A) (A) (A) (A) (A) (A) (A)
                 (A) (A) (A) (A) (A) (A) (A) (A) (A) (A) (A) (A)
                 (A) (A) (A) (A) (A) (A) (A) (A) (A) (A) (A) (A)
                 (A) (A) (A) (A) (A) (A) (A) (A) (A) (A) (A) (A)
                 (A) (A) (A) (A) (A) (A) (A) (A) (A) (A) (A) (A)
                 (A) (A) (A) (A) (A) (A) (A) (A) (A) (A) (A) (A)
                 (A) (A) (A) (A) (A) (A) (A) (A) (A) (A) (A) (A)
                 (A) (A) (A) (A) (A) (A) (A) (A) (A) (A) (A) (A)
 The electronic state is 1-A.
 Alpha  occ. eigenvalues --  -66.23662 -66.23476 -66.22253 -66.21983 -19.19018
 Alpha  occ. eigenvalues --  -19.18815 -19.18199 -19.18176 -19.17433 -19.17306
 Alpha  occ. eigenvalues --  -19.16835 -19.16548 -19.16345 -19.16078 -19.15684
 Alpha  occ. eigenvalues --  -19.15365 -19.15215 -19.14753 -19.14752 -19.13964
 Alpha  occ. eigenvalues --   -5.37724  -5.37401  -5.36304  -5.36034  -3.73721
 Alpha  occ. eigenvalues --   -3.73688  -3.73616  -3.73459  -3.73370  -3.73266
 Alpha  occ. eigenvalues --   -3.72380  -3.72261  -3.72123  -3.72036  -3.71975
 Alpha  occ. eigenvalues --   -3.71946  -2.12405  -1.28824  -1.28515  -1.28190
 Alpha  occ. eigenvalues --   -1.06873  -1.05636  -1.04619  -1.03640  -1.03065
 Alpha  occ. eigenvalues --   -1.02464  -1.01648  -1.01137  -1.00605  -1.00249
 Alpha  occ. eigenvalues --   -0.99951  -0.99687  -0.97865  -0.96956  -0.96063
 Alpha  occ. eigenvalues --   -0.95690  -0.63021  -0.61365  -0.60280  -0.57174
 Alpha  occ. eigenvalues --   -0.56015  -0.55315  -0.53805  -0.53749  -0.52728
 Alpha  occ. eigenvalues --   -0.52421  -0.51484  -0.50803  -0.50543  -0.49907
 Alpha  occ. eigenvalues --   -0.49324  -0.46168  -0.44292  -0.43994  -0.43007
 Alpha  occ. eigenvalues --   -0.42692  -0.42363  -0.42040  -0.40976  -0.40443
 Alpha  occ. eigenvalues --   -0.39306  -0.39129  -0.38520  -0.37985  -0.37666
 Alpha  occ. eigenvalues --   -0.37489  -0.37136  -0.36699  -0.36187  -0.36015
 Alpha  occ. eigenvalues --   -0.35879  -0.35566  -0.35321  -0.35096  -0.34597
 Alpha  occ. eigenvalues --   -0.34206  -0.34001  -0.33568  -0.33183  -0.32787
 Alpha  occ. eigenvalues --   -0.32500  -0.32328  -0.32031  -0.31754
 Alpha virt. eigenvalues --   -0.04126  -0.02762  -0.02190  -0.02089  -0.01483
 Alpha virt. eigenvalues --   -0.01302  -0.00332   0.00293   0.00692   0.01257
 Alpha virt. eigenvalues --    0.01362   0.01510   0.02334   0.02650   0.03010
 Alpha virt. eigenvalues --    0.03198   0.03471   0.03708   0.03764   0.03945
 Alpha virt. eigenvalues --    0.04325   0.04708   0.04941   0.05836   0.06377
 Alpha virt. eigenvalues --    0.06665   0.07118   0.07735   0.07998   0.08414
 Alpha virt. eigenvalues --    0.08746   0.08924   0.09312   0.09596   0.09851
 Alpha virt. eigenvalues --    0.10380   0.10528   0.10771   0.11022   0.11296
 Alpha virt. eigenvalues --    0.11653   0.12044   0.12354   0.12584   0.13106
 Alpha virt. eigenvalues --    0.13794   0.13979   0.14127   0.14384   0.14820
 Alpha virt. eigenvalues --    0.15184   0.15517   0.15740   0.16213   0.16516
 Alpha virt. eigenvalues --    0.16792   0.17218   0.17590   0.17824   0.18302
 Alpha virt. eigenvalues --    0.18460   0.18781   0.19390   0.19973   0.20376
 Alpha virt. eigenvalues --    0.20667   0.20989   0.21462   0.21536   0.22016
 Alpha virt. eigenvalues --    0.22191   0.22667   0.23016   0.23432   0.23517
 Alpha virt. eigenvalues --    0.23968   0.24226   0.24422   0.24950   0.25057
 Alpha virt. eigenvalues --    0.25235   0.25587   0.26310   0.26534   0.26659
 Alpha virt. eigenvalues --    0.26854   0.27122   0.27330   0.27921   0.28260
 Alpha virt. eigenvalues --    0.28348   0.28657   0.29032   0.29454   0.29640
 Alpha virt. eigenvalues --    0.29930   0.30186   0.30868   0.31080   0.31222
 Alpha virt. eigenvalues --    0.31528   0.31768   0.32463   0.32596   0.33015
 Alpha virt. eigenvalues --    0.33120   0.33749   0.33908   0.34202   0.34879
 Alpha virt. eigenvalues --    0.35153   0.35639   0.36083   0.36804   0.37168
 Alpha virt. eigenvalues --    0.37658   0.38050   0.38306   0.38878   0.38893
 Alpha virt. eigenvalues --    0.39811   0.40279   0.40890   0.41770   0.41798
 Alpha virt. eigenvalues --    0.42623   0.43011   0.43423   0.43663   0.44162
 Alpha virt. eigenvalues --    0.44619   0.45257   0.45491   0.46282   0.47011
 Alpha virt. eigenvalues --    0.47636   0.48269   0.49511   0.49583   0.50332
 Alpha virt. eigenvalues --    0.51358   0.51671   0.52502   0.53314   0.54543
 Alpha virt. eigenvalues --    0.55257   0.55525   0.56401   0.56695   0.57387
 Alpha virt. eigenvalues --    0.58284   0.59115   0.60517   0.60911   0.61319
 Alpha virt. eigenvalues --    0.62069   0.63325   0.63829   0.64814   0.65090
 Alpha virt. eigenvalues --    0.66579   0.67062   0.67165   0.68521   0.69687
 Alpha virt. eigenvalues --    0.70510   0.72072   0.72489   0.73079   0.73325
 Alpha virt. eigenvalues --    0.74688   0.75063   0.76177   0.77944   0.78230
 Alpha virt. eigenvalues --    0.80754   0.82195   0.83029   0.83925   0.84465
 Alpha virt. eigenvalues --    0.86264   0.87618   0.88505   0.91044   0.92959
 Alpha virt. eigenvalues --    0.93961   0.95241   0.95528   0.96937   0.97544
 Alpha virt. eigenvalues --    0.98873   0.99605   1.00254   1.00465   1.02164
 Alpha virt. eigenvalues --    1.03064   1.04706   1.05028   1.05813   1.06314
 Alpha virt. eigenvalues --    1.08161   1.08370   1.09476   1.10348   1.12086
 Alpha virt. eigenvalues --    1.12648   1.14357   1.15661   1.15957   1.18449
 Alpha virt. eigenvalues --    1.19035   1.19434   1.20781   1.21218   1.21847
 Alpha virt. eigenvalues --    1.22529   1.23131   1.23419   1.23862   1.24315
 Alpha virt. eigenvalues --    1.24431   1.25611   1.25979   1.26368   1.27060
 Alpha virt. eigenvalues --    1.27187   1.27920   1.29019   1.29739   1.30244
 Alpha virt. eigenvalues --    1.30786   1.30990   1.31308   1.31662   1.32534
 Alpha virt. eigenvalues --    1.32639   1.32911   1.33731   1.34306   1.34915
 Alpha virt. eigenvalues --    1.35747   1.36390   1.36838   1.37591   1.37913
 Alpha virt. eigenvalues --    1.38566   1.38968   1.40216   1.40874   1.42293
 Alpha virt. eigenvalues --    1.43509   1.43792   1.44472   1.45634   1.46468
 Alpha virt. eigenvalues --    1.48024   1.49369   1.50981   1.52729   1.55457
 Alpha virt. eigenvalues --    1.56220   1.57062   1.58260   1.58942   1.59618
 Alpha virt. eigenvalues --    1.61100   1.61720   1.62195   1.62529   1.62957
 Alpha virt. eigenvalues --    1.64205   1.65337   1.66341   1.67507   1.67913
 Alpha virt. eigenvalues --    1.68197   1.69723   1.69821   1.70430   1.71450
 Alpha virt. eigenvalues --    1.72310   1.72911   1.73086   1.73313   1.74146
 Alpha virt. eigenvalues --    1.74232   1.74692   1.75448   1.76128   1.76315
 Alpha virt. eigenvalues --    1.77013   1.78362   1.78806   1.79283   1.79749
 Alpha virt. eigenvalues --    1.80420   1.81078   1.81548   1.82344   1.83646
 Alpha virt. eigenvalues --    1.85284   1.85577   1.86011   1.86831   1.87124
 Alpha virt. eigenvalues --    1.88273   1.89124   1.90456   1.91921   1.92125
 Alpha virt. eigenvalues --    1.92947   1.93947   1.94571   1.95608   1.96903
 Alpha virt. eigenvalues --    1.97372   1.98007   1.99259   1.99546   2.00090
 Alpha virt. eigenvalues --    2.01087   2.01946   2.03635   2.04408   2.04769
 Alpha virt. eigenvalues --    2.04876   2.06307   2.07738   2.09797   2.10303
 Alpha virt. eigenvalues --    2.11338   2.13184   2.14449   2.15138   2.16522
 Alpha virt. eigenvalues --    2.16999   2.20016   2.22831   2.23904   2.25005
 Alpha virt. eigenvalues --    2.29795   2.32832   2.34967   2.38297   2.38901
 Alpha virt. eigenvalues --    2.39731   2.40555   2.41754   2.42233   2.43999
 Alpha virt. eigenvalues --    2.44777   2.45748   2.47274   2.47819   2.49239
 Alpha virt. eigenvalues --    2.49442   2.51897   2.53835   2.55134   2.58120
 Alpha virt. eigenvalues --    2.59279   2.59618   2.60442   2.60562   2.60905
 Alpha virt. eigenvalues --    2.61748   2.62232   2.62918   2.63243   2.63584
 Alpha virt. eigenvalues --    2.64199   2.65509   2.66006   2.66237   2.66506
 Alpha virt. eigenvalues --    2.67871   2.68437   2.72046   2.73001   2.73065
 Alpha virt. eigenvalues --    2.73894   2.75082   2.75811   2.76039   2.76649
 Alpha virt. eigenvalues --    2.77391   2.78122   2.78810   2.81842   2.82627
 Alpha virt. eigenvalues --    2.83810   2.84540   2.85268   2.86257   2.86759
 Alpha virt. eigenvalues --    2.89409   2.91288   2.92487   2.98047   2.99157
 Alpha virt. eigenvalues --    3.03652   3.07520   3.18626   3.29725   3.46244
 Alpha virt. eigenvalues --    3.48050   3.49156   3.50557   3.56404   3.57052
 Alpha virt. eigenvalues --    3.60094   3.61249   3.63909   3.66946   3.74397
 Alpha virt. eigenvalues --    3.82428   4.03328   4.14606   7.52737  30.94407
          Condensed to atoms (all electrons):
               1          2          3          4          5          6
     1  Si  25.569024  -1.101918  -3.107038  -1.640371  -4.184147  -0.317231
     2  O   -1.101918  10.204535   0.491239  -0.207254   0.179215  -0.149477
     3  O   -3.107038   0.491239  11.518762   0.420952   1.188801   0.074825
     4  O   -1.640371  -0.207254   0.420952   9.914120   0.535306  -0.554698
     5  O   -4.184147   0.179215   1.188801   0.535306  10.556716   0.019600
     6  Si  -0.317231  -0.149477   0.074825  -0.554698   0.019600  13.729218
     7  Si  -1.952255  -0.179028  -1.929239   0.015161   0.330414   0.051503
     8  Si  -0.221922  -0.576494  -0.116250   0.031699   0.041865  -0.208937
     9  Zr  -1.771179   0.049729  -0.600928  -0.003278   0.343830   0.048416
    10  O   -0.019918   0.001461   0.019062   0.000537  -0.036544  -0.000742
    11  O    0.104593  -0.001802  -0.091984  -0.002814  -0.044472  -0.000760
    12  O    0.057187   0.005691  -0.075035  -0.011583  -0.020638  -0.002645
    13  O   -0.021776   0.235139   0.002697  -0.004678  -0.002270   0.066793
    14  O   -0.019960   0.394894   0.114756  -0.021165  -0.013517   0.009331
    15  O    0.014664   0.086363   0.005997   0.002712  -0.003926  -0.010450
    16  O    0.077604   0.016554  -0.007520   0.276629  -0.014912  -0.536269
    17  O   -0.042682  -0.036151   0.025420   0.248641   0.015596  -0.358348
    18  O   -0.077831  -0.006199  -0.012861   0.178738   0.005763  -0.304809
    19  O    0.166614  -0.007880   0.531175   0.017866  -0.008253  -0.006917
    20  O    0.247020  -0.005135   0.494358  -0.005586  -0.034745   0.000272
    21  O   -0.012338   0.044588   0.243230  -0.005947  -0.007858  -0.001333
    22  H   -0.001506  -0.000008   0.006031   0.000270   0.000310  -0.000171
    23  H   -0.002018   0.000002  -0.000125   0.000002   0.000313   0.000019
    24  H   -0.015343   0.000431   0.005340   0.000045   0.000714   0.000078
    25  H   -0.000933  -0.005455  -0.000123   0.002833  -0.000023   0.004674
    26  H   -0.009065  -0.015355   0.000433  -0.000097   0.000148  -0.000102
    27  H    0.009532  -0.033452  -0.014267  -0.004871  -0.000035   0.005945
    28  H   -0.006799  -0.000150  -0.008204   0.000346   0.001274  -0.000485
    29  H   -0.006219  -0.007097  -0.026966   0.000965  -0.000068  -0.000158
    30  H   -0.001968  -0.000133  -0.011102  -0.000137   0.000138  -0.000083
    31  H   -0.001533  -0.002604   0.000039  -0.023173   0.000102   0.079436
    32  H    0.000238  -0.000175   0.000447   0.001521   0.000187   0.030561
    33  H   -0.020323   0.001400  -0.004362  -0.011287  -0.000234   0.052065
               7          8          9         10         11         12
     1  Si  -1.952255  -0.221922  -1.771179  -0.019918   0.104593   0.057187
     2  O   -0.179028  -0.576494   0.049729   0.001461  -0.001802   0.005691
     3  O   -1.929239  -0.116250  -0.600928   0.019062  -0.091984  -0.075035
     4  O    0.015161   0.031699  -0.003278   0.000537  -0.002814  -0.011583
     5  O    0.330414   0.041865   0.343830  -0.036544  -0.044472  -0.020638
     6  Si   0.051503  -0.208937   0.048416  -0.000742  -0.000760  -0.002645
     7  Si  17.033555   0.158594   0.327131   0.010396  -0.080554   0.031275
     8  Si   0.158594  12.922074   0.118816  -0.001225   0.001683   0.003121
     9  Zr   0.327131   0.118816  12.378220  -0.123152   0.177760   0.061568
    10  O    0.010396  -0.001225  -0.123152   8.873765  -0.055260  -0.056293
    11  O   -0.080554   0.001683   0.177760  -0.055260   8.382875  -0.012776
    12  O    0.031275   0.003121   0.061568  -0.056293  -0.012776   8.699062
    13  O    0.010408  -0.166512  -0.005646  -0.000000  -0.000126  -0.000009
    14  O   -0.138657  -0.499858  -0.048858  -0.000007   0.000183   0.000068
    15  O   -0.016857  -0.086350  -0.013204  -0.000006   0.000780   0.000042
    16  O   -0.001988  -0.014772  -0.020669  -0.000002   0.000012   0.000087
    17  O   -0.075776   0.115971  -0.022074  -0.000025  -0.000093   0.000245
    18  O   -0.005391   0.111924  -0.000748   0.000000  -0.000033  -0.000028
    19  O   -0.784265  -0.031567  -0.088433  -0.000136   0.000179  -0.002576
    20  O   -0.968561   0.006794  -0.093249  -0.001249   0.009843  -0.062731
    21  O   -0.269816  -0.037531   0.012573  -0.000003   0.011588  -0.000813
    22  H   -0.000536   0.000021  -0.024871  -0.002185   0.000119   0.262387
    23  H   -0.000692   0.000031  -0.077783   0.340065   0.000184   0.000022
    24  H    0.005690  -0.000580  -0.057250   0.000634   0.314134  -0.002378
    25  H   -0.000702   0.043407  -0.000768  -0.000000   0.000001   0.000000
    26  H    0.000810   0.062487  -0.000187   0.000000   0.000052   0.000000
    27  H    0.015450   0.090173   0.005138   0.000000  -0.000009  -0.000005
    28  H    0.038385  -0.000378   0.005803   0.000876  -0.001683   0.028578
    29  H    0.077580   0.023064  -0.002728  -0.000000  -0.000912   0.000033
    30  H    0.056930   0.000261   0.001771   0.000000   0.000010   0.000128
    31  H    0.000468  -0.003516   0.000071  -0.000000   0.000000   0.000000
    32  H   -0.000589   0.000097   0.001463   0.000000  -0.000000  -0.000001
    33  H    0.023023  -0.002777   0.001275   0.000000   0.000005   0.000008
              13         14         15         16         17         18
     1  Si  -0.021776  -0.019960   0.014664   0.077604  -0.042682  -0.077831
     2  O    0.235139   0.394894   0.086363   0.016554  -0.036151  -0.006199
     3  O    0.002697   0.114756   0.005997  -0.007520   0.025420  -0.012861
     4  O   -0.004678  -0.021165   0.002712   0.276629   0.248641   0.178738
     5  O   -0.002270  -0.013517  -0.003926  -0.014912   0.015596   0.005763
     6  Si   0.066793   0.009331  -0.010450  -0.536269  -0.358348  -0.304809
     7  Si   0.010408  -0.138657  -0.016857  -0.001988  -0.075776  -0.005391
     8  Si  -0.166512  -0.499858  -0.086350  -0.014772   0.115971   0.111924
     9  Zr  -0.005646  -0.048858  -0.013204  -0.020669  -0.022074  -0.000748
    10  O   -0.000000  -0.000007  -0.000006  -0.000002  -0.000025   0.000000
    11  O   -0.000126   0.000183   0.000780   0.000012  -0.000093  -0.000033
    12  O   -0.000009   0.000068   0.000042   0.000087   0.000245  -0.000028
    13  O    8.633170   0.005903  -0.080061   0.003316  -0.024412  -0.044628
    14  O    0.005903   8.983245   0.086253   0.006229  -0.059668  -0.026768
    15  O   -0.080061   0.086253   8.612748  -0.000221   0.003417   0.002030
    16  O    0.003316   0.006229  -0.000221   8.949102  -0.120203  -0.075732
    17  O   -0.024412  -0.059668   0.003417  -0.120203   8.995837   0.170991
    18  O   -0.044628  -0.026768   0.002030  -0.075732   0.170991   8.898645
    19  O    0.000359   0.018856   0.000612  -0.001916  -0.010023  -0.000577
    20  O   -0.000028  -0.003152   0.000296  -0.000014   0.001733   0.000043
    21  O   -0.000982   0.044814   0.004574  -0.000045  -0.011859  -0.000111
    22  H   -0.000000  -0.000001   0.000000  -0.000000   0.000001  -0.000000
    23  H   -0.000000  -0.000000   0.000000  -0.000000  -0.000000   0.000000
    24  H    0.000009  -0.000142  -0.000092  -0.000000   0.000005   0.000000
    25  H    0.227409  -0.008529   0.006752   0.000186   0.000400   0.010909
    26  H   -0.007439   0.003485   0.233278   0.000000  -0.000013   0.000008
    27  H   -0.002197   0.188500   0.001732  -0.000198   0.013459   0.001089
    28  H    0.000000   0.000008  -0.000002  -0.000003  -0.000011   0.000000
    29  H    0.000585   0.001239   0.000183  -0.000010  -0.000239   0.000030
    30  H   -0.000002  -0.000423   0.000000  -0.000060  -0.000021  -0.000010
    31  H    0.002129  -0.000078  -0.000011  -0.001580   0.001828   0.215649
    32  H   -0.000002  -0.000012   0.000000   0.231370  -0.003006   0.004505
    33  H    0.000659   0.000298  -0.000152   0.000223   0.211052   0.002982
              19         20         21         22         23         24
     1  Si   0.166614   0.247020  -0.012338  -0.001506  -0.002018  -0.015343
     2  O   -0.007880  -0.005135   0.044588  -0.000008   0.000002   0.000431
     3  O    0.531175   0.494358   0.243230   0.006031  -0.000125   0.005340
     4  O    0.017866  -0.005586  -0.005947   0.000270   0.000002   0.000045
     5  O   -0.008253  -0.034745  -0.007858   0.000310   0.000313   0.000714
     6  Si  -0.006917   0.000272  -0.001333  -0.000171   0.000019   0.000078
     7  Si  -0.784265  -0.968561  -0.269816  -0.000536  -0.000692   0.005690
     8  Si  -0.031567   0.006794  -0.037531   0.000021   0.000031  -0.000580
     9  Zr  -0.088433  -0.093249   0.012573  -0.024871  -0.077783  -0.057250
    10  O   -0.000136  -0.001249  -0.000003  -0.002185   0.340065   0.000634
    11  O    0.000179   0.009843   0.011588   0.000119   0.000184   0.314134
    12  O   -0.002576  -0.062731  -0.000813   0.262387   0.000022  -0.002378
    13  O    0.000359  -0.000028  -0.000982  -0.000000  -0.000000   0.000009
    14  O    0.018856  -0.003152   0.044814  -0.000001  -0.000000  -0.000142
    15  O    0.000612   0.000296   0.004574   0.000000   0.000000  -0.000092
    16  O   -0.001916  -0.000014  -0.000045  -0.000000  -0.000000  -0.000000
    17  O   -0.010023   0.001733  -0.011859   0.000001  -0.000000   0.000005
    18  O   -0.000577   0.000043  -0.000111  -0.000000   0.000000   0.000000
    19  O    9.081068   0.048131  -0.080808   0.000174  -0.000000   0.000082
    20  O    0.048131   8.852035   0.119644   0.004945  -0.000011  -0.001002
    21  O   -0.080808   0.119644   8.634765   0.000011   0.000000   0.002244
    22  H    0.000174   0.004945   0.000011   0.353942   0.000016  -0.000005
    23  H   -0.000000  -0.000011   0.000000   0.000016   0.366845   0.000006
    24  H    0.000082  -0.001002   0.002244  -0.000005   0.000006   0.358574
    25  H   -0.000033   0.000001  -0.000003   0.000000   0.000000  -0.000000
    26  H   -0.000000  -0.000001   0.000013  -0.000000  -0.000000   0.000001
    27  H   -0.001910   0.000073  -0.002969   0.000000   0.000000   0.000000
    28  H   -0.005342   0.221892  -0.002166  -0.003018   0.000001   0.000048
    29  H   -0.006146   0.003813   0.206386   0.000000  -0.000000   0.000037
    30  H    0.217282  -0.008085  -0.003052  -0.000000  -0.000000   0.000000
    31  H    0.000018  -0.000000  -0.000000   0.000000  -0.000000  -0.000000
    32  H    0.000024  -0.000002   0.000000   0.000000   0.000000   0.000000
    33  H    0.014553   0.000159   0.002811  -0.000000   0.000000  -0.000000
              25         26         27         28         29         30
     1  Si  -0.000933  -0.009065   0.009532  -0.006799  -0.006219  -0.001968
     2  O   -0.005455  -0.015355  -0.033452  -0.000150  -0.007097  -0.000133
     3  O   -0.000123   0.000433  -0.014267  -0.008204  -0.026966  -0.011102
     4  O    0.002833  -0.000097  -0.004871   0.000346   0.000965  -0.000137
     5  O   -0.000023   0.000148  -0.000035   0.001274  -0.000068   0.000138
     6  Si   0.004674  -0.000102   0.005945  -0.000485  -0.000158  -0.000083
     7  Si  -0.000702   0.000810   0.015450   0.038385   0.077580   0.056930
     8  Si   0.043407   0.062487   0.090173  -0.000378   0.023064   0.000261
     9  Zr  -0.000768  -0.000187   0.005138   0.005803  -0.002728   0.001771
    10  O   -0.000000   0.000000   0.000000   0.000876  -0.000000   0.000000
    11  O    0.000001   0.000052  -0.000009  -0.001683  -0.000912   0.000010
    12  O    0.000000   0.000000  -0.000005   0.028578   0.000033   0.000128
    13  O    0.227409  -0.007439  -0.002197   0.000000   0.000585  -0.000002
    14  O   -0.008529   0.003485   0.188500   0.000008   0.001239  -0.000423
    15  O    0.006752   0.233278   0.001732  -0.000002   0.000183   0.000000
    16  O    0.000186   0.000000  -0.000198  -0.000003  -0.000010  -0.000060
    17  O    0.000400  -0.000013   0.013459  -0.000011  -0.000239  -0.000021
    18  O    0.010909   0.000008   0.001089   0.000000   0.000030  -0.000010
    19  O   -0.000033  -0.000000  -0.001910  -0.005342  -0.006146   0.217282
    20  O    0.000001  -0.000001   0.000073   0.221892   0.003813  -0.008085
    21  O   -0.000003   0.000013  -0.002969  -0.002166   0.206386  -0.003052
    22  H    0.000000  -0.000000   0.000000  -0.003018   0.000000  -0.000000
    23  H    0.000000  -0.000000   0.000000   0.000001  -0.000000  -0.000000
    24  H   -0.000000   0.000001   0.000000   0.000048   0.000037   0.000000
    25  H    0.304161  -0.000009  -0.000120  -0.000000  -0.000001   0.000000
    26  H   -0.000009   0.359891  -0.000052   0.000000   0.000011  -0.000000
    27  H   -0.000120  -0.000052   0.308381  -0.000000  -0.000303   0.000053
    28  H   -0.000000   0.000000  -0.000000   0.261399  -0.000019   0.000055
    29  H   -0.000001   0.000011  -0.000303  -0.000019   0.301392   0.000151
    30  H    0.000000  -0.000000   0.000053   0.000055   0.000151   0.330948
    31  H   -0.000337   0.000000   0.000010   0.000000   0.000000   0.000000
    32  H   -0.000001  -0.000000  -0.000000   0.000000  -0.000000   0.000000
    33  H   -0.000004   0.000000  -0.001480  -0.000004   0.000074  -0.000358
              31         32         33
     1  Si  -0.001533   0.000238  -0.020323
     2  O   -0.002604  -0.000175   0.001400
     3  O    0.000039   0.000447  -0.004362
     4  O   -0.023173   0.001521  -0.011287
     5  O    0.000102   0.000187  -0.000234
     6  Si   0.079436   0.030561   0.052065
     7  Si   0.000468  -0.000589   0.023023
     8  Si  -0.003516   0.000097  -0.002777
     9  Zr   0.000071   0.001463   0.001275
    10  O   -0.000000   0.000000   0.000000
    11  O    0.000000  -0.000000   0.000005
    12  O    0.000000  -0.000001   0.000008
    13  O    0.002129  -0.000002   0.000659
    14  O   -0.000078  -0.000012   0.000298
    15  O   -0.000011   0.000000  -0.000152
    16  O   -0.001580   0.231370   0.000223
    17  O    0.001828  -0.003006   0.211052
    18  O    0.215649   0.004505   0.002982
    19  O    0.000018   0.000024   0.014553
    20  O   -0.000000  -0.000002   0.000159
    21  O   -0.000000   0.000000   0.002811
    22  H    0.000000   0.000000  -0.000000
    23  H   -0.000000   0.000000   0.000000
    24  H   -0.000000   0.000000  -0.000000
    25  H   -0.000337  -0.000001  -0.000004
    26  H    0.000000  -0.000000   0.000000
    27  H    0.000010  -0.000000  -0.001480
    28  H    0.000000   0.000000  -0.000004
    29  H    0.000000  -0.000000   0.000074
    30  H    0.000000   0.000000  -0.000358
    31  H    0.334932   0.000014  -0.000046
    32  H    0.000014   0.347873   0.000126
    33  H   -0.000046   0.000126   0.277459
 Mulliken charges:
               1
     1  Si   2.309796
     2  O   -1.375473
     3  O   -1.137561
     4  O   -1.151405
     5  O   -0.848648
     6  Si   2.280882
     7  Si   2.218132
     8  Si   2.236587
     9  Zr   1.421440
    10  O   -0.950050
    11  O   -0.710724
    12  O   -0.901992
    13  O   -0.827811
    14  O   -1.017266
    15  O   -0.851103
    16  O   -0.765198
    17  O   -1.039992
    18  O   -1.047580
    19  O   -1.060211
    20  O   -0.827499
    21  O   -0.889608
    22  H    0.404074
    23  H    0.373124
    24  H    0.388719
    25  H    0.416307
    26  H    0.371702
    27  H    0.422336
    28  H    0.469598
    29  H    0.435319
    30  H    0.417704
    31  H    0.398183
    32  H    0.385362
    33  H    0.452855
 Sum of Mulliken charges =  -0.00000
 Mulliken charges with hydrogens summed into heavy atoms:
               1
     1  Si   2.309796
     2  O   -1.375473
     3  O   -1.137561
     4  O   -1.151405
     5  O   -0.848648
     6  Si   2.280882
     7  Si   2.218132
     8  Si   2.236587
     9  Zr   1.421440
    10  O   -0.576925
    11  O   -0.322005
    12  O   -0.497918
    13  O   -0.411504
    14  O   -0.594930
    15  O   -0.479401
    16  O   -0.379837
    17  O   -0.587137
    18  O   -0.649396
    19  O   -0.642507
    20  O   -0.357901
    21  O   -0.454290
 Electronic spatial extent (au):  <R**2>=           7883.0165
 Charge=             -0.0000 electrons
 Dipole moment (field-independent basis, Debye):
    X=             -1.8948    Y=             -3.7157    Z=             -2.6691  Tot=              4.9519
 Quadrupole moment (field-independent basis, Debye-Ang):
   XX=           -156.4042   YY=           -155.7444   ZZ=           -162.1898
   XY=             -3.1425   XZ=              1.6474   YZ=             -7.6853
 Traceless Quadrupole moment (field-independent basis, Debye-Ang):
   XX=              1.7086   YY=              2.3684   ZZ=             -4.0770
   XY=             -3.1425   XZ=              1.6474   YZ=             -7.6853
 Octapole moment (field-independent basis, Debye-Ang**2):
  XXX=           -198.2348  YYY=            -17.1907  ZZZ=            -33.4377  XYY=            -56.2959
  XXY=            -34.5864  XXZ=            -74.6200  XZZ=             12.3270  YZZ=            -25.4427
  YYZ=            -31.3650  XYZ=              9.7171
 Hexadecapole moment (field-independent basis, Debye-Ang**3):
 XXXX=          -5142.8800 YYYY=          -2166.3153 ZZZZ=          -2068.5919 XXXY=             -3.0687
 XXXZ=            115.1443 YYYX=             29.6808 YYYZ=            -90.5350 ZZZX=            155.2967
 ZZZY=           -106.2406 XXYY=          -1428.2433 XXZZ=          -1115.3396 YYZZ=           -696.5025
 XXYZ=              7.6804 YYXZ=            -33.3067 ZZXY=            -85.7245
 N-N= 3.058634814928D+03 E-N=-1.182910741132D+04  KE= 2.373275146921D+03
 PrsmSu:  requested number of processors reduced to:   2 ShMem   1 Linda.
 PrsmSu:  requested number of processors reduced to:  10 ShMem   1 Linda.
   1 Symmetry operations used in ECPInt.
 ECPInt:  NShTT=   13203 NPrTT=   78401 LenC2=   11940 LenP2D=   45504.
 LDataN:  DoStor=T MaxTD1= 9 Len=  602
 Number of processors reduced to  14 by ecpmxn.
 Calling FoFJK, ICntrl=      2127 FMM=F ISym2X=0 I1Cent= 0 IOpClX= 0 NMat=1 NMatS=1 NMatT=0.
 CoulSu:  requested number of processors reduced to:  10 ShMem   1 Linda.
 Defaulting to unpruned grid for atomic number  40.
 Defaulting to unpruned grid for atomic number  40.
 Defaulting to unpruned grid for atomic number  40.
 Defaulting to unpruned grid for atomic number  40.
 Defaulting to unpruned grid for atomic number  40.
 Defaulting to unpruned grid for atomic number  40.
 Defaulting to unpruned grid for atomic number  40.
 Defaulting to unpruned grid for atomic number  40.
 Defaulting to unpruned grid for atomic number  40.
 Defaulting to unpruned grid for atomic number  40.
 Defaulting to unpruned grid for atomic number  40.
 Defaulting to unpruned grid for atomic number  40.
 Defaulting to unpruned grid for atomic number  40.
 Defaulting to unpruned grid for atomic number  40.
 Defaulting to unpruned grid for atomic number  40.
 Defaulting to unpruned grid for atomic number  40.
 ***** Axes restored to original set *****
 -------------------------------------------------------------------
 Center     Atomic                   Forces (Hartrees/Bohr)
 Number     Number              X              Y              Z
 -------------------------------------------------------------------
      1       14          -0.008685263    0.000525053   -0.005351609
      2        8           0.000400831    0.000447163    0.000481910
      3        8          -0.002987629   -0.000305452   -0.003794752
      4        8           0.000681492   -0.000429193    0.000476708
      5        8          -0.001443313   -0.000117914    0.002907934
      6       14          -0.000649382    0.000233179    0.000180577
      7       14           0.005127933    0.003549522    0.010678238
      8       14          -0.000562267   -0.000381942    0.000101467
      9       40           0.005068813   -0.005903907   -0.001174473
     10        8           0.001254972   -0.000173620   -0.000913836
     11        8           0.002558028   -0.000643534   -0.001638287
     12        8           0.011993751    0.009248622   -0.004573519
     13        8           0.000187648    0.000024059    0.000031421
     14        8           0.000199086    0.000064476   -0.000176421
     15        8           0.000114095    0.000187469    0.000049406
     16        8           0.000087718   -0.000128904   -0.000005607
     17        8           0.000067083   -0.000120191   -0.000297161
     18        8           0.000159540    0.000005382    0.000042364
     19        8          -0.001050203   -0.000439909   -0.001401311
     20        8          -0.013459900   -0.006981587    0.013372738
     21        8          -0.000915888   -0.001184692   -0.001580380
     22        1           0.001585458    0.000507676   -0.002870747
     23        1           0.000152526    0.000385483   -0.000158854
     24        1          -0.000321460    0.000224841    0.000389102
     25        1          -0.000044079    0.000026168   -0.000011590
     26        1           0.000018853   -0.000049015   -0.000029961
     27        1          -0.000042471    0.000035816    0.000059628
     28        1           0.000112388    0.001492714   -0.005240775
     29        1          -0.000101707   -0.000097546    0.000257975
     30        1           0.000401592   -0.000159653   -0.000090343
     31        1          -0.000014976    0.000003071   -0.000016874
     32        1          -0.000015569    0.000055361   -0.000001916
     33        1           0.000122299    0.000101004    0.000298945
 -------------------------------------------------------------------
 Cartesian Forces:  Max     0.013459900 RMS     0.003297845

 GradGradGradGradGradGradGradGradGradGradGradGradGradGradGradGradGradGrad
 Berny optimization.
 FormGI is forming the generalized inverse of G from B-inverse, IUseBI=4.
 Internal  Forces:  Max     0.064551502 RMS     0.008600012
 Search for a local minimum.
 Step number   1 out of a maximum of  164
 All quantities printed in internal units (Hartrees-Bohrs-Radians)
 Mixed Optimization -- RFO/linear search
 Second derivative matrix not updated -- first step.
 ITU=  0
     Eigenvalues ---    0.00230   0.00230   0.00230   0.00590   0.03211
     Eigenvalues ---    0.03439   0.03520   0.03558   0.03586   0.03627
     Eigenvalues ---    0.03673   0.03711   0.03747   0.03753   0.03833
     Eigenvalues ---    0.03844   0.03910   0.03946   0.03957   0.04135
     Eigenvalues ---    0.04770   0.07824   0.08772   0.11319   0.11406
     Eigenvalues ---    0.11516   0.11815   0.11842   0.12054   0.12258
     Eigenvalues ---    0.12943   0.12968   0.13045   0.13264   0.15034
     Eigenvalues ---    0.15492   0.16000   0.16000   0.16000   0.16000
     Eigenvalues ---    0.16000   0.16000   0.16000   0.16000   0.16000
     Eigenvalues ---    0.16000   0.16000   0.16000   0.17756   0.18398
     Eigenvalues ---    0.19257   0.20145   0.20369   0.20384   0.21054
     Eigenvalues ---    0.21061   0.21266   0.21537   0.21865   0.22128
     Eigenvalues ---    0.22812   0.25000   0.25000   0.25000   0.36734
     Eigenvalues ---    0.37725   0.40032   0.40890   0.41311   0.41617
     Eigenvalues ---    0.42076   0.42599   0.43032   0.43450   0.43522
     Eigenvalues ---    0.44473   0.44608   0.45420   0.45878   0.46010
     Eigenvalues ---    0.50565   0.51158   0.51894   0.52645   0.52665
     Eigenvalues ---    0.54349   0.54581   0.54655   0.54656   0.54845
     Eigenvalues ---    0.55240   0.557781000.000001000.000001000.00000
     Eigenvalues --- 1000.000001000.000001000.000001000.000001000.00000
     Eigenvalues --- 1000.000001000.000001000.000001000.000001000.00000
     Eigenvalues --- 1000.000001000.000001000.000001000.000001000.00000
     Eigenvalues --- 1000.000001000.000001000.000001000.000001000.00000
     Eigenvalues --- 1000.000001000.000001000.000001000.000001000.00000
     Eigenvalues --- 1000.000001000.000001000.000001000.000001000.00000
     Eigenvalues --- 1000.000001000.000001000.000001000.000001000.00000
     Eigenvalues --- 1000.000001000.000001000.000001000.000001000.00000
     Eigenvalues --- 1000.000001000.000001000.000001000.000001000.00000
     Eigenvalues --- 1000.000001000.000001000.000001000.000001000.00000
     Eigenvalues --- 1000.000001000.000001000.000001000.000001000.00000
     Eigenvalues --- 1000.000001000.000001000.000001000.00000
 RFO step:  Lambda=-4.81498614D-02 EMin= 2.30000000D-03
 Linear search not attempted -- first point.
 Maximum step size (   0.300) exceeded in Quadratic search.
    -- Step size scaled by   0.825
 Iteration  1 RMS(Cart)=  0.25808333 RMS(Int)=  0.01341645
 Iteration  2 RMS(Cart)=  0.06500221 RMS(Int)=  0.00096900
 Iteration  3 RMS(Cart)=  0.00170652 RMS(Int)=  0.00055869
 Iteration  4 RMS(Cart)=  0.00000148 RMS(Int)=  0.00055869
 Iteration  5 RMS(Cart)=  0.00000000 RMS(Int)=  0.00055869
 Iteration  1 RMS(Cart)=  0.00004706 RMS(Int)=  0.00002811
 Iteration  2 RMS(Cart)=  0.00003478 RMS(Int)=  0.00003070
 Iteration  3 RMS(Cart)=  0.00002570 RMS(Int)=  0.00003537
 Iteration  4 RMS(Cart)=  0.00001900 RMS(Int)=  0.00003983
 Iteration  5 RMS(Cart)=  0.00001404 RMS(Int)=  0.00004350
 Iteration  6 RMS(Cart)=  0.00001037 RMS(Int)=  0.00004637
 Iteration  7 RMS(Cart)=  0.00000766 RMS(Int)=  0.00004856
 Iteration  8 RMS(Cart)=  0.00000566 RMS(Int)=  0.00005021
 Iteration  9 RMS(Cart)=  0.00000418 RMS(Int)=  0.00005145
 Iteration 10 RMS(Cart)=  0.00000309 RMS(Int)=  0.00005237
 Iteration 11 RMS(Cart)=  0.00000228 RMS(Int)=  0.00005306
 Iteration 12 RMS(Cart)=  0.00000169 RMS(Int)=  0.00005357
 Iteration 13 RMS(Cart)=  0.00000125 RMS(Int)=  0.00005394
 Iteration 14 RMS(Cart)=  0.00000092 RMS(Int)=  0.00005422
 Variable       Old X    -DE/DX   Delta X   Delta X   Delta X     New X
                                 (Linear)    (Quad)   (Total)
    R1        3.07970  -0.00048   0.00000  -0.00078  -0.00078   3.07891
    R2        3.15210   0.00520   0.00000   0.00955   0.00955   3.16166
    R3        3.11330  -0.00057   0.00000  -0.00099  -0.00099   3.11231
    R4        3.06222  -0.00287   0.00000   0.02206   0.02238   3.08461
    R5        5.51844   0.02427   0.00000   0.04554   0.04555   5.56398
    R6        3.13114   0.00016   0.00000   0.00028   0.00028   3.13141
    R7        3.12526   0.01657   0.00000   0.02914   0.02914   3.15440
    R8        3.11868   0.00030   0.00000   0.00052   0.00052   3.11920
    R9        3.82373  -0.00509   0.00000   0.03439   0.03412   3.85785
   R10        3.10818  -0.00008   0.00000  -0.00014  -0.00014   3.10804
   R11        3.10731  -0.00002   0.00000  -0.00004  -0.00004   3.10727
   R12        3.13510  -0.00011   0.00000  -0.00020  -0.00020   3.13490
   R13        3.18468  -0.00017   0.00000  -0.00032  -0.00032   3.18436
   R14        3.07820  -0.01023   0.00000  -0.01660  -0.01660   3.06160
   R15        3.08491   0.00087   0.00000   0.00143   0.00143   3.08634
[...]
 Alpha virt. eigenvalues --    3.48164   3.49170   3.50679   3.53389   3.56032
 Alpha virt. eigenvalues --    3.59829   3.61015   3.61168   3.63975   3.69696
 Alpha virt. eigenvalues --    3.75016   3.97010   4.17742   7.21506  30.91671
          Condensed to atoms (all electrons):
               1          2          3          4          5          6
     1  Si  24.336828  -0.942127  -2.714028  -1.623557  -3.894428  -0.321976
     2  O   -0.942127  10.191547   0.411291  -0.157535   0.120931  -0.176640
     3  O   -2.714028   0.411291  11.169791   0.394268   1.092043   0.083327
     4  O   -1.623557  -0.157535   0.394268   9.918304   0.514407  -0.617427
     5  O   -3.894428   0.120931   1.092043   0.514407  10.480936   0.029061
     6  Si  -0.321976  -0.176640   0.083327  -0.617427   0.029061  13.832052
     7  Si  -1.727427  -0.190924  -1.716910   0.024716   0.306165   0.065609
     8  Si  -0.220427  -0.606898  -0.123151   0.019820   0.045885  -0.200195
     9  Zr  -1.543243   0.036037  -0.564646  -0.010623   0.309765   0.042986
    10  O   -0.021408   0.001872   0.015892   0.000392  -0.033560  -0.000881
    11  O    0.094381  -0.000130  -0.093827  -0.003361  -0.038084  -0.000955
    12  O    0.047459   0.004364  -0.055894  -0.009177  -0.022014  -0.001624
    13  O   -0.017413   0.254700   0.002970  -0.003364  -0.002906   0.064667
    14  O   -0.025701   0.392103   0.110388  -0.014785  -0.014633   0.008413
    15  O    0.022656   0.100824   0.004388   0.001547  -0.003590  -0.009251
    16  O    0.075486   0.018193  -0.007924   0.299532  -0.015905  -0.578045
    17  O   -0.042974  -0.019264   0.020957   0.250329   0.012464  -0.356428
    18  O   -0.077210  -0.004663  -0.010966   0.178990   0.005439  -0.300950
    19  O    0.168463  -0.012944   0.501407   0.013289  -0.007913  -0.004138
    20  O    0.226133  -0.001319   0.475597  -0.006663  -0.032423  -0.000766
    21  O   -0.022092   0.040274   0.181682  -0.006488  -0.004531  -0.001871
    22  H   -0.000916  -0.000004   0.004661   0.000146   0.000082  -0.000148
    23  H   -0.001630  -0.000001  -0.000155   0.000003   0.000336   0.000019
    24  H   -0.015159   0.000237   0.005645   0.000072   0.000589   0.000036
    25  H   -0.001208  -0.006480  -0.000151   0.002746   0.000019   0.004865
    26  H   -0.009252  -0.014547   0.000408  -0.000104   0.000146  -0.000129
    27  H    0.007902  -0.032478  -0.012010  -0.004913   0.000028   0.006613
    28  H   -0.005867  -0.000196  -0.001725   0.000353   0.001002  -0.000460
    29  H   -0.002963  -0.007353  -0.025544   0.000981  -0.000096  -0.000139
    30  H   -0.002220  -0.000159  -0.011969  -0.000130   0.000153   0.000548
    31  H   -0.001912  -0.002723   0.000023  -0.023347   0.000134   0.079078
    32  H    0.000677  -0.000191   0.000392   0.001181   0.000207   0.030988
    33  H   -0.019272   0.000971  -0.003633  -0.011230  -0.000169   0.049385
               7          8          9         10         11         12
     1  Si  -1.727427  -0.220427  -1.543243  -0.021408   0.094381   0.047459
     2  O   -0.190924  -0.606898   0.036037   0.001872  -0.000130   0.004364
     3  O   -1.716910  -0.123151  -0.564646   0.015892  -0.093827  -0.055894
     4  O    0.024716   0.019820  -0.010623   0.000392  -0.003361  -0.009177
     5  O    0.306165   0.045885   0.309765  -0.033560  -0.038084  -0.022014
     6  Si   0.065609  -0.200195   0.042986  -0.000881  -0.000955  -0.001624
     7  Si  16.433596   0.162717   0.291775   0.007760  -0.064495  -0.001060
     8  Si   0.162717  13.035000   0.115873  -0.001056   0.000657   0.002553
     9  Zr   0.291775   0.115873  12.216552  -0.141677   0.192536   0.108728
    10  O    0.007760  -0.001056  -0.141677   8.900486  -0.054886  -0.054334
    11  O   -0.064495   0.000657   0.192536  -0.054886   8.343514  -0.010619
    12  O   -0.001060   0.002553   0.108728  -0.054334  -0.010619   8.554907
    13  O    0.010037  -0.198581  -0.006286  -0.000000  -0.000129  -0.000007
    14  O   -0.135045  -0.511219  -0.045884  -0.000014   0.000468   0.000103
    15  O   -0.018303  -0.118507  -0.013626  -0.000011   0.000729   0.000019
    16  O   -0.003181  -0.014483  -0.018508  -0.000001   0.000011   0.000061
    17  O   -0.071203   0.108343  -0.022682  -0.000019  -0.000115   0.000033
    18  O   -0.005602   0.109516  -0.001091   0.000000  -0.000033  -0.000021
    19  O   -0.752590  -0.033307  -0.086999  -0.000069  -0.000417  -0.003769
    20  O   -0.903767   0.008072  -0.096168  -0.000677   0.007316  -0.025501
    21  O   -0.145038  -0.037771   0.021335   0.000002   0.006529   0.000857
    22  H    0.000033   0.000034  -0.026026  -0.002055   0.000168   0.267784
    23  H   -0.000494   0.000033  -0.081234   0.345029   0.000297   0.000258
    24  H    0.005789  -0.000606  -0.049044   0.000907   0.305526  -0.002215
    25  H   -0.000696   0.043677  -0.000682  -0.000000   0.000000   0.000000
    26  H    0.000892   0.060522   0.000015   0.000000   0.000056   0.000000
    27  H    0.012936   0.090046   0.004545   0.000000  -0.000007  -0.000002
    28  H    0.025959  -0.000382   0.005549   0.000601  -0.001378   0.035467
    29  H    0.071330   0.023302  -0.002754   0.000000  -0.000632  -0.000001
    30  H    0.055621   0.000355   0.002198  -0.000000   0.000008   0.000112
    31  H    0.000477  -0.003211   0.000089   0.000000   0.000000  -0.000000
    32  H   -0.000517   0.000110   0.001166   0.000000  -0.000000  -0.000001
    33  H    0.021722  -0.003127   0.000845   0.000000   0.000006   0.000012
              13         14         15         16         17         18
     1  Si  -0.017413  -0.025701   0.022656   0.075486  -0.042974  -0.077210
     2  O    0.254700   0.392103   0.100824   0.018193  -0.019264  -0.004663
     3  O    0.002970   0.110388   0.004388  -0.007924   0.020957  -0.010966
     4  O   -0.003364  -0.014785   0.001547   0.299532   0.250329   0.178990
     5  O   -0.002906  -0.014633  -0.003590  -0.015905   0.012464   0.005439
     6  Si   0.064667   0.008413  -0.009251  -0.578045  -0.356428  -0.300950
     7  Si   0.010037  -0.135045  -0.018303  -0.003181  -0.071203  -0.005602
     8  Si  -0.198581  -0.511219  -0.118507  -0.014483   0.108343   0.109516
     9  Zr  -0.006286  -0.045884  -0.013626  -0.018508  -0.022682  -0.001091
    10  O   -0.000000  -0.000014  -0.000011  -0.000001  -0.000019   0.000000
    11  O   -0.000129   0.000468   0.000729   0.000011  -0.000115  -0.000033
    12  O   -0.000007   0.000103   0.000019   0.000061   0.000033  -0.000021
    13  O    8.635431   0.010220  -0.077923   0.003454  -0.024586  -0.045051
    14  O    0.010220   8.972527   0.090218   0.005910  -0.052742  -0.025185
    15  O   -0.077923   0.090218   8.624368  -0.000224   0.003058   0.002204
    16  O    0.003454   0.005910  -0.000224   8.969977  -0.113933  -0.076353
    17  O   -0.024586  -0.052742   0.003058  -0.113933   8.968280   0.168014
    18  O   -0.045051  -0.025185   0.002204  -0.076353   0.168014   8.893239
    19  O    0.000283   0.018087   0.000752  -0.002656  -0.013269  -0.000356
    20  O   -0.000032  -0.002975   0.000313   0.000054   0.001722   0.000029
    21  O   -0.000900   0.041290   0.005117  -0.000106  -0.011389  -0.000045
    22  H   -0.000000  -0.000000   0.000000  -0.000000   0.000000  -0.000000
    23  H   -0.000000   0.000000   0.000000   0.000000   0.000000   0.000000
    24  H    0.000010  -0.000162  -0.000109   0.000000   0.000004   0.000000
    25  H    0.227572  -0.008682   0.006478   0.000134   0.000556   0.011234
    26  H   -0.007665   0.003165   0.233893   0.000000  -0.000011   0.000009
    27  H   -0.002558   0.190912   0.001794  -0.000188   0.011770   0.000924
    28  H    0.000000  -0.000007  -0.000002  -0.000003  -0.000010   0.000000
    29  H    0.000628   0.002041   0.000300  -0.000010  -0.000372   0.000029
    30  H   -0.000002  -0.000475   0.000000  -0.000083   0.000264  -0.000006
    31  H    0.001962  -0.000064  -0.000009  -0.001306   0.001836   0.216486
    32  H   -0.000002  -0.000012   0.000000   0.230645  -0.002911   0.004335
    33  H    0.000746   0.000630  -0.000162  -0.000033   0.214560   0.003026
              19         20         21         22         23         24
     1  Si   0.168463   0.226133  -0.022092  -0.000916  -0.001630  -0.015159
     2  O   -0.012944  -0.001319   0.040274  -0.000004  -0.000001   0.000237
     3  O    0.501407   0.475597   0.181682   0.004661  -0.000155   0.005645
     4  O    0.013289  -0.006663  -0.006488   0.000146   0.000003   0.000072
     5  O   -0.007913  -0.032423  -0.004531   0.000082   0.000336   0.000589
     6  Si  -0.004138  -0.000766  -0.001871  -0.000148   0.000019   0.000036
     7  Si  -0.752590  -0.903767  -0.145038   0.000033  -0.000494   0.005789
     8  Si  -0.033307   0.008072  -0.037771   0.000034   0.000033  -0.000606
     9  Zr  -0.086999  -0.096168   0.021335  -0.026026  -0.081234  -0.049044
    10  O   -0.000069  -0.000677   0.000002  -0.002055   0.345029   0.000907
    11  O   -0.000417   0.007316   0.006529   0.000168   0.000297   0.305526
    12  O   -0.003769  -0.025501   0.000857   0.267784   0.000258  -0.002215
    13  O    0.000283  -0.000032  -0.000900  -0.000000  -0.000000   0.000010
    14  O    0.018087  -0.002975   0.041290  -0.000000   0.000000  -0.000162
    15  O    0.000752   0.000313   0.005117   0.000000   0.000000  -0.000109
    16  O   -0.002656   0.000054  -0.000106  -0.000000   0.000000   0.000000
    17  O   -0.013269   0.001722  -0.011389   0.000000   0.000000   0.000004
    18  O   -0.000356   0.000029  -0.000045  -0.000000   0.000000   0.000000
    19  O    9.099640   0.040919  -0.086552   0.000044  -0.000000   0.000152
    20  O    0.040919   8.819462   0.101397   0.003543  -0.000005  -0.001458
    21  O   -0.086552   0.101397   8.595553   0.000018  -0.000000   0.003205
    22  H    0.000044   0.003543   0.000018   0.356213   0.000012  -0.000007
    23  H   -0.000000  -0.000005  -0.000000   0.000012   0.367460   0.000005
    24  H    0.000152  -0.001458   0.003205  -0.000007   0.000005   0.359115
    25  H   -0.000035   0.000001  -0.000009   0.000000   0.000000  -0.000000
    26  H   -0.000000  -0.000001   0.000010  -0.000000  -0.000000   0.000002
    27  H   -0.001089   0.000060  -0.002170   0.000000   0.000000   0.000000
    28  H   -0.005277   0.229043  -0.002136  -0.002316   0.000000   0.000048
    29  H   -0.005066   0.004533   0.208253   0.000000  -0.000000   0.000006
    30  H    0.216423  -0.006431  -0.002644   0.000000  -0.000000   0.000000
    31  H    0.000020  -0.000000  -0.000000   0.000000  -0.000000  -0.000000
    32  H    0.000048  -0.000002   0.000001   0.000000   0.000000  -0.000000
    33  H    0.013539   0.000216   0.002647  -0.000000  -0.000000  -0.000000
              25         26         27         28         29         30
     1  Si  -0.001208  -0.009252   0.007902  -0.005867  -0.002963  -0.002220
     2  O   -0.006480  -0.014547  -0.032478  -0.000196  -0.007353  -0.000159
     3  O   -0.000151   0.000408  -0.012010  -0.001725  -0.025544  -0.011969
     4  O    0.002746  -0.000104  -0.004913   0.000353   0.000981  -0.000130
     5  O    0.000019   0.000146   0.000028   0.001002  -0.000096   0.000153
     6  Si   0.004865  -0.000129   0.006613  -0.000460  -0.000139   0.000548
     7  Si  -0.000696   0.000892   0.012936   0.025959   0.071330   0.055621
     8  Si   0.043677   0.060522   0.090046  -0.000382   0.023302   0.000355
     9  Zr  -0.000682   0.000015   0.004545   0.005549  -0.002754   0.002198
    10  O   -0.000000   0.000000   0.000000   0.000601   0.000000  -0.000000
    11  O    0.000000   0.000056  -0.000007  -0.001378  -0.000632   0.000008
    12  O    0.000000   0.000000  -0.000002   0.035467  -0.000001   0.000112
    13  O    0.227572  -0.007665  -0.002558   0.000000   0.000628  -0.000002
    14  O   -0.008682   0.003165   0.190912  -0.000007   0.002041  -0.000475
    15  O    0.006478   0.233893   0.001794  -0.000002   0.000300   0.000000
    16  O    0.000134   0.000000  -0.000188  -0.000003  -0.000010  -0.000083
    17  O    0.000556  -0.000011   0.011770  -0.000010  -0.000372   0.000264
    18  O    0.011234   0.000009   0.000924   0.000000   0.000029  -0.000006
    19  O   -0.000035  -0.000000  -0.001089  -0.005277  -0.005066   0.216423
    20  O    0.000001  -0.000001   0.000060   0.229043   0.004533  -0.006431
    21  O   -0.000009   0.000010  -0.002170  -0.002136   0.208253  -0.002644
    22  H    0.000000  -0.000000   0.000000  -0.002316   0.000000   0.000000
    23  H    0.000000  -0.000000   0.000000   0.000000  -0.000000  -0.000000
    24  H   -0.000000   0.000002   0.000000   0.000048   0.000006   0.000000
    25  H    0.303251  -0.000006  -0.000111  -0.000000  -0.000000   0.000000
    26  H   -0.000006   0.360884  -0.000052   0.000000   0.000014  -0.000000
    27  H   -0.000111  -0.000052   0.310084   0.000000  -0.000495   0.000053
    28  H   -0.000000   0.000000   0.000000   0.272752  -0.000014   0.000073
    29  H   -0.000000   0.000014  -0.000495  -0.000014   0.296086   0.000123
    30  H    0.000000  -0.000000   0.000053   0.000073   0.000123   0.325407
    31  H   -0.000235   0.000000   0.000009   0.000000   0.000000   0.000000
    32  H   -0.000001  -0.000000  -0.000000   0.000000  -0.000000   0.000000
    33  H   -0.000004   0.000000  -0.001514  -0.000003   0.000073  -0.000022
              31         32         33
     1  Si  -0.001912   0.000677  -0.019272
     2  O   -0.002723  -0.000191   0.000971
     3  O    0.000023   0.000392  -0.003633
     4  O   -0.023347   0.001181  -0.011230
     5  O    0.000134   0.000207  -0.000169
     6  Si   0.079078   0.030988   0.049385
     7  Si   0.000477  -0.000517   0.021722
     8  Si  -0.003211   0.000110  -0.003127
     9  Zr   0.000089   0.001166   0.000845
    10  O    0.000000   0.000000   0.000000
    11  O    0.000000  -0.000000   0.000006
    12  O   -0.000000  -0.000001   0.000012
    13  O    0.001962  -0.000002   0.000746
    14  O   -0.000064  -0.000012   0.000630
    15  O   -0.000009   0.000000  -0.000162
    16  O   -0.001306   0.230645  -0.000033
    17  O    0.001836  -0.002911   0.214560
    18  O    0.216486   0.004335   0.003026
    19  O    0.000020   0.000048   0.013539
    20  O   -0.000000  -0.000002   0.000216
    21  O   -0.000000   0.000001   0.002647
    22  H    0.000000   0.000000  -0.000000
    23  H   -0.000000   0.000000  -0.000000
    24  H   -0.000000  -0.000000  -0.000000
    25  H   -0.000235  -0.000001  -0.000004
    26  H    0.000000  -0.000000   0.000000
    27  H    0.000009  -0.000000  -0.001514
    28  H    0.000000   0.000000  -0.000003
    29  H    0.000000  -0.000000   0.000073
    30  H    0.000000   0.000000  -0.000022
    31  H    0.334207   0.000020  -0.000048
    32  H    0.000020   0.346896   0.000123
    33  H   -0.000048   0.000123   0.279396
 Mulliken charges:
               1
     1  Si   2.274426
     2  O   -1.396769
     3  O   -1.132598
     4  O   -1.128372
     5  O   -0.849541
     6  Si   2.274374
     7  Si   2.240121
     8  Si   2.246406
     9  Zr   1.361178
    10  O   -0.962295
    11  O   -0.683138
    12  O   -0.836479
    13  O   -0.825276
    14  O   -1.008890
    15  O   -0.856938
    16  O   -0.770514
    17  O   -1.030282
    18  O   -1.045942
    19  O   -1.056620
    20  O   -0.840220
    21  O   -0.884425
    22  H    0.398735
    23  H    0.370065
    24  H    0.387410
    25  H    0.417767
    26  H    0.371752
    27  H    0.419910
    28  H    0.448930
    29  H    0.437739
    30  H    0.422802
    31  H    0.398515
    32  H    0.386847
    33  H    0.451321
 Sum of Mulliken charges =  -0.00000
 Mulliken charges with hydrogens summed into heavy atoms:
               1
     1  Si   2.274426
     2  O   -1.396769
     3  O   -1.132598
     4  O   -1.128372
     5  O   -0.849541
     6  Si   2.274374
     7  Si   2.240121
     8  Si   2.246406
     9  Zr   1.361178
    10  O   -0.592230
    11  O   -0.295727
    12  O   -0.437744
    13  O   -0.407509
    14  O   -0.588980
    15  O   -0.485186
    16  O   -0.383667
    17  O   -0.578961
    18  O   -0.647427
    19  O   -0.633818
    20  O   -0.391290
    21  O   -0.446686
 Electronic spatial extent (au):  <R**2>=           7956.9290
 Charge=             -0.0000 electrons
 Dipole moment (field-independent basis, Debye):
    X=             -1.6692    Y=             -3.8709    Z=             -2.4890  Tot=              4.8955
 Quadrupole moment (field-independent basis, Debye-Ang):
   XX=           -157.4142   YY=           -156.8796   ZZ=           -160.6484
   XY=             -3.5856   XZ=              2.0257   YZ=             -7.6903
 Traceless Quadrupole moment (field-independent basis, Debye-Ang):
   XX=              0.8998   YY=              1.4345   ZZ=             -2.3343
   XY=             -3.5856   XZ=              2.0257   YZ=             -7.6903
 Octapole moment (field-independent basis, Debye-Ang**2):
  XXX=           -199.5758  YYY=            -21.0794  ZZZ=            -36.7927  XYY=            -55.0837
  XXY=            -37.0021  XXZ=            -75.1048  XZZ=              9.9996  YZZ=            -26.0953
  YYZ=            -29.6932  XYZ=              6.9446
 Hexadecapole moment (field-independent basis, Debye-Ang**3):
 XXXX=          -5232.1351 YYYY=          -2175.9595 ZZZZ=          -2086.5576 XXXY=             35.9970
 XXXZ=            129.3690 YYYX=              1.7453 YYYZ=            -89.9597 ZZZX=            153.3396
 ZZZY=           -100.3064 XXYY=          -1458.4122 XXZZ=          -1104.8546 YYZZ=           -698.5041
 XXYZ=              9.2711 YYXZ=            -15.1385 ZZXY=            -95.9635
 N-N= 3.046951565930D+03 E-N=-1.180549946678D+04  KE= 2.373119597559D+03
 1\1\GINC-GRA615\FOpt\RB3LYP\Gen\H12O16Si4Zr1\SARASHS\29-Jul-2020\0\\#n
  B3LYP/Gen Pseudo=cards EmpiricalDispersion=GD3 Opt=modredundant\\Titl
 e\\0,1\Si,-0.1335827821,0.2117394531,-0.8589619481\O,-0.9940393786,-1.
 1682373798,-0.9485974904\O,0.604386152,0.3187424639,0.6415148261\O,-1.
 144350669,1.4959628822,-1.0610982859\O,1.1770938138,0.2418459669,-1.81
 37919323\Si,-2.7226108885,1.7471496988,-0.6472754584\Si,0.410471719,0.
 3292925483,2.2942269322\Si,-2.1420780736,-2.1088419718,-0.2161219115\Z
 r,2.7861532427,-0.0452216213,-0.5744998179\O,4.294157596,-0.1000470191
 ,-1.769797193\O,2.7191266208,-1.7544250843,0.3316560009\O,3.2604171302
 ,1.4386102156,0.7004297687\O,-3.5274899926,-2.0054433911,-1.0829767422
 \O,-2.3208125575,-1.5959211216,1.3552372954\O,-1.624120043,-3.65587966
 25,-0.0804236754\O,-3.0584588578,3.3348433194,-0.914219451\O,-2.982502
 8183,1.1983983802,0.8806870959\O,-3.7706804782,0.8342881692,-1.5526868
 039\O,-0.8472655713,1.4176389205,2.5454820742\O,1.7924293363,0.8492978
 111,2.9757906452\O,0.0307368378,-1.156055923,2.8518081754\H,4.07416888
 63,1.9551569982,0.7188318951\H,5.0180234524,-0.354935002,-2.3434156988
 \H,2.2808653154,-2.2699346069,1.0160388033\H,-3.7636736392,-1.11266480
 21,-1.3915095643\H,-1.4446678805,-4.1384759559,-0.8941941243\H,-2.8607
 818067,-0.7890939774,1.4217085088\H,2.4433749301,1.1962755213,2.325684
 4257\H,-0.8162572794,-1.5078236307,2.5109100497\H,-0.8942713098,1.8064
 534833,3.4276639358\H,-4.1229203946,1.2521636378,-2.3470051746\H,-2.30
 52346252,3.9229558584,-1.0399079724\H,-2.2897759868,1.423445821,1.5411
 828122\\Version=ES64L-G16RevB.01\State=1-A\HF=-2416.942903\RMSD=9.438e
 -09\RMSF=1.228e-03\Dipole=0.7159973,1.5495034,-0.8921522\Quadrupole=0.
 71126,0.7013312,-1.4125912,-2.8376474,-1.4408583,5.7217745\PG=C01 [X(H
 12O16Si4Zr1)]\\@


 ORIGINALITY CONSISTS NOT IN SAYING WHAT NO ONE HAS EVER SAID BEFORE, 
 BUT IN SAYING WHAT YOU THINK YOUR SELF.

                                    -- JAMES F. STEPHEN
 Job cpu time:       1 days 10 hours 46 minutes 32.7 seconds.
 Elapsed time:       0 days  2 hours 37 minutes 56.0 seconds.
 File lengths (MBytes):  RWF=    167 Int=      0 D2E=      0 Chk=     21 Scr=      1
 Normal termination of Gaussian 16 at Wed Jul 29 22:44:09 2020.
