 Entering Gaussian System, Link 0=g16
 Initial command:
 /opt/software/gaussian/g16.b01/l1.exe "/localscratch/sarashs.36567451.0/Gau-25827.inp" -scrdir="/localscratch/sarashs.36567451.0/"
 Entering Link 1 = /opt/software/gaussian/g16.b01/l1.exe PID=     25828.
  
 Copyright (c) 1988-2017, Gaussian, Inc.  All Rights Reserved.
  
 This is part of the Gaussian(R) 16 program.  It is based on
 the Gaussian(R) 09 system (copyright 2009, Gaussian, Inc.),
 the Gaussian(R) 03 system (copyright 2003, Gaussian, Inc.),
 the Gaussian(R) 98 system (copyright 1998, Gaussian, Inc.),
 the Gaussian(R) 94 system (copyright 1995, Gaussian, Inc.),
 the Gaussian 92(TM) system (copyright 1992, Gaussian, Inc.),
 the Gaussian 90(TM) system (copyright 1990, Gaussian, Inc.),
 the Gaussian 88(TM) system (copyright 1988, Gaussian, Inc.),
 the Gaussian 86(TM) system (copyright 1986, Carnegie Mellon
 University), and the Gaussian 82(TM) system (copyright 1983,
 Carnegie Mellon University). Gaussian is a federally registered
 trademark of Gaussian, Inc.
  
 This software contains proprietary and confidential information,
 including trade secrets, belonging to Gaussian, Inc.
  
 This software is provided under written license and may be
 used, copied, transmitted, or stored only in accord with that
 written license.
  
 The following legend is applicable only to US Government
 contracts under FAR:
  
                    RESTRICTED RIGHTS LEGEND
  
 Use, reproduction and disclosure by the US Government is
 subject to restrictions as set forth in subparagraphs (a)
 and (c) of the Commercial Computer Software - Restricted
 Rights clause in FAR 52.227-19.
  
 Gaussian, Inc.
 340 Quinnipiac St., Bldg. 40, Wallingford CT 06492
  
  
 ---------------------------------------------------------------
 Warning -- This program may not be used in any manner that
 competes with the business of Gaussian, Inc. or will provide
 assistance to any competitor of Gaussian, Inc.  The licensee
 of this program is prohibited from giving any competitor of
 Gaussian, Inc. access to this program.  By using this program,
 the user acknowledges that Gaussian, Inc. is engaged in the
 business of creating and licensing software in the field of
 computational chemistry and represents and warrants to the
 licensee that it is not a competitor of Gaussian, Inc. and that
 it will not use this program in any manner prohibited above.
 ---------------------------------------------------------------
  

 Cite this work as:
 Gaussian 16, Revision B.01,
 M. J. Frisch, G. W. Trucks, H. B. Schlegel, G. E. Scuseria, 
 M. A. Robb, J. R. Cheeseman, G. Scalmani, V. Barone, 
 G. A. Petersson, H. Nakatsuji, X. Li, M. Caricato, A. V. Marenich, 
 J. Bloino, B. G. Janesko, R. Gomperts, B. Mennucci, H. P. Hratchian, 
 J. V. Ortiz, A. F. Izmaylov, J. L. Sonnenberg, D. Williams-Young, 
 F. Ding, F. Lipparini, F. Egidi, J. Goings, B. Peng, A. Petrone, 
 T. Henderson, D. Ranasinghe, V. G. Zakrzewski, J. Gao, N. Rega, 
 G. Zheng, W. Liang, M. Hada, M. Ehara, K. Toyota, R. Fukuda, 
 J. Hasegawa, M. Ishida, T. Nakajima, Y. Honda, O. Kitao, H. Nakai, 
 T. Vreven, K. Throssell, J. A. Montgomery, Jr., J. E. Peralta, 
 F. Ogliaro, M. J. Bearpark, J. J. Heyd, E. N. Brothers, K. N. Kudin, 
 V. N. Staroverov, T. A. Keith, R. Kobayashi, J. Normand, 
 K. Raghavachari, A. P. Rendell, J. C. Burant, S. S. Iyengar, 
 J. Tomasi, M. Cossi, J. M. Millam, M. Klene, C. Adamo, R. Cammi, 
 J. W. Ochterski, R. L. Martin, K. Morokuma, O. Farkas, 
 J. B. Foresman, and D. J. Fox, Gaussian, Inc., Wallingford CT, 2016.
 
 ******************************************
 Gaussian 16:  ES64L-G16RevB.01 20-Dec-2017
                29-Jul-2020 
 ******************************************
 %NProcShared=16
 Will use up to   16 processors via shared memory.
 ------------------------------------------------------------------
 #n B3LYP/Gen Pseudo=cards EmpiricalDispersion=GD3 Opt=modredundant
 ------------------------------------------------------------------
 1/18=120,19=15,26=3,38=1/1,3;
 2/9=110,12=2,17=6,18=5,40=1/2;
 3/5=7,11=2,16=1,17=8,25=1,30=1,71=1,74=-5,124=31/1,2,3;
 4//1;
 5/5=2,38=5/2;
 6/7=2,8=2,9=2,10=2,28=1/1;
 7//1,2,3,16;
 1/18=20,19=15,26=3/3(2);
 2/9=110/2;
 99//99;
 2/9=110/2;
 3/5=7,6=1,11=2,16=1,17=8,25=1,30=1,71=1,74=-5,82=7,124=31/1,2,3;
 4/5=5,16=3,69=1/1;
 5/5=2,38=5/2;
 7//1,2,3,16;
 1/18=20,19=15,26=3/3(-5);
 2/9=110/2;
 6/7=2,8=2,9=2,10=2,19=2,28=1/1;
 99/9=1/99;
 -----
 Title
 -----
 Symbolic Z-matrix:
 Charge =  0 Multiplicity = 1
 Si                   -0.13817   0.15907  -0.88672 
 O                    -1.00571  -1.21557  -1.00367 
 O                     0.58179   0.25267   0.61501 
 O                    -1.1339    1.45311  -1.10627 
 O                     1.18134   0.19206  -1.82677 
 Si                   -2.69339   1.74371  -0.65114 
 Si                    0.45246   0.31404   2.26262 
 Si                   -2.1548   -2.1204   -0.22503 
 Zr                    2.87787  -0.0166   -0.74394 
 O                     4.32037   0.03384  -2.02037 
 O                     2.92219  -1.7236    0.15774 
 O                     3.27573   1.47067   0.54336 
 O                    -3.55825  -2.00436  -1.06221 
 O                    -2.28687  -1.57711   1.34004 
 O                    -1.66915  -3.67748  -0.08045 
 O                    -3.00596   3.33412  -0.93077 
 O                    -2.92057   1.21838   0.89035 
 O                    -3.78511   0.84272  -1.51643 
 O                    -0.76335   1.45159   2.52316 
 O                     1.87673   0.80442   2.88257 
 O                     0.04596  -1.13257   2.9006 
 H                     4.02919   2.07136   0.5639 
 H                     5.03624  -0.24518  -2.59358 
 H                     2.59923  -2.31113   0.84635 
 H                    -3.79221  -1.10963  -1.36628 
 H                    -1.5614   -4.18568  -0.89124 
 H                    -2.80623  -0.75615   1.40497 
 H                     2.4905    1.16992   2.20997 
 H                    -0.78842  -1.49858   2.54684 
 H                    -0.84185   1.77955   3.42764 
 H                    -4.15196   1.2615   -2.30365 
 H                    -2.24428   3.9095   -1.06409 
 H                    -2.21087   1.44549   1.53341 
 
 The following ModRedundant input section has been read:
 A       1       5       9 F                                                   
 

 GradGradGradGradGradGradGradGradGradGradGradGradGradGradGradGradGradGrad
 Berny optimization.
 Initialization pass.
                           ----------------------------
                           !    Initial Parameters    !
                           ! (Angstroms and Degrees)  !
 --------------------------                            --------------------------
 ! Name  Definition              Value          Derivative Info.                !
 --------------------------------------------------------------------------------
 ! R1    R(1,2)                  1.6297         estimate D2E/DX2                !
 ! R2    R(1,3)                  1.668          estimate D2E/DX2                !
 ! R3    R(1,4)                  1.6475         estimate D2E/DX2                !
 ! R4    R(1,5)                  1.6205         estimate D2E/DX2                !
 ! R5    R(1,9)                  3.0245         estimate D2E/DX2                !
 ! R6    R(2,8)                  1.6569         estimate D2E/DX2                !
 ! R7    R(3,7)                  1.6538         estimate D2E/DX2                !
 ! R8    R(4,6)                  1.6503         estimate D2E/DX2                !
 ! R9    R(5,9)                  2.0234         estimate D2E/DX2                !
 ! R10   R(6,16)                 1.6448         estimate D2E/DX2                !
 ! R11   R(6,17)                 1.6443         estimate D2E/DX2                !
 ! R12   R(6,18)                 1.659          estimate D2E/DX2                !
 ! R13   R(7,19)                 1.6853         estimate D2E/DX2                !
 ! R14   R(7,20)                 1.6289         estimate D2E/DX2                !
 ! R15   R(7,21)                 1.6325         estimate D2E/DX2                !
 ! R16   R(8,13)                 1.6383         estimate D2E/DX2                !
 ! R17   R(8,14)                 1.6619         estimate D2E/DX2                !
 ! R18   R(8,15)                 1.6375         estimate D2E/DX2                !
 ! R19   R(9,10)                 1.9268         estimate D2E/DX2                !
 ! R20   R(9,11)                 1.931          estimate D2E/DX2                !
 ! R21   R(9,12)                 2.0068         estimate D2E/DX2                !
 ! R22   R(10,23)                0.9586         estimate D2E/DX2                !
 ! R23   R(11,24)                0.9611         estimate D2E/DX2                !
 ! R24   R(12,22)                0.9638         estimate D2E/DX2                !
 ! R25   R(13,25)                0.9735         estimate D2E/DX2                !
 ! R26   R(14,27)                0.9736         estimate D2E/DX2                !
 ! R27   R(15,26)                0.9629         estimate D2E/DX2                !
 ! R28   R(16,32)                0.9638         estimate D2E/DX2                !
 ! R29   R(17,33)                0.9843         estimate D2E/DX2                !
 ! R30   R(18,31)                0.9642         estimate D2E/DX2                !
 ! R31   R(19,30)                0.9653         estimate D2E/DX2                !
 ! R32   R(20,28)                0.9812         estimate D2E/DX2                !
 ! R33   R(21,29)                0.9774         estimate D2E/DX2                !
 ! A1    A(2,1,3)              109.9808         estimate D2E/DX2                !
 ! A2    A(2,1,4)              109.3435         estimate D2E/DX2                !
 ! A3    A(2,1,5)              114.1426         estimate D2E/DX2                !
 ! A4    A(2,1,9)              119.0277         estimate D2E/DX2                !
 ! A5    A(3,1,4)              109.6804         estimate D2E/DX2                !
 ! A6    A(3,1,5)               99.7688         estimate D2E/DX2                !
 ! A7    A(3,1,9)               61.988          estimate D2E/DX2                !
 ! A8    A(4,1,5)              113.5061         estimate D2E/DX2                !
 ! A9    A(4,1,9)              130.89           estimate D2E/DX2                !
 ! A10   A(1,2,8)              142.7567         estimate D2E/DX2                !
 ! A11   A(1,3,7)              149.9119         estimate D2E/DX2                !
 ! A12   A(1,4,6)              132.2743         estimate D2E/DX2                !
 ! A13   A(1,5,9)              111.7269         Frozen                          !
 ! A14   A(4,6,16)             107.6353         estimate D2E/DX2                !
 ! A15   A(4,6,17)             109.4409         estimate D2E/DX2                !
 ! A16   A(4,6,18)             112.4799         estimate D2E/DX2                !
 ! A17   A(16,6,17)            116.2345         estimate D2E/DX2                !
 ! A18   A(16,6,18)            108.144          estimate D2E/DX2                !
 ! A19   A(17,6,18)            102.9751         estimate D2E/DX2                !
 ! A20   A(3,7,19)             103.6202         estimate D2E/DX2                !
 ! A21   A(3,7,20)             108.7814         estimate D2E/DX2                !
 ! A22   A(3,7,21)             112.0818         estimate D2E/DX2                !
 ! A23   A(19,7,20)            111.639          estimate D2E/DX2                !
 ! A24   A(19,7,21)            110.9828         estimate D2E/DX2                !
 ! A25   A(20,7,21)            109.6189         estimate D2E/DX2                !
 ! A26   A(2,8,13)             108.3776         estimate D2E/DX2                !
 ! A27   A(2,8,14)             108.6105         estimate D2E/DX2                !
 ! A28   A(2,8,15)             110.799          estimate D2E/DX2                !
 ! A29   A(13,8,14)            112.954          estimate D2E/DX2                !
 ! A30   A(13,8,15)            111.5028         estimate D2E/DX2                !
 ! A31   A(14,8,15)            104.553          estimate D2E/DX2                !
 ! A32   A(1,9,10)             135.5409         estimate D2E/DX2                !
 ! A33   A(1,9,11)              95.5247         estimate D2E/DX2                !
 ! A34   A(1,9,12)             100.6572         estimate D2E/DX2                !
 ! A35   A(5,9,10)             105.6931         estimate D2E/DX2                !
 ! A36   A(5,9,11)             111.1177         estimate D2E/DX2                !
 ! A37   A(5,9,12)             115.6626         estimate D2E/DX2                !
 ! A38   A(10,9,11)            108.3782         estimate D2E/DX2                !
 ! A39   A(10,9,12)            104.899          estimate D2E/DX2                !
 ! A40   A(11,9,12)            110.5515         estimate D2E/DX2                !
 ! A41   A(9,10,23)            161.3689         estimate D2E/DX2                !
 ! A42   A(9,11,24)            150.1409         estimate D2E/DX2                !
 ! A43   A(9,12,22)            129.0895         estimate D2E/DX2                !
 ! A44   A(8,13,25)            115.5044         estimate D2E/DX2                !
 ! A45   A(8,14,27)            112.3856         estimate D2E/DX2                !
 ! A46   A(8,15,26)            117.432          estimate D2E/DX2                !
 ! A47   A(6,16,32)            116.7803         estimate D2E/DX2                !
 ! A48   A(6,17,33)            116.0494         estimate D2E/DX2                !
 ! A49   A(6,18,31)            116.1247         estimate D2E/DX2                !
 ! A50   A(7,19,30)            115.6491         estimate D2E/DX2                !
 ! A51   A(7,20,28)            113.4661         estimate D2E/DX2                !
 ! A52   A(7,21,29)            113.7637         estimate D2E/DX2                !
 ! D1    D(3,1,2,8)             50.0624         estimate D2E/DX2                !
 ! D2    D(4,1,2,8)            -70.4297         estimate D2E/DX2                !
 ! D3    D(5,1,2,8)            161.2125         estimate D2E/DX2                !
 ! D4    D(9,1,2,8)            118.3617         estimate D2E/DX2                !
 ! D5    D(2,1,3,7)            -60.1512         estimate D2E/DX2                !
 ! D6    D(4,1,3,7)             60.1373         estimate D2E/DX2                !
 ! D7    D(5,1,3,7)            179.5701         estimate D2E/DX2                !
 ! D8    D(9,1,3,7)           -173.1929         estimate D2E/DX2                !
 ! D9    D(2,1,4,6)             37.0076         estimate D2E/DX2                !
 ! D10   D(3,1,4,6)            -83.6678         estimate D2E/DX2                !
 ! D11   D(5,1,4,6)            165.7183         estimate D2E/DX2                !
 ! D12   D(9,1,4,6)           -153.1746         estimate D2E/DX2                !
 ! D13   D(2,1,9,10)            92.5018         estimate D2E/DX2                !
 ! D14   D(2,1,9,11)           -30.9217         estimate D2E/DX2                !
 ! D15   D(2,1,9,12)          -143.0746         estimate D2E/DX2                !
 ! D16   D(3,1,9,10)          -169.0199         estimate D2E/DX2                !
 ! D17   D(3,1,9,11)            67.5567         estimate D2E/DX2                !
 ! D18   D(3,1,9,12)           -44.5962         estimate D2E/DX2                !
 ! D19   D(4,1,9,10)           -76.501          estimate D2E/DX2                !
 ! D20   D(4,1,9,11)           160.0756         estimate D2E/DX2                !
 ! D21   D(4,1,9,12)            47.9227         estimate D2E/DX2                !
 ! D22   D(1,2,8,13)           108.4711         estimate D2E/DX2                !
 ! D23   D(1,2,8,14)           -14.5876         estimate D2E/DX2                !
 ! D24   D(1,2,8,15)          -128.8886         estimate D2E/DX2                !
 ! D25   D(1,3,7,19)           -46.0619         estimate D2E/DX2                !
 ! D26   D(1,3,7,20)          -164.9541         estimate D2E/DX2                !
 ! D27   D(1,3,7,21)            73.6681         estimate D2E/DX2                !
 ! D28   D(1,4,6,16)           169.4411         estimate D2E/DX2                !
 ! D29   D(1,4,6,17)            42.2775         estimate D2E/DX2                !
 ! D30   D(1,4,6,18)           -71.5346         estimate D2E/DX2                !
 ! D31   D(4,6,16,32)          -16.3726         estimate D2E/DX2                !
 ! D32   D(17,6,16,32)         106.7215         estimate D2E/DX2                !
 ! D33   D(18,6,16,32)        -138.134          estimate D2E/DX2                !
 ! D34   D(4,6,17,33)           44.2632         estimate D2E/DX2                !
 ! D35   D(16,6,17,33)         -77.8848         estimate D2E/DX2                !
 ! D36   D(18,6,17,33)         164.0932         estimate D2E/DX2                !
 ! D37   D(4,6,18,31)          -92.9354         estimate D2E/DX2                !
 ! D38   D(16,6,18,31)          25.7911         estimate D2E/DX2                !
 ! D39   D(17,6,18,31)         149.3552         estimate D2E/DX2                !
 ! D40   D(3,7,19,30)         -166.1155         estimate D2E/DX2                !
 ! D41   D(20,7,19,30)         -49.2104         estimate D2E/DX2                !
 ! D42   D(21,7,19,30)          73.4066         estimate D2E/DX2                !
 ! D43   D(3,7,20,28)           12.9879         estimate D2E/DX2                !
 ! D44   D(19,7,20,28)        -100.7463         estimate D2E/DX2                !
 ! D45   D(21,7,20,28)         135.8599         estimate D2E/DX2                !
 ! D46   D(3,7,21,29)          -57.2164         estimate D2E/DX2                !
 ! D47   D(19,7,21,29)          58.1093         estimate D2E/DX2                !
 ! D48   D(20,7,21,29)        -178.1114         estimate D2E/DX2                !
 ! D49   D(2,8,13,25)          -43.843          estimate D2E/DX2                !
 ! D50   D(14,8,13,25)          76.5485         estimate D2E/DX2                !
 ! D51   D(15,8,13,25)        -166.0547         estimate D2E/DX2                !
 ! D52   D(2,8,14,27)           78.098          estimate D2E/DX2                !
 ! D53   D(13,8,14,27)         -42.1603         estimate D2E/DX2                !
 ! D54   D(15,8,14,27)        -163.5737         estimate D2E/DX2                !
 ! D55   D(2,8,15,26)          -65.1514         estimate D2E/DX2                !
 ! D56   D(13,8,15,26)          55.6545         estimate D2E/DX2                !
 ! D57   D(14,8,15,26)         178.0211         estimate D2E/DX2                !
 ! D58   D(1,9,10,23)         -104.7665         estimate D2E/DX2                !
 ! D59   D(5,9,10,23)         -105.0472         estimate D2E/DX2                !
 ! D60   D(11,9,10,23)          14.1419         estimate D2E/DX2                !
 ! D61   D(12,9,10,23)         132.2528         estimate D2E/DX2                !
 ! D62   D(1,9,11,24)          -45.1882         estimate D2E/DX2                !
 ! D63   D(5,9,11,24)          -71.4518         estimate D2E/DX2                !
 ! D64   D(10,9,11,24)         172.8355         estimate D2E/DX2                !
 ! D65   D(12,9,11,24)          58.385          estimate D2E/DX2                !
 ! D66   D(1,9,12,22)         -145.3845         estimate D2E/DX2                !
 ! D67   D(5,9,12,22)         -118.0994         estimate D2E/DX2                !
 ! D68   D(10,9,12,22)          -2.1003         estimate D2E/DX2                !
 ! D69   D(11,9,12,22)         114.5268         estimate D2E/DX2                !
 --------------------------------------------------------------------------------
 Trust Radius=3.00D-01 FncErr=1.00D-07 GrdErr=1.00D-06 EigMax=2.50D+02 EigMin=1.00D-04
 Number of steps in this run=    164 maximum allowed number of steps=    198.
 GradGradGradGradGradGradGradGradGradGradGradGradGradGradGradGradGradGrad

                          Input orientation:                          
 ---------------------------------------------------------------------
 Center     Atomic      Atomic             Coordinates (Angstroms)
 Number     Number       Type             X           Y           Z
 ---------------------------------------------------------------------
      1         14           0       -0.138170    0.159070   -0.886720
      2          8           0       -1.005710   -1.215570   -1.003670
      3          8           0        0.581790    0.252670    0.615010
      4          8           0       -1.133900    1.453110   -1.106270
      5          8           0        1.181340    0.192060   -1.826770
      6         14           0       -2.693390    1.743710   -0.651140
      7         14           0        0.452460    0.314040    2.262620
      8         14           0       -2.154800   -2.120400   -0.225030
      9         40           0        2.877870   -0.016600   -0.743940
     10          8           0        4.320370    0.033840   -2.020370
     11          8           0        2.922190   -1.723600    0.157740
     12          8           0        3.275730    1.470670    0.543360
     13          8           0       -3.558250   -2.004360   -1.062210
     14          8           0       -2.286870   -1.577110    1.340040
     15          8           0       -1.669150   -3.677480   -0.080450
     16          8           0       -3.005960    3.334120   -0.930770
     17          8           0       -2.920570    1.218380    0.890350
     18          8           0       -3.785110    0.842720   -1.516430
     19          8           0       -0.763350    1.451590    2.523160
     20          8           0        1.876730    0.804420    2.882570
     21          8           0        0.045960   -1.132570    2.900600
     22          1           0        4.029190    2.071360    0.563900
     23          1           0        5.036240   -0.245180   -2.593580
     24          1           0        2.599230   -2.311130    0.846350
     25          1           0       -3.792210   -1.109630   -1.366280
     26          1           0       -1.561400   -4.185680   -0.891240
     27          1           0       -2.806230   -0.756150    1.404970
     28          1           0        2.490500    1.169920    2.209970
     29          1           0       -0.788420   -1.498580    2.546840
     30          1           0       -0.841850    1.779550    3.427640
     31          1           0       -4.151960    1.261500   -2.303650
     32          1           0       -2.244280    3.909500   -1.064090
     33          1           0       -2.210870    1.445490    1.533410
 ---------------------------------------------------------------------
                    Distance matrix (angstroms):
                    1          2          3          4          5
     1  Si   0.000000
     2  O    1.629705   0.000000
     3  O    1.668022   2.701113   0.000000
     4  O    1.647489   2.673726   2.710619   0.000000
     5  O    1.620459   2.728022   2.515039   2.733076   0.000000
     6  Si   3.015913   3.424891   3.814858   1.650334   4.336272
     7  Si   3.207990   3.890323   1.653817   3.894026   4.155629
     8  Si   3.114581   1.656926   3.718340   3.819528   4.363814
     9  Zr   3.024524   4.072736   2.681648   4.287847   2.023431
    10  O    4.602111   5.564336   4.579312   5.709551   3.148972
    11  O    3.741811   4.127392   3.097129   5.304816   3.261685
    12  O    3.926848   5.285822   2.957359   4.708123   3.411573
    13  O    4.050700   2.672279   5.004716   4.222974   5.279444
    14  O    3.548196   2.695377   3.478933   4.061528   5.018678
    15  O    4.208692   2.711732   4.582191   5.259444   5.113538
    16  O    4.278680   4.970512   4.975613   2.659625   5.311199
    17  O    3.467256   3.630167   3.643478   2.689569   5.026106
    18  O    3.763520   3.496362   4.894999   2.751313   5.018495
    19  O    3.699830   4.428432   2.624471   3.648297   4.928501
    20  O    4.322481   5.243251   2.668919   5.039398   4.799629
    21  O    4.005750   4.044283   2.725789   4.912516   5.039024
    22  H    4.809162   6.213807   3.898052   5.461611   4.166212
    23  H    5.463635   6.322549   5.512262   6.570153   3.954672
    24  H    4.074160   4.197430   3.270574   5.649645   3.927078
    25  H    3.897638   2.811991   4.991317   3.701601   5.161652
    26  H    4.571920   3.023737   5.153737   5.659059   5.249995
    27  H    3.634283   3.042119   3.622214   3.739498   5.219575
    28  H    4.185835   5.314276   2.651117   4.920764   4.354926
    29  H    3.867811   3.568393   2.945559   4.709251   5.085930
    30  H    4.662062   5.351084   3.502713   4.555019   5.849978
    31  H    4.396994   4.210073   5.651965   3.252556   5.460330
    32  H    4.304984   5.272954   4.917159   2.696029   5.112330
    33  H    3.436276   3.869163   3.172574   2.850935   4.936495
                    6          7          8          9         10
     6  Si   0.000000
     7  Si   4.519992   0.000000
     8  Si   3.924665   4.348874   0.000000
     9  Zr   5.843479   3.877027   5.479326   0.000000
    10  O    7.347876   5.777823   7.056332   1.926817   0.000000
    11  O    6.649155   3.831718   5.106838   1.931020   3.128525
    12  O    6.093585   3.502071   6.555674   2.006840   3.119049
    13  O    3.868461   5.702216   1.638294   6.743599   8.194204
    14  O    3.893315   3.454205   1.661942   5.783831   7.585719
    15  O    5.546535   5.091506   1.637455   5.875173   7.308320
    16  O    1.644779   5.592789   5.565459   6.773602   8.108896
    17  O    1.644316   3.752104   3.602489   6.149633   7.893455
    18  O    1.659025   5.702431   3.620180   6.762431   8.161314
    19  O    3.726469   1.685258   4.716757   5.107642   6.964043
    20  O    5.852809   1.628912   5.870689   3.850705   5.532087
    21  O    5.328403   1.632465   3.948255   4.748450   6.621710
    22  H    6.839354   4.332069   7.512323   2.719478   3.303744
    23  H    8.214374   6.701227   7.799842   2.851662   0.958588
    24  H    6.833449   3.675046   4.876990   2.805625   4.084029
    25  H    3.140124   5.763070   2.237235   6.787635   8.218839
    26  H    6.041251   5.852345   2.249742   6.091801   7.326288
    27  H    3.238768   3.535524   2.223160   6.121580   7.946412
    28  H    5.948773   2.211088   6.191465   3.206785   4.747092
    29  H    4.936439   2.214984   3.152288   5.144626   7.021927
    30  H    4.479501   2.276012   5.502313   5.870652   7.705636
    31  H    2.256267   6.553563   4.443710   7.313327   8.565499
    32  H    2.250083   5.591667   6.088655   6.461670   7.683088
    33  H    2.256993   2.984167   3.976283   5.763619   7.568303
                   11         12         13         14         15
    11  O    0.000000
    12  O    3.236828   0.000000
    13  O    6.600243   7.833069   0.000000
    14  O    5.343557   6.392666   2.751319   0.000000
    15  O    4.995476   7.165502   2.707745   2.609775   0.000000
    16  O    7.868186   6.716036   5.368582   5.458374   7.188368
    17  O    6.582538   6.211134   3.821672   2.901476   5.145673
    18  O    7.374057   7.381905   2.891997   4.032334   5.193412
    19  O    5.409274   4.498237   5.710511   3.590809   5.822939
    20  O    3.861162   2.805886   7.279392   5.038517   6.437405
    21  O    4.018121   4.771253   5.427173   2.841665   4.278414
    22  H    3.973932   0.963822   8.764986   7.335281   8.120063
    23  H    3.771564   3.985465   8.905339   8.418750   7.940955
    24  H    0.961082   3.853760   6.453779   4.965530   4.576564
    25  H    6.912508   7.762760   0.973518   3.131893   3.571358
    26  H    5.221568   7.579591   2.962228   3.508497   0.962942
    27  H    5.941914   6.533861   2.865404   0.973615   3.468947
    28  H    3.573578   1.866715   7.574338   5.579087   6.785720
    29  H    4.418943   5.417351   4.577446   1.925587   3.525045
    30  H    6.093628   5.036759   6.469587   4.208720   6.539900
    31  H    8.063055   7.957374   3.543939   4.981239   5.958229
    32  H    7.740613   6.245182   6.058074   5.990371   7.672065
    33  H    6.187399   5.575268   4.522625   3.029732   5.398410
                   16         17         18         19         20
    16  O    0.000000
    17  O    2.792870   0.000000
    18  O    2.675284   2.584790   0.000000
    19  O    4.528007   2.715521   5.081343   0.000000
    20  O    6.691906   5.210987   7.170014   2.741902   0.000000
    21  O    6.629097   4.285834   6.171630   2.734104   2.665328
    22  H    7.302187   7.009516   8.179280   5.214523   3.407998
    23  H    8.958421   8.808553   8.953211   7.918036   6.408774
    24  H    8.151390   6.551913   7.502619   5.317584   3.791418
    25  H    4.533737   3.357345   1.958128   5.555320   7.338474
    26  H    7.657396   5.850237   5.533584   6.638812   7.138871
    27  H    4.714433   2.043692   3.471191   3.209022   5.152552
    28  H    6.690223   5.569867   7.305915   3.281001   0.981170
    29  H    6.353443   3.830391   5.565249   2.950372   3.538297
    30  H    5.108405   3.327736   5.829602   0.965300   2.939159
    31  H    2.737493   3.423422   0.964194   5.900585   7.965608
    32  H    0.963843   3.394014   3.461778   4.593783   6.496181
    33  H    3.204883   0.984266   3.484693   1.753555   4.351974
                   21         22         23         24         25
    21  O    0.000000
    22  H    5.620628   0.000000
    23  H    7.475050   4.043536   0.000000
    24  H    3.482547   4.618526   4.694708   0.000000
    25  H    5.739193   8.661327   8.955170   6.869486   0.000000
    26  H    5.126708   8.516025   7.871109   4.883032   3.829394
    27  H    3.242466   7.444809   8.817813   5.652346   2.962589
    28  H    3.428441   2.426872   5.617597   3.740186   7.580129
    29  H    0.977394   6.315528   7.869027   3.876606   4.948388
    30  H    3.089728   5.658020   8.654858   5.936140   6.327215
    31  H    7.101994   8.706890   9.315426   8.262249   2.574945
    32  H    6.810759   6.736879   8.520955   8.112066   5.261090
    33  H    3.689022   6.345866   8.509466   6.141767   4.175820
                   26         27         28         29         30
    26  H    0.000000
    27  H    4.310900   0.000000
    28  H    7.397151   5.693252   0.000000
    29  H    4.431523   2.434466   4.240954   0.000000
    30  H    7.399625   3.792065   3.599851   3.394820   0.000000
    31  H    6.194972   4.431226   8.031403   6.516034   6.638742
    32  H    8.125770   5.308515   6.375179   6.663758   5.165185
    33  H    6.165291   2.284331   4.757789   3.423150   2.360915
                   31         32         33
    31  H    0.000000
    32  H    3.491082   0.000000
    33  H    4.304034   3.580428   0.000000
 Stoichiometry    H12O16Si4Zr
 Framework group  C1[X(H12O16Si4Zr)]
 Deg. of freedom    93
 Full point group                 C1      NOp   1
 Largest Abelian subgroup         C1      NOp   1
 Largest concise Abelian subgroup C1      NOp   1
                         Standard orientation:                         
 ---------------------------------------------------------------------
 Center     Atomic      Atomic             Coordinates (Angstroms)
 Number     Number       Type             X           Y           Z
 ---------------------------------------------------------------------
      1         14           0        0.138170   -0.159070   -0.886720
      2          8           0        1.005710    1.215570   -1.003670
      3          8           0       -0.581790   -0.252670    0.615010
      4          8           0        1.133900   -1.453110   -1.106270
      5          8           0       -1.181340   -0.192060   -1.826770
      6         14           0        2.693390   -1.743710   -0.651140
      7         14           0       -0.452460   -0.314040    2.262620
      8         14           0        2.154800    2.120400   -0.225030
      9         40           0       -2.877870    0.016600   -0.743940
     10          8           0       -4.320370   -0.033840   -2.020370
     11          8           0       -2.922190    1.723600    0.157740
     12          8           0       -3.275730   -1.470670    0.543360
     13          8           0        3.558250    2.004360   -1.062210
     14          8           0        2.286870    1.577110    1.340040
     15          8           0        1.669150    3.677480   -0.080450
     16          8           0        3.005960   -3.334120   -0.930770
     17          8           0        2.920570   -1.218380    0.890350
     18          8           0        3.785110   -0.842720   -1.516430
     19          8           0        0.763350   -1.451590    2.523160
     20          8           0       -1.876730   -0.804420    2.882570
     21          8           0       -0.045960    1.132570    2.900600
     22          1           0       -4.029190   -2.071360    0.563900
     23          1           0       -5.036240    0.245180   -2.593580
     24          1           0       -2.599230    2.311130    0.846350
     25          1           0        3.792210    1.109630   -1.366280
     26          1           0        1.561400    4.185680   -0.891240
     27          1           0        2.806230    0.756150    1.404970
     28          1           0       -2.490500   -1.169920    2.209970
     29          1           0        0.788420    1.498580    2.546840
     30          1           0        0.841850   -1.779550    3.427640
     31          1           0        4.151960   -1.261500   -2.303650
     32          1           0        2.244280   -3.909500   -1.064090
     33          1           0        2.210870   -1.445490    1.533410
 ---------------------------------------------------------------------
 Rotational constants (GHZ):           0.2624186           0.1371350           0.1338123
 General basis read from cards:  (5D, 7F)
 ======================================================================================================
                                       Pseudopotential Parameters
 ======================================================================================================
  Center     Atomic      Valence      Angular      Power
  Number     Number     Electrons     Momentum     of R      Exponent        Coefficient   SO-Coeffient
 ======================================================================================================
    1         14
                                   No pseudopotential on this center.
    2          8
                                   No pseudopotential on this center.
    3          8
                                   No pseudopotential on this center.
    4          8
                                   No pseudopotential on this center.
    5          8
                                   No pseudopotential on this center.
    6         14
                                   No pseudopotential on this center.
    7         14
                                   No pseudopotential on this center.
    8         14
                                   No pseudopotential on this center.
    9         40           12
                                      G and up 
                                                     2        1.0000000        0.00000000    0.00000000
                                      S - G
                                                     2        8.6365280      150.24299400    0.00000000
                                                     2        3.7176390       18.78003600    0.00000000
                                      P - G
                                                     2        7.6267280       33.19279100    0.00000000
                                                     2        7.4532070       66.38903900    0.00000000
                                                     2        3.3583890        4.62072600    0.00000000
                                                     2        3.2297380        9.26027000    0.00000000
                                      D - G
                                                     2        5.9380860       13.99338300    0.00000000
                                                     2        5.8255440       20.99588200    0.00000000
                                                     2        2.2050190        2.28516600    0.00000000
                                                     2        2.2062920        3.44126000    0.00000000
                                      F - G
                                                     2        4.8002150       -5.23932000    0.00000000
                                                     2        4.7989920       -6.98742400    0.00000000
   10          8
                                   No pseudopotential on this center.
   11          8
                                   No pseudopotential on this center.
   12          8
                                   No pseudopotential on this center.
   13          8
                                   No pseudopotential on this center.
   14          8
                                   No pseudopotential on this center.
   15          8
                                   No pseudopotential on this center.
   16          8
                                   No pseudopotential on this center.
   17          8
                                   No pseudopotential on this center.
   18          8
                                   No pseudopotential on this center.
   19          8
                                   No pseudopotential on this center.
   20          8
                                   No pseudopotential on this center.
   21          8
                                   No pseudopotential on this center.
   22          1
                                   No pseudopotential on this center.
   23          1
                                   No pseudopotential on this center.
   24          1
                                   No pseudopotential on this center.
   25          1
                                   No pseudopotential on this center.
   26          1
                                   No pseudopotential on this center.
   27          1
                                   No pseudopotential on this center.
   28          1
                                   No pseudopotential on this center.
   29          1
                                   No pseudopotential on this center.
   30          1
                                   No pseudopotential on this center.
   31          1
                                   No pseudopotential on this center.
   32          1
                                   No pseudopotential on this center.
   33          1
                                   No pseudopotential on this center.
 ======================================================================================================
 There are   570 symmetry adapted cartesian basis functions of A   symmetry.
 There are   524 symmetry adapted basis functions of A   symmetry.
   524 basis functions,  1074 primitive gaussians,   570 cartesian basis functions
   104 alpha electrons      104 beta electrons
       nuclear repulsion energy      3033.7223171783 Hartrees.
 NAtoms=   33 NActive=   33 NUniq=   33 SFac= 1.00D+00 NAtFMM=   60 NAOKFM=F Big=F
 Integral buffers will be    131072 words long.
 Raffenetti 2 integral format.
 Two-electron integral symmetry is turned on.
 Nuclear repulsion after empirical dispersion term =     3033.6752470007 Hartrees.
 One-electron integrals computed using PRISM.
 PrsmSu:  requested number of processors reduced to:   4 ShMem   1 Linda.
   1 Symmetry operations used in ECPInt.
 ECPInt:  NShTT=   13203 NPrTT=   78401 LenC2=   11902 LenP2D=   45158.
 LDataN:  DoStor=T MaxTD1= 8 Len=  415
 Number of processors reduced to  13 by ecpmxn.
 NBasis=   524 RedAO= T EigKep=  2.50D-05  NBF=   524
 NBsUse=   524 1.00D-06 EigRej= -1.00D+00 NBFU=   524
 Defaulting to unpruned grid for atomic number  40.
 ExpMin= 1.01D-02 ExpMax= 1.61D+04 ExpMxC= 2.43D+03 IAcc=3 IRadAn=         5 AccDes= 0.00D+00
 Harris functional with IExCor=  402 and IRadAn=       5 diagonalized for initial guess.
 HarFok:  IExCor=  402 AccDes= 0.00D+00 IRadAn=         5 IDoV= 1 UseB2=F ITyADJ=14
 ICtDFT=  3500011 ScaDFX=  1.000000  1.000000  1.000000  1.000000
 Defaulting to unpruned grid for atomic number  40.
 FoFCou: FMM=F IPFlag=           0 FMFlag=      100000 FMFlg1=           0
         NFxFlg=           0 DoJE=T BraDBF=F KetDBF=T FulRan=T
         wScrn=  0.000000 ICntrl=       500 IOpCl=  0 I1Cent=   200000004 NGrid=           0
         NMat0=    1 NMatS0=      1 NMatT0=    0 NMatD0=    1 NMtDS0=    0 NMtDT0=    0
 Petite list used in FoFCou.
 Requested convergence on RMS density matrix=1.00D-08 within 128 cycles.
 Requested convergence on MAX density matrix=1.00D-06.
 Requested convergence on             energy=1.00D-06.
 No special actions if energy rises.
 Defaulting to unpruned grid for atomic number  40.
 Defaulting to unpruned grid for atomic number  40.
 Defaulting to unpruned grid for atomic number  40.
 Defaulting to unpruned grid for atomic number  40.
 Defaulting to unpruned grid for atomic number  40.
 Defaulting to unpruned grid for atomic number  40.
 Defaulting to unpruned grid for atomic number  40.
 Defaulting to unpruned grid for atomic number  40.
 Defaulting to unpruned grid for atomic number  40.
 Defaulting to unpruned grid for atomic number  40.
 Defaulting to unpruned grid for atomic number  40.
 Defaulting to unpruned grid for atomic number  40.
 Defaulting to unpruned grid for atomic number  40.
 Defaulting to unpruned grid for atomic number  40.
 Defaulting to unpruned grid for atomic number  40.
 Defaulting to unpruned grid for atomic number  40.
 SCF Done:  E(RB3LYP) =  -2416.94376234     A.U. after   14 cycles
            NFock= 14  Conv=0.39D-08     -V/T= 2.0185

 **********************************************************************

            Population analysis using the SCF Density.

 **********************************************************************

 Orbital symmetries:
       Occupied  (A) (A) (A) (A) (A) (A) (A) (A) (A) (A) (A) (A)
                 (A) (A) (A) (A) (A) (A) (A) (A) (A) (A) (A) (A)
                 (A) (A) (A) (A) (A) (A) (A) (A) (A) (A) (A) (A)
                 (A) (A) (A) (A) (A) (A) (A) (A) (A) (A) (A) (A)
                 (A) (A) (A) (A) (A) (A) (A) (A) (A) (A) (A) (A)
                 (A) (A) (A) (A) (A) (A) (A) (A) (A) (A) (A) (A)
                 (A) (A) (A) (A) (A) (A) (A) (A) (A) (A) (A) (A)
                 (A) (A) (A) (A) (A) (A) (A) (A) (A) (A) (A) (A)
                 (A) (A) (A) (A) (A) (A) (A) (A)
       Virtual   (A) (A) (A) (A) (A) (A) (A) (A) (A) (A) (A) (A)
                 (A) (A) (A) (A) (A) (A) (A) (A) (A) (A) (A) (A)
                 (A) (A) (A) (A) (A) (A) (A) (A) (A) (A) (A) (A)
                 (A) (A) (A) (A) (A) (A) (A) (A) (A) (A) (A) (A)
                 (A) (A) (A) (A) (A) (A) (A) (A) (A) (A) (A) (A)
                 (A) (A) (A) (A) (A) (A) (A) (A) (A) (A) (A) (A)
                 (A) (A) (A) (A) (A) (A) (A) (A) (A) (A) (A) (A)
                 (A) (A) (A) (A) (A) (A) (A) (A) (A) (A) (A) (A)
                 (A) (A) (A) (A) (A) (A) (A) (A) (A) (A) (A) (A)
                 (A) (A) (A) (A) (A) (A) (A) (A) (A) (A) (A) (A)
                 (A) (A) (A) (A) (A) (A) (A) (A) (A) (A) (A) (A)
                 (A) (A) (A) (A) (A) (A) (A) (A) (A) (A) (A) (A)
                 (A) (A) (A) (A) (A) (A) (A) (A) (A) (A) (A) (A)
                 (A) (A) (A) (A) (A) (A) (A) (A) (A) (A) (A) (A)
                 (A) (A) (A) (A) (A) (A) (A) (A) (A) (A) (A) (A)
                 (A) (A) (A) (A) (A) (A) (A) (A) (A) (A) (A) (A)
                 (A) (A) (A) (A) (A) (A) (A) (A) (A) (A) (A) (A)
                 (A) (A) (A) (A) (A) (A) (A) (A) (A) (A) (A) (A)
                 (A) (A) (A) (A) (A) (A) (A) (A) (A) (A) (A) (A)
                 (A) (A) (A) (A) (A) (A) (A) (A) (A) (A) (A) (A)
                 (A) (A) (A) (A) (A) (A) (A) (A) (A) (A) (A) (A)
                 (A) (A) (A) (A) (A) (A) (A) (A) (A) (A) (A) (A)
                 (A) (A) (A) (A) (A) (A) (A) (A) (A) (A) (A) (A)
                 (A) (A) (A) (A) (A) (A) (A) (A) (A) (A) (A) (A)
                 (A) (A) (A) (A) (A) (A) (A) (A) (A) (A) (A) (A)
                 (A) (A) (A) (A) (A) (A) (A) (A) (A) (A) (A) (A)
                 (A) (A) (A) (A) (A) (A) (A) (A) (A) (A) (A) (A)
                 (A) (A) (A) (A) (A) (A) (A) (A) (A) (A) (A) (A)
                 (A) (A) (A) (A) (A) (A) (A) (A) (A) (A) (A) (A)
                 (A) (A) (A) (A) (A) (A) (A) (A) (A) (A) (A) (A)
                 (A) (A) (A) (A) (A) (A) (A) (A) (A) (A) (A) (A)
                 (A) (A) (A) (A) (A) (A) (A) (A) (A) (A) (A) (A)
                 (A) (A) (A) (A) (A) (A) (A) (A) (A) (A) (A) (A)
                 (A) (A) (A) (A) (A) (A) (A) (A) (A) (A) (A) (A)
                 (A) (A) (A) (A) (A) (A) (A) (A) (A) (A) (A) (A)
 The electronic state is 1-A.
 Alpha  occ. eigenvalues --  -66.23557 -66.23211 -66.22339 -66.21857 -19.18928
 Alpha  occ. eigenvalues --  -19.18853 -19.18118 -19.17524 -19.17258 -19.17219
 Alpha  occ. eigenvalues --  -19.16712 -19.16432 -19.16150 -19.15823 -19.15779
 Alpha  occ. eigenvalues --  -19.15290 -19.15258 -19.15112 -19.14952 -19.14454
 Alpha  occ. eigenvalues --   -5.37619  -5.37109  -5.36390  -5.35907  -3.73615
 Alpha  occ. eigenvalues --   -3.73583  -3.73512  -3.73160  -3.73086  -3.72979
 Alpha  occ. eigenvalues --   -3.72453  -3.72351  -3.72218  -3.71908  -3.71849
 Alpha  occ. eigenvalues --   -3.71820  -2.12467  -1.28838  -1.28524  -1.28150
 Alpha  occ. eigenvalues --   -1.06708  -1.05464  -1.04529  -1.03391  -1.02929
 Alpha  occ. eigenvalues --   -1.02383  -1.01566  -1.01020  -1.00380  -1.00203
 Alpha  occ. eigenvalues --   -0.99854  -0.99501  -0.97822  -0.96968  -0.96149
 Alpha  occ. eigenvalues --   -0.95463  -0.62791  -0.61178  -0.60139  -0.57064
 Alpha  occ. eigenvalues --   -0.55926  -0.55324  -0.53614  -0.53339  -0.52569
 Alpha  occ. eigenvalues --   -0.52329  -0.51238  -0.50565  -0.50417  -0.50008
 Alpha  occ. eigenvalues --   -0.49243  -0.45965  -0.44139  -0.43820  -0.42932
 Alpha  occ. eigenvalues --   -0.42554  -0.42239  -0.41693  -0.40805  -0.40268
 Alpha  occ. eigenvalues --   -0.39152  -0.38970  -0.38423  -0.37788  -0.37505
 Alpha  occ. eigenvalues --   -0.37249  -0.37002  -0.36628  -0.36208  -0.35942
 Alpha  occ. eigenvalues --   -0.35694  -0.35632  -0.35159  -0.35120  -0.34534
 Alpha  occ. eigenvalues --   -0.34242  -0.33923  -0.33409  -0.33168  -0.32846
 Alpha  occ. eigenvalues --   -0.32579  -0.32377  -0.32235  -0.31870
 Alpha virt. eigenvalues --   -0.04108  -0.02790  -0.02195  -0.01922  -0.01513
 Alpha virt. eigenvalues --   -0.01275  -0.00437   0.00227   0.00626   0.01234
 Alpha virt. eigenvalues --    0.01369   0.01542   0.02362   0.02600   0.02806
 Alpha virt. eigenvalues --    0.03176   0.03366   0.03468   0.03733   0.03928
 Alpha virt. eigenvalues --    0.04185   0.04591   0.04921   0.05731   0.06316
 Alpha virt. eigenvalues --    0.06588   0.07138   0.07562   0.07997   0.08417
 Alpha virt. eigenvalues --    0.08709   0.08890   0.09227   0.09575   0.09823
 Alpha virt. eigenvalues --    0.10319   0.10473   0.10769   0.11018   0.11320
 Alpha virt. eigenvalues --    0.11630   0.12034   0.12355   0.12662   0.12998
 Alpha virt. eigenvalues --    0.13516   0.13954   0.14193   0.14382   0.14849
 Alpha virt. eigenvalues --    0.15077   0.15496   0.15760   0.16163   0.16445
 Alpha virt. eigenvalues --    0.16817   0.17257   0.17638   0.17756   0.18326
 Alpha virt. eigenvalues --    0.18418   0.18782   0.19237   0.19789   0.20209
 Alpha virt. eigenvalues --    0.20446   0.20740   0.21381   0.21478   0.22029
 Alpha virt. eigenvalues --    0.22198   0.22578   0.22957   0.23226   0.23521
 Alpha virt. eigenvalues --    0.23993   0.24222   0.24371   0.24679   0.25010
 Alpha virt. eigenvalues --    0.25247   0.25505   0.25896   0.26186   0.26704
 Alpha virt. eigenvalues --    0.26917   0.27066   0.27310   0.27781   0.28181
 Alpha virt. eigenvalues --    0.28332   0.28635   0.28790   0.29149   0.29460
 Alpha virt. eigenvalues --    0.29659   0.29847   0.30577   0.30788   0.31100
 Alpha virt. eigenvalues --    0.31274   0.31591   0.31733   0.32326   0.32453
 Alpha virt. eigenvalues --    0.32883   0.33251   0.33678   0.34085   0.34745
 Alpha virt. eigenvalues --    0.34847   0.35227   0.35694   0.36552   0.37146
 Alpha virt. eigenvalues --    0.37258   0.37396   0.37911   0.38709   0.38868
 Alpha virt. eigenvalues --    0.39282   0.40034   0.40825   0.41567   0.41798
 Alpha virt. eigenvalues --    0.42430   0.42547   0.43023   0.43747   0.43989
 Alpha virt. eigenvalues --    0.44813   0.45275   0.45483   0.46112   0.46702
 Alpha virt. eigenvalues --    0.47156   0.47748   0.49329   0.49699   0.50400
 Alpha virt. eigenvalues --    0.50787   0.51603   0.52276   0.52944   0.54488
 Alpha virt. eigenvalues --    0.54954   0.55355   0.55844   0.57161   0.57298
 Alpha virt. eigenvalues --    0.57526   0.58401   0.60608   0.60921   0.61195
 Alpha virt. eigenvalues --    0.61962   0.63404   0.64113   0.64227   0.64528
 Alpha virt. eigenvalues --    0.66435   0.66856   0.67469   0.68294   0.69352
 Alpha virt. eigenvalues --    0.70298   0.71323   0.72071   0.72326   0.73494
 Alpha virt. eigenvalues --    0.74199   0.74556   0.75399   0.77632   0.77980
 Alpha virt. eigenvalues --    0.80157   0.81446   0.82344   0.83091   0.84110
 Alpha virt. eigenvalues --    0.86021   0.86182   0.88342   0.89629   0.93330
 Alpha virt. eigenvalues --    0.94150   0.95275   0.95602   0.96836   0.97616
 Alpha virt. eigenvalues --    0.98266   0.99365   1.00217   1.00522   1.02127
 Alpha virt. eigenvalues --    1.02501   1.04359   1.05105   1.06006   1.06180
 Alpha virt. eigenvalues --    1.07921   1.08650   1.09436   1.10000   1.11621
 Alpha virt. eigenvalues --    1.12498   1.14085   1.15175   1.15758   1.17781
 Alpha virt. eigenvalues --    1.18646   1.19476   1.20835   1.21161   1.21716
 Alpha virt. eigenvalues --    1.22502   1.22925   1.23219   1.23583   1.24300
 Alpha virt. eigenvalues --    1.24458   1.25631   1.25642   1.26196   1.26709
 Alpha virt. eigenvalues --    1.26908   1.27253   1.27960   1.29081   1.29529
 Alpha virt. eigenvalues --    1.29615   1.30313   1.31105   1.31380   1.31516
 Alpha virt. eigenvalues --    1.32048   1.32355   1.33269   1.34238   1.34550
 Alpha virt. eigenvalues --    1.34996   1.35561   1.36287   1.36609   1.37547
 Alpha virt. eigenvalues --    1.38277   1.38561   1.39507   1.40187   1.41070
 Alpha virt. eigenvalues --    1.42728   1.43178   1.44229   1.45080   1.46305
 Alpha virt. eigenvalues --    1.47328   1.48449   1.50465   1.52364   1.53494
 Alpha virt. eigenvalues --    1.55438   1.56372   1.58183   1.59023   1.59559
 Alpha virt. eigenvalues --    1.59959   1.61112   1.61785   1.62658   1.63093
 Alpha virt. eigenvalues --    1.64207   1.65877   1.66332   1.66729   1.67470
 Alpha virt. eigenvalues --    1.68039   1.68961   1.69691   1.70110   1.70651
 Alpha virt. eigenvalues --    1.71393   1.71528   1.72715   1.73392   1.73698
 Alpha virt. eigenvalues --    1.73976   1.74754   1.75057   1.75836   1.76615
 Alpha virt. eigenvalues --    1.77547   1.78312   1.78525   1.78704   1.79082
 Alpha virt. eigenvalues --    1.80413   1.80740   1.81119   1.82124   1.83102
 Alpha virt. eigenvalues --    1.84036   1.85079   1.85438   1.86529   1.87373
 Alpha virt. eigenvalues --    1.87777   1.89095   1.89939   1.91095   1.91971
 Alpha virt. eigenvalues --    1.92178   1.92398   1.94286   1.95003   1.95872
 Alpha virt. eigenvalues --    1.97217   1.97490   1.98239   1.98727   1.99674
 Alpha virt. eigenvalues --    2.00785   2.01856   2.03158   2.04093   2.04472
 Alpha virt. eigenvalues --    2.04864   2.05399   2.07239   2.08726   2.08890
 Alpha virt. eigenvalues --    2.09394   2.12317   2.14100   2.14340   2.15585
 Alpha virt. eigenvalues --    2.17080   2.19073   2.19459   2.22749   2.23517
 Alpha virt. eigenvalues --    2.27693   2.32048   2.33349   2.38232   2.38759
 Alpha virt. eigenvalues --    2.39548   2.40160   2.40899   2.42025   2.42550
 Alpha virt. eigenvalues --    2.44182   2.44662   2.46983   2.47507   2.48996
 Alpha virt. eigenvalues --    2.49428   2.51796   2.52509   2.53192   2.54846
 Alpha virt. eigenvalues --    2.56782   2.58686   2.59315   2.60080   2.60211
 Alpha virt. eigenvalues --    2.60793   2.61133   2.61384   2.62220   2.63197
 Alpha virt. eigenvalues --    2.63815   2.64867   2.65495   2.66135   2.66278
 Alpha virt. eigenvalues --    2.67150   2.67978   2.70864   2.71913   2.72386
 Alpha virt. eigenvalues --    2.72717   2.73320   2.74896   2.75615   2.76420
 Alpha virt. eigenvalues --    2.77313   2.77813   2.78079   2.79134   2.81940
 Alpha virt. eigenvalues --    2.82276   2.84056   2.84307   2.85363   2.86513
 Alpha virt. eigenvalues --    2.87422   2.89417   2.90220   2.92688   2.96640
 Alpha virt. eigenvalues --    3.00033   3.05149   3.18274   3.27972   3.46323
 Alpha virt. eigenvalues --    3.48111   3.49111   3.50206   3.52789   3.56498
 Alpha virt. eigenvalues --    3.59952   3.60986   3.61813   3.63997   3.71995
 Alpha virt. eigenvalues --    3.76164   4.01499   4.13292   6.72859  30.89032
          Condensed to atoms (all electrons):
               1          2          3          4          5          6
     1  Si  24.201599  -1.115930  -2.668789  -1.574788  -3.938880  -0.213746
     2  O   -1.115930  10.086503   0.475244  -0.141823   0.206657  -0.130906
     3  O   -2.668789   0.475244  11.163092   0.401881   1.066631   0.061858
     4  O   -1.574788  -0.141823   0.401881   9.829192   0.542360  -0.574998
     5  O   -3.938880   0.206657   1.066631   0.542360  10.496534  -0.001477
     6  Si  -0.213746  -0.130906   0.061858  -0.574998  -0.001477  13.685662
     7  Si  -1.724149  -0.172788  -1.798077   0.002229   0.307007   0.045725
     8  Si  -0.203625  -0.572326  -0.123889   0.040813   0.042211  -0.209468
     9  Zr  -1.361519   0.060422  -0.512595  -0.006284   0.254947   0.024254
    10  O   -0.023218   0.001200   0.011997   0.000854  -0.027923  -0.000858
    11  O    0.081441  -0.003407  -0.070550  -0.002204  -0.041239  -0.000405
    12  O    0.045067   0.004414  -0.037722  -0.010204  -0.023094  -0.002128
    13  O   -0.020836   0.237765   0.001840  -0.005517  -0.002431   0.065223
    14  O   -0.034780   0.388213   0.114723  -0.020487  -0.012853   0.010976
    15  O    0.012522   0.088471   0.006053   0.002368  -0.004484  -0.010979
    16  O    0.068686   0.015508  -0.007306   0.274818  -0.014367  -0.525629
    17  O   -0.066511  -0.034657   0.032018   0.255251   0.018521  -0.361348
    18  O   -0.082103  -0.005794  -0.011913   0.179955   0.005905  -0.305569
    19  O    0.157064  -0.008386   0.512022   0.017728  -0.009399  -0.007054
    20  O    0.223061  -0.005533   0.441312  -0.005129  -0.032120   0.000895
    21  O   -0.013857   0.045281   0.222686  -0.006660  -0.006324  -0.000226
    22  H   -0.000329  -0.000005   0.004628   0.000178   0.000212  -0.000174
    23  H   -0.001467   0.000001  -0.000116   0.000002  -0.000041   0.000017
    24  H   -0.011412   0.000458   0.003516   0.000027   0.000323   0.000027
    25  H   -0.000884  -0.005756  -0.000125   0.002891  -0.000002   0.004959
    26  H   -0.008946  -0.015499   0.000396  -0.000091   0.000156  -0.000109
    27  H    0.011590  -0.033020  -0.014132  -0.004862  -0.000136   0.005936
    28  H   -0.006971  -0.000138  -0.001870   0.000327   0.001162  -0.000452
    29  H   -0.003962  -0.006794  -0.026692   0.000895  -0.000170  -0.000415
    30  H   -0.002298  -0.000104  -0.010190  -0.000196   0.000153   0.000067
    31  H   -0.001114  -0.002586   0.000042  -0.023107   0.000098   0.078990
    32  H    0.000562  -0.000176   0.000399   0.001625   0.000188   0.030478
    33  H   -0.018069   0.001316  -0.005090  -0.011883  -0.000297   0.052024
               7          8          9         10         11         12
     1  Si  -1.724149  -0.203625  -1.361519  -0.023218   0.081441   0.045067
     2  O   -0.172788  -0.572326   0.060422   0.001200  -0.003407   0.004414
     3  O   -1.798077  -0.123889  -0.512595   0.011997  -0.070550  -0.037722
     4  O    0.002229   0.040813  -0.006284   0.000854  -0.002204  -0.010204
     5  O    0.307007   0.042211   0.254947  -0.027923  -0.041239  -0.023094
     6  Si   0.045725  -0.209468   0.024254  -0.000858  -0.000405  -0.002128
     7  Si  16.498002   0.168610   0.301759   0.005130  -0.041550  -0.003245
     8  Si   0.168610  12.908633   0.090052  -0.000930   0.001893   0.002265
     9  Zr   0.301759   0.090052  11.988065  -0.098338   0.156216   0.094609
    10  O    0.005130  -0.000930  -0.098338   8.806048  -0.047087  -0.044728
    11  O   -0.041550   0.001893   0.156216  -0.047087   8.377127  -0.019383
    12  O   -0.003245   0.002265   0.094609  -0.044728  -0.019383   8.560927
    13  O    0.010565  -0.165645  -0.006762  -0.000001  -0.000075  -0.000006
    14  O   -0.139019  -0.497835  -0.035457  -0.000007   0.000130   0.000031
    15  O   -0.016276  -0.087632  -0.011690  -0.000005   0.000258   0.000021
    16  O   -0.002928  -0.014933  -0.016041  -0.000001   0.000009   0.000058
    17  O   -0.071468   0.117259  -0.015569  -0.000017  -0.000094   0.000042
    18  O   -0.004787   0.112256  -0.002613   0.000001  -0.000020  -0.000018
    19  O   -0.750694  -0.031146  -0.074187  -0.000069   0.000163  -0.003354
    20  O   -0.841400   0.005852  -0.083467  -0.000758   0.003420  -0.020505
    21  O   -0.192077  -0.040475  -0.001645  -0.000018   0.007244   0.001232
    22  H   -0.000647   0.000032  -0.027619  -0.001948   0.000207   0.267354
    23  H   -0.000329   0.000034  -0.079733   0.342578  -0.000128  -0.000101
    24  H    0.003315  -0.000934  -0.057701   0.000542   0.315658  -0.002223
    25  H   -0.000785   0.042883  -0.000525  -0.000000   0.000000   0.000000
    26  H    0.000731   0.062420  -0.000001   0.000000   0.000053   0.000000
    27  H    0.016061   0.089668   0.003343   0.000000  -0.000006  -0.000001
    28  H    0.024535  -0.000332   0.003901   0.000516  -0.001040   0.033440
    29  H    0.070960   0.022997  -0.001791  -0.000000  -0.000257   0.000008
    30  H    0.054404   0.000220   0.002236  -0.000000   0.000004   0.000096
    31  H    0.000464  -0.003606   0.000100  -0.000000   0.000000   0.000000
    32  H   -0.000512   0.000092   0.001114   0.000000  -0.000000  -0.000002
    33  H    0.022211  -0.003076   0.000324   0.000000   0.000005   0.000012
              13         14         15         16         17         18
     1  Si  -0.020836  -0.034780   0.012522   0.068686  -0.066511  -0.082103
     2  O    0.237765   0.388213   0.088471   0.015508  -0.034657  -0.005794
     3  O    0.001840   0.114723   0.006053  -0.007306   0.032018  -0.011913
     4  O   -0.005517  -0.020487   0.002368   0.274818   0.255251   0.179955
     5  O   -0.002431  -0.012853  -0.004484  -0.014367   0.018521   0.005905
     6  Si   0.065223   0.010976  -0.010979  -0.525629  -0.361348  -0.305569
     7  Si   0.010565  -0.139019  -0.016276  -0.002928  -0.071468  -0.004787
     8  Si  -0.165645  -0.497835  -0.087632  -0.014933   0.117259   0.112256
     9  Zr  -0.006762  -0.035457  -0.011690  -0.016041  -0.015569  -0.002613
    10  O   -0.000001  -0.000007  -0.000005  -0.000001  -0.000017   0.000001
    11  O   -0.000075   0.000130   0.000258   0.000009  -0.000094  -0.000020
    12  O   -0.000006   0.000031   0.000021   0.000058   0.000042  -0.000018
    13  O    8.630894   0.007999  -0.079085   0.003330  -0.024453  -0.044511
    14  O    0.007999   8.985098   0.086539   0.006194  -0.059598  -0.026744
    15  O   -0.079085   0.086539   8.614178  -0.000219   0.003495   0.002076
    16  O    0.003330   0.006194  -0.000219   8.947955  -0.121641  -0.074603
    17  O   -0.024453  -0.059598   0.003495  -0.121641   8.998231   0.171013
    18  O   -0.044511  -0.026744   0.002076  -0.074603   0.171013   8.898039
    19  O    0.000374   0.019301   0.000614  -0.001806  -0.013496  -0.000597
    20  O   -0.000026  -0.003356   0.000309  -0.000001   0.001758   0.000042
    21  O   -0.001038   0.044117   0.004944  -0.000068  -0.010996  -0.000075
    22  H   -0.000000  -0.000001   0.000000  -0.000000   0.000001  -0.000000
    23  H   -0.000000  -0.000000   0.000000   0.000000   0.000000   0.000000
    24  H    0.000003  -0.000036  -0.000001   0.000000   0.000003   0.000000
    25  H    0.227647  -0.008530   0.006795   0.000176   0.000372   0.010880
    26  H   -0.007393   0.003512   0.232997   0.000000  -0.000013   0.000009
    27  H   -0.002361   0.188026   0.001632  -0.000176   0.013054   0.001010
    28  H    0.000000  -0.000001  -0.000002  -0.000003  -0.000010   0.000000
    29  H    0.000569   0.002187   0.000158  -0.000010  -0.000250   0.000026
    30  H   -0.000002  -0.000433   0.000000  -0.000067   0.000251  -0.000008
    31  H    0.002133  -0.000079  -0.000012  -0.001480   0.001836   0.215426
    32  H   -0.000002  -0.000013   0.000000   0.231311  -0.002962   0.004485
    33  H    0.000660   0.000347  -0.000153   0.000210   0.212110   0.003142
              19         20         21         22         23         24
     1  Si   0.157064   0.223061  -0.013857  -0.000329  -0.001467  -0.011412
     2  O   -0.008386  -0.005533   0.045281  -0.000005   0.000001   0.000458
     3  O    0.512022   0.441312   0.222686   0.004628  -0.000116   0.003516
     4  O    0.017728  -0.005129  -0.006660   0.000178   0.000002   0.000027
     5  O   -0.009399  -0.032120  -0.006324   0.000212  -0.000041   0.000323
     6  Si  -0.007054   0.000895  -0.000226  -0.000174   0.000017   0.000027
     7  Si  -0.750694  -0.841400  -0.192077  -0.000647  -0.000329   0.003315
     8  Si  -0.031146   0.005852  -0.040475   0.000032   0.000034  -0.000934
     9  Zr  -0.074187  -0.083467  -0.001645  -0.027619  -0.079733  -0.057701
    10  O   -0.000069  -0.000758  -0.000018  -0.001948   0.342578   0.000542
    11  O    0.000163   0.003420   0.007244   0.000207  -0.000128   0.315658
    12  O   -0.003354  -0.020505   0.001232   0.267354  -0.000101  -0.002223
    13  O    0.000374  -0.000026  -0.001038  -0.000000  -0.000000   0.000003
    14  O    0.019301  -0.003356   0.044117  -0.000001  -0.000000  -0.000036
    15  O    0.000614   0.000309   0.004944   0.000000   0.000000  -0.000001
    16  O   -0.001806  -0.000001  -0.000068  -0.000000   0.000000   0.000000
    17  O   -0.013496   0.001758  -0.010996   0.000001   0.000000   0.000003
    18  O   -0.000597   0.000042  -0.000075  -0.000000   0.000000   0.000000
    19  O    9.049268   0.048212  -0.069755   0.000077  -0.000000   0.000068
    20  O    0.048212   8.756149   0.095184   0.003499  -0.000006  -0.000645
    21  O   -0.069755   0.095184   8.598371  -0.000000  -0.000000  -0.000265
    22  H    0.000077   0.003499  -0.000000   0.357163   0.000011  -0.000005
    23  H   -0.000000  -0.000006  -0.000000   0.000011   0.366604   0.000008
    24  H    0.000068  -0.000645  -0.000265  -0.000005   0.000008   0.361434
    25  H   -0.000033   0.000001  -0.000003  -0.000000   0.000000  -0.000000
    26  H   -0.000000  -0.000001   0.000010  -0.000000  -0.000000  -0.000000
    27  H   -0.001801   0.000061  -0.002968   0.000000   0.000000  -0.000000
    28  H   -0.006077   0.234140  -0.001449  -0.002130   0.000000   0.000038
    29  H   -0.006237   0.004291   0.208373   0.000000  -0.000000   0.000022
    30  H    0.219222  -0.007629  -0.003310   0.000000  -0.000000   0.000000
    31  H    0.000018  -0.000000  -0.000000   0.000000  -0.000000  -0.000000
    32  H    0.000020  -0.000002   0.000000   0.000000  -0.000000   0.000000
    33  H    0.013863   0.000162   0.002684  -0.000000  -0.000000  -0.000000
              25         26         27         28         29         30
     1  Si  -0.000884  -0.008946   0.011590  -0.006971  -0.003962  -0.002298
     2  O   -0.005756  -0.015499  -0.033020  -0.000138  -0.006794  -0.000104
     3  O   -0.000125   0.000396  -0.014132  -0.001870  -0.026692  -0.010190
     4  O    0.002891  -0.000091  -0.004862   0.000327   0.000895  -0.000196
     5  O   -0.000002   0.000156  -0.000136   0.001162  -0.000170   0.000153
     6  Si   0.004959  -0.000109   0.005936  -0.000452  -0.000415   0.000067
     7  Si  -0.000785   0.000731   0.016061   0.024535   0.070960   0.054404
     8  Si   0.042883   0.062420   0.089668  -0.000332   0.022997   0.000220
     9  Zr  -0.000525  -0.000001   0.003343   0.003901  -0.001791   0.002236
    10  O   -0.000000   0.000000   0.000000   0.000516  -0.000000  -0.000000
    11  O    0.000000   0.000053  -0.000006  -0.001040  -0.000257   0.000004
    12  O    0.000000   0.000000  -0.000001   0.033440   0.000008   0.000096
    13  O    0.227647  -0.007393  -0.002361   0.000000   0.000569  -0.000002
    14  O   -0.008530   0.003512   0.188026  -0.000001   0.002187  -0.000433
    15  O    0.006795   0.232997   0.001632  -0.000002   0.000158   0.000000
    16  O    0.000176   0.000000  -0.000176  -0.000003  -0.000010  -0.000067
    17  O    0.000372  -0.000013   0.013054  -0.000010  -0.000250   0.000251
    18  O    0.010880   0.000009   0.001010   0.000000   0.000026  -0.000008
    19  O   -0.000033  -0.000000  -0.001801  -0.006077  -0.006237   0.219222
    20  O    0.000001  -0.000001   0.000061   0.234140   0.004291  -0.007629
    21  O   -0.000003   0.000010  -0.002968  -0.001449   0.208373  -0.003310
    22  H   -0.000000  -0.000000   0.000000  -0.002130   0.000000   0.000000
    23  H    0.000000  -0.000000   0.000000   0.000000  -0.000000  -0.000000
    24  H   -0.000000  -0.000000  -0.000000   0.000038   0.000022   0.000000
    25  H    0.304202  -0.000010  -0.000116  -0.000000  -0.000001   0.000000
    26  H   -0.000010   0.360446  -0.000053   0.000000   0.000011  -0.000000
    27  H   -0.000116  -0.000053   0.309082   0.000000  -0.000357   0.000053
    28  H   -0.000000   0.000000   0.000000   0.278087  -0.000021   0.000065
    29  H   -0.000001   0.000011  -0.000357  -0.000021   0.299537   0.000142
    30  H    0.000000  -0.000000   0.000053   0.000065   0.000142   0.332118
    31  H   -0.000328   0.000000   0.000010   0.000000   0.000000   0.000000
    32  H   -0.000001  -0.000000  -0.000000   0.000000  -0.000000   0.000000
    33  H   -0.000005   0.000000  -0.001498  -0.000003   0.000074  -0.000426
              31         32         33
     1  Si  -0.001114   0.000562  -0.018069
     2  O   -0.002586  -0.000176   0.001316
     3  O    0.000042   0.000399  -0.005090
     4  O   -0.023107   0.001625  -0.011883
     5  O    0.000098   0.000188  -0.000297
     6  Si   0.078990   0.030478   0.052024
     7  Si   0.000464  -0.000512   0.022211
     8  Si  -0.003606   0.000092  -0.003076
     9  Zr   0.000100   0.001114   0.000324
    10  O   -0.000000   0.000000   0.000000
    11  O    0.000000  -0.000000   0.000005
    12  O    0.000000  -0.000002   0.000012
    13  O    0.002133  -0.000002   0.000660
    14  O   -0.000079  -0.000013   0.000347
    15  O   -0.000012   0.000000  -0.000153
    16  O   -0.001480   0.231311   0.000210
    17  O    0.001836  -0.002962   0.212110
    18  O    0.215426   0.004485   0.003142
    19  O    0.000018   0.000020   0.013863
    20  O   -0.000000  -0.000002   0.000162
    21  O   -0.000000   0.000000   0.002684
    22  H    0.000000   0.000000  -0.000000
    23  H   -0.000000  -0.000000  -0.000000
    24  H   -0.000000   0.000000  -0.000000
    25  H   -0.000328  -0.000001  -0.000005
    26  H    0.000000  -0.000000   0.000000
    27  H    0.000010  -0.000000  -0.001498
    28  H    0.000000   0.000000  -0.000003
    29  H    0.000000  -0.000000   0.000074
    30  H    0.000000   0.000000  -0.000426
    31  H    0.335320   0.000015  -0.000047
    32  H    0.000015   0.347988   0.000126
    33  H   -0.000047   0.000126   0.278095
 Mulliken charges:
               1
     1  Si   2.296589
     2  O   -1.355828
     3  O   -1.231282
     4  O   -1.165163
     5  O   -0.827830
     6  Si   2.278850
     7  Si   2.229022
     8  Si   2.247660
     9  Zr   1.412197
    10  O   -0.922961
    11  O   -0.716383
    12  O   -0.842864
    13  O   -0.828860
    14  O   -1.018165
    15  O   -0.852892
    16  O   -0.766975
    17  O   -1.042132
    18  O   -1.044912
    19  O   -1.053925
    20  O   -0.817773
    21  O   -0.878919
    22  H    0.399495
    23  H    0.372667
    24  H    0.387782
    25  H    0.416294
    26  H    0.371373
    27  H    0.421961
    28  H    0.444287
    29  H    0.436708
    30  H    0.415627
    31  H    0.397906
    32  H    0.385264
    33  H    0.453181
 Sum of Mulliken charges =  -0.00000
 Mulliken charges with hydrogens summed into heavy atoms:
               1
     1  Si   2.296589
     2  O   -1.355828
     3  O   -1.231282
     4  O   -1.165163
     5  O   -0.827830
     6  Si   2.278850
     7  Si   2.229022
     8  Si   2.247660
     9  Zr   1.412197
    10  O   -0.550294
    11  O   -0.328601
    12  O   -0.443369
    13  O   -0.412565
    14  O   -0.596204
    15  O   -0.481519
    16  O   -0.381711
    17  O   -0.588951
    18  O   -0.647005
    19  O   -0.638297
    20  O   -0.373485
    21  O   -0.442211
 Electronic spatial extent (au):  <R**2>=           8067.1259
 Charge=             -0.0000 electrons
 Dipole moment (field-independent basis, Debye):
    X=             -2.2271    Y=             -3.7105    Z=             -2.5869  Tot=              5.0418
 Quadrupole moment (field-independent basis, Debye-Ang):
   XX=           -156.4172   YY=           -156.1138   ZZ=           -160.8115
   XY=             -3.9353   XZ=              2.1494   YZ=             -7.6641
 Traceless Quadrupole moment (field-independent basis, Debye-Ang):
   XX=              1.3637   YY=              1.6670   ZZ=             -3.0307
   XY=             -3.9353   XZ=              2.1494   YZ=             -7.6641
 Octapole moment (field-independent basis, Debye-Ang**2):
  XXX=           -209.6601  YYY=            -17.7118  ZZZ=            -39.8633  XYY=            -59.4284
  XXY=            -35.6547  XXZ=            -69.4824  XZZ=              9.6327  YZZ=            -26.7846
  YYZ=            -30.1972  XYZ=              8.2286
 Hexadecapole moment (field-independent basis, Debye-Ang**3):
 XXXX=          -5342.9638 YYYY=          -2172.7353 ZZZZ=          -2140.9552 XXXY=             12.9719
 XXXZ=            137.4278 YYYX=             21.6872 YYYZ=            -91.1369 ZZZX=            166.1693
 ZZZY=           -107.0248 XXYY=          -1458.9452 XXZZ=          -1129.5516 YYZZ=           -711.2761
 XXYZ=             12.4241 YYXZ=            -30.7457 ZZXY=            -94.6635
 N-N= 3.033675247001D+03 E-N=-1.177926521776D+04  KE= 2.373129240475D+03
 PrsmSu:  requested number of processors reduced to:   2 ShMem   1 Linda.
 PrsmSu:  requested number of processors reduced to:  10 ShMem   1 Linda.
   1 Symmetry operations used in ECPInt.
 ECPInt:  NShTT=   13203 NPrTT=   78401 LenC2=   11902 LenP2D=   45158.
 LDataN:  DoStor=T MaxTD1= 9 Len=  602
 Number of processors reduced to  14 by ecpmxn.
 Calling FoFJK, ICntrl=      2127 FMM=F ISym2X=0 I1Cent= 0 IOpClX= 0 NMat=1 NMatS=1 NMatT=0.
 CoulSu:  requested number of processors reduced to:  10 ShMem   1 Linda.
 Defaulting to unpruned grid for atomic number  40.
 Defaulting to unpruned grid for atomic number  40.
 Defaulting to unpruned grid for atomic number  40.
 Defaulting to unpruned grid for atomic number  40.
 Defaulting to unpruned grid for atomic number  40.
 Defaulting to unpruned grid for atomic number  40.
 Defaulting to unpruned grid for atomic number  40.
 Defaulting to unpruned grid for atomic number  40.
 Defaulting to unpruned grid for atomic number  40.
 Defaulting to unpruned grid for atomic number  40.
 Defaulting to unpruned grid for atomic number  40.
 Defaulting to unpruned grid for atomic number  40.
 Defaulting to unpruned grid for atomic number  40.
 Defaulting to unpruned grid for atomic number  40.
 Defaulting to unpruned grid for atomic number  40.
 Defaulting to unpruned grid for atomic number  40.
 ***** Axes restored to original set *****
 -------------------------------------------------------------------
 Center     Atomic                   Forces (Hartrees/Bohr)
 Number     Number              X              Y              Z
 -------------------------------------------------------------------
      1       14           0.000001622    0.000013514    0.000047356
      2        8           0.000003521    0.000009757   -0.000009766
      3        8           0.000004753   -0.000012233   -0.000022186
      4        8          -0.000005309    0.000001944   -0.000008647
      5        8           0.000008876    0.000002968   -0.000002508
      6       14          -0.000010728   -0.000047527    0.000002820
      7       14           0.000024004   -0.000016379    0.000025707
      8       14          -0.000007229   -0.000023905    0.000000359
      9       40           0.000037586   -0.000000196   -0.000047036
     10        8          -0.000028984    0.000005727    0.000023969
     11        8          -0.000008066   -0.000012892    0.000007883
     12        8          -0.000011081    0.000013691    0.000014320
     13        8           0.000003291   -0.000015765   -0.000018950
     14        8           0.000004177    0.000008105    0.000001756
     15        8           0.000005123    0.000004530    0.000001600
     16        8          -0.000005827    0.000023684    0.000008336
     17        8          -0.000006047    0.000009512   -0.000014847
     18        8           0.000013862    0.000015470    0.000004776
     19        8          -0.000008782   -0.000005551    0.000001812
     20        8          -0.000026887   -0.000002231   -0.000011130
     21        8           0.000013830    0.000012841   -0.000009863
     22        1          -0.000002774    0.000005104   -0.000001437
     23        1           0.000006127    0.000006906   -0.000002853
     24        1           0.000000616    0.000003166   -0.000004853
     25        1          -0.000001555    0.000013130    0.000007732
     26        1           0.000001316    0.000000133   -0.000006434
     27        1           0.000003640   -0.000001937    0.000003841
     28        1          -0.000002320   -0.000003337   -0.000001780
     29        1          -0.000006520   -0.000001387   -0.000003026
     30        1           0.000000814    0.000003527    0.000002717
     31        1           0.000003324   -0.000001500    0.000007414
     32        1          -0.000006497   -0.000002229   -0.000005142
     33        1           0.000002121   -0.000006640    0.000008059
 -------------------------------------------------------------------
 Cartesian Forces:  Max     0.000047527 RMS     0.000013613

 GradGradGradGradGradGradGradGradGradGradGradGradGradGradGradGradGradGrad
 Berny optimization.
 FormGI is forming the generalized inverse of G from B-inverse, IUseBI=4.
 Internal  Forces:  Max     0.000031387 RMS     0.000007642
 Search for a local minimum.
 Step number   1 out of a maximum of  164
 All quantities printed in internal units (Hartrees-Bohrs-Radians)
 Mixed Optimization -- En-DIIS/RFO-DIIS
 Second derivative matrix not updated -- first step.
 ITU=  0
     Eigenvalues ---    0.00230   0.00230   0.00230   0.00550   0.03211
     Eigenvalues ---    0.03439   0.03520   0.03558   0.03586   0.03627
     Eigenvalues ---    0.03673   0.03711   0.03747   0.03753   0.03833
     Eigenvalues ---    0.03844   0.03910   0.03946   0.03957   0.04385
     Eigenvalues ---    0.04838   0.08271   0.08635   0.10894   0.11319
     Eigenvalues ---    0.11516   0.11815   0.11842   0.12054   0.12258
     Eigenvalues ---    0.12943   0.12968   0.13045   0.13236   0.14964
     Eigenvalues ---    0.15407   0.16000   0.16000   0.16000   0.16000
     Eigenvalues ---    0.16000   0.16000   0.16000   0.16000   0.16000
     Eigenvalues ---    0.16000   0.16000   0.16000   0.17756   0.18521
     Eigenvalues ---    0.19018   0.20145   0.20369   0.20384   0.21054
     Eigenvalues ---    0.21061   0.21266   0.21466   0.21865   0.22128
     Eigenvalues ---    0.22795   0.25000   0.25000   0.25000   0.36523
     Eigenvalues ---    0.37725   0.40032   0.40890   0.41311   0.41617
     Eigenvalues ---    0.42076   0.42599   0.43032   0.43450   0.43522
     Eigenvalues ---    0.44473   0.44608   0.45420   0.45878   0.46010
     Eigenvalues ---    0.50565   0.51158   0.51894   0.52645   0.52665
     Eigenvalues ---    0.54349   0.54581   0.54655   0.54659   0.54845
     Eigenvalues ---    0.55241   0.557781000.000001000.000001000.00000
     Eigenvalues --- 1000.000001000.000001000.000001000.000001000.00000
     Eigenvalues --- 1000.000001000.000001000.000001000.000001000.00000
     Eigenvalues --- 1000.000001000.000001000.000001000.000001000.00000
     Eigenvalues --- 1000.000001000.000001000.000001000.000001000.00000
     Eigenvalues --- 1000.000001000.000001000.000001000.000001000.00000
     Eigenvalues --- 1000.000001000.000001000.000001000.000001000.00000
     Eigenvalues --- 1000.000001000.000001000.000001000.000001000.00000
     Eigenvalues --- 1000.000001000.000001000.000001000.000001000.00000
     Eigenvalues --- 1000.000001000.000001000.000001000.000001000.00000
     Eigenvalues --- 1000.000001000.000001000.000001000.000001000.00000
     Eigenvalues --- 1000.000001000.000001000.000001000.000001000.00000
     Eigenvalues --- 1000.000001000.000001000.000001000.00000
 RFO step:  Lambda=-5.28568411D-08 EMin= 2.30000000D-03
 Linear search not attempted -- first point.
 Iteration  1 RMS(Cart)=  0.00026608 RMS(Int)=  0.00000002
 Iteration  2 RMS(Cart)=  0.00000003 RMS(Int)=  0.00000000
 Iteration  1 RMS(Cart)=  0.00000000 RMS(Int)=  0.00000000
 Variable       Old X    -DE/DX   Delta X   Delta X   Delta X     New X
                                 (Linear)    (Quad)   (Total)
    R1        3.07970  -0.00000   0.00000  -0.00000  -0.00000   3.07969
    R2        3.15210  -0.00002   0.00000  -0.00005  -0.00005   3.15206
    R3        3.11330   0.00000   0.00000   0.00001   0.00001   3.11331
    R4        3.06222   0.00001   0.00000   0.00001   0.00001   3.06224
    R5        5.71552  -0.00001   0.00000  -0.00003  -0.00003   5.71549
    R6        3.13114   0.00001   0.00000   0.00002   0.00002   3.13116
    R7        3.12526   0.00000   0.00000   0.00001   0.00001   3.12527
    R8        3.11868  -0.00000   0.00000  -0.00000  -0.00000   3.11868
    R9        3.82373  -0.00000   0.00000  -0.00005  -0.00005   3.82368
   R10        3.10818   0.00002   0.00000   0.00005   0.00005   3.10824
   R11        3.10731  -0.00001   0.00000  -0.00002  -0.00002   3.10728
   R12        3.13510  -0.00003   0.00000  -0.00006  -0.00006   3.13504
   R13        3.18468   0.00001   0.00000   0.00002   0.00002   3.18469
   R14        3.07820  -0.00003   0.00000  -0.00007  -0.00007   3.07813
   R15        3.08491  -0.00002   0.00000  -0.00004  -0.00004   3.08487
   R16        3.09593   0.00000   0.00000   0.00001   0.00001   3.09594
   R17        3.14061   0.00001   0.00000   0.00003   0.00003   3.14064
   R18        3.09434  -0.00000   0.00000  -0.00001  -0.00001   3.09433
   R19        3.64116  -0.00003   0.00000  -0.00014  -0.00014   3.64101
   R20        3.64910   0.00001   0.00000   0.00007   0.00007   3.64917
   R21        3.79238   0.00001   0.00000   0.00008   0.00008   3.79246
   R22        1.81147   0.00001   0.00000   0.00001   0.00001   1.81148
   R23        1.81618  -0.00000   0.00000  -0.00000  -0.00000   1.81618
   R24        1.82136   0.00000   0.00000   0.00000   0.00000   1.82136
   R25        1.83968   0.00001   0.00000   0.00002   0.00002   1.83970
   R26        1.83987  -0.00000   0.00000  -0.00000  -0.00000   1.83986
   R27        1.81970   0.00000   0.00000   0.00000   0.00000   1.81970
   R28        1.82140  -0.00000   0.00000  -0.00001  -0.00001   1.82139
   R29        1.85999   0.00001   0.00000   0.00001   0.00001   1.86000
[...]
 ! D36   D(18,6,17,33)         164.0932         -DE/DX =    0.0                 !
 ! D37   D(4,6,18,31)          -92.9354         -DE/DX =    0.0                 !
 ! D38   D(16,6,18,31)          25.7911         -DE/DX =    0.0                 !
 ! D39   D(17,6,18,31)         149.3552         -DE/DX =    0.0                 !
 ! D40   D(3,7,19,30)         -166.1155         -DE/DX =    0.0                 !
 ! D41   D(20,7,19,30)         -49.2104         -DE/DX =    0.0                 !
 ! D42   D(21,7,19,30)          73.4066         -DE/DX =    0.0                 !
 ! D43   D(3,7,20,28)           12.9879         -DE/DX =    0.0                 !
 ! D44   D(19,7,20,28)        -100.7463         -DE/DX =    0.0                 !
 ! D45   D(21,7,20,28)         135.8599         -DE/DX =    0.0                 !
 ! D46   D(3,7,21,29)          -57.2164         -DE/DX =    0.0                 !
 ! D47   D(19,7,21,29)          58.1093         -DE/DX =    0.0                 !
 ! D48   D(20,7,21,29)        -178.1114         -DE/DX =    0.0                 !
 ! D49   D(2,8,13,25)          -43.843          -DE/DX =    0.0                 !
 ! D50   D(14,8,13,25)          76.5485         -DE/DX =    0.0                 !
 ! D51   D(15,8,13,25)        -166.0547         -DE/DX =    0.0                 !
 ! D52   D(2,8,14,27)           78.098          -DE/DX =    0.0                 !
 ! D53   D(13,8,14,27)         -42.1603         -DE/DX =    0.0                 !
 ! D54   D(15,8,14,27)        -163.5737         -DE/DX =    0.0                 !
 ! D55   D(2,8,15,26)          -65.1514         -DE/DX =    0.0                 !
 ! D56   D(13,8,15,26)          55.6545         -DE/DX =    0.0                 !
 ! D57   D(14,8,15,26)         178.0211         -DE/DX =    0.0                 !
 ! D58   D(1,9,10,23)         -104.7665         -DE/DX =    0.0                 !
 ! D59   D(5,9,10,23)         -105.0472         -DE/DX =    0.0                 !
 ! D60   D(11,9,10,23)          14.1419         -DE/DX =    0.0                 !
 ! D61   D(12,9,10,23)         132.2528         -DE/DX =    0.0                 !
 ! D62   D(1,9,11,24)          -45.1882         -DE/DX =    0.0                 !
 ! D63   D(5,9,11,24)          -71.4518         -DE/DX =    0.0                 !
 ! D64   D(10,9,11,24)         172.8355         -DE/DX =    0.0                 !
 ! D65   D(12,9,11,24)          58.385          -DE/DX =    0.0                 !
 ! D66   D(1,9,12,22)         -145.3845         -DE/DX =    0.0                 !
 ! D67   D(5,9,12,22)         -118.0994         -DE/DX =    0.0                 !
 ! D68   D(10,9,12,22)          -2.1003         -DE/DX =    0.0                 !
 ! D69   D(11,9,12,22)         114.5268         -DE/DX =    0.0                 !
 --------------------------------------------------------------------------------
 GradGradGradGradGradGradGradGradGradGradGradGradGradGradGradGradGradGrad

                          Input orientation:                          
 ---------------------------------------------------------------------
 Center     Atomic      Atomic             Coordinates (Angstroms)
 Number     Number       Type             X           Y           Z
 ---------------------------------------------------------------------
      1         14           0       -0.138170    0.159070   -0.886720
      2          8           0       -1.005710   -1.215570   -1.003670
      3          8           0        0.581790    0.252670    0.615010
      4          8           0       -1.133900    1.453110   -1.106270
      5          8           0        1.181340    0.192060   -1.826770
      6         14           0       -2.693390    1.743710   -0.651140
      7         14           0        0.452460    0.314040    2.262620
      8         14           0       -2.154800   -2.120400   -0.225030
      9         40           0        2.877870   -0.016600   -0.743940
     10          8           0        4.320370    0.033840   -2.020370
     11          8           0        2.922190   -1.723600    0.157740
     12          8           0        3.275730    1.470670    0.543360
     13          8           0       -3.558250   -2.004360   -1.062210
     14          8           0       -2.286870   -1.577110    1.340040
     15          8           0       -1.669150   -3.677480   -0.080450
     16          8           0       -3.005960    3.334120   -0.930770
     17          8           0       -2.920570    1.218380    0.890350
     18          8           0       -3.785110    0.842720   -1.516430
     19          8           0       -0.763350    1.451590    2.523160
     20          8           0        1.876730    0.804420    2.882570
     21          8           0        0.045960   -1.132570    2.900600
     22          1           0        4.029190    2.071360    0.563900
     23          1           0        5.036240   -0.245180   -2.593580
     24          1           0        2.599230   -2.311130    0.846350
     25          1           0       -3.792210   -1.109630   -1.366280
     26          1           0       -1.561400   -4.185680   -0.891240
     27          1           0       -2.806230   -0.756150    1.404970
     28          1           0        2.490500    1.169920    2.209970
     29          1           0       -0.788420   -1.498580    2.546840
     30          1           0       -0.841850    1.779550    3.427640
     31          1           0       -4.151960    1.261500   -2.303650
     32          1           0       -2.244280    3.909500   -1.064090
     33          1           0       -2.210870    1.445490    1.533410
 ---------------------------------------------------------------------
                    Distance matrix (angstroms):
                    1          2          3          4          5
     1  Si   0.000000
     2  O    1.629705   0.000000
     3  O    1.668022   2.701113   0.000000
     4  O    1.647489   2.673726   2.710619   0.000000
     5  O    1.620459   2.728022   2.515039   2.733076   0.000000
     6  Si   3.015913   3.424891   3.814858   1.650334   4.336272
     7  Si   3.207990   3.890323   1.653817   3.894026   4.155629
     8  Si   3.114581   1.656926   3.718340   3.819528   4.363814
     9  Zr   3.024524   4.072736   2.681648   4.287847   2.023431
    10  O    4.602111   5.564336   4.579312   5.709551   3.148972
    11  O    3.741811   4.127392   3.097129   5.304816   3.261685
    12  O    3.926848   5.285822   2.957359   4.708123   3.411573
    13  O    4.050700   2.672279   5.004716   4.222974   5.279444
    14  O    3.548196   2.695377   3.478933   4.061528   5.018678
    15  O    4.208692   2.711732   4.582191   5.259444   5.113538
    16  O    4.278680   4.970512   4.975613   2.659625   5.311199
    17  O    3.467256   3.630167   3.643478   2.689569   5.026106
    18  O    3.763520   3.496362   4.894999   2.751313   5.018495
    19  O    3.699830   4.428432   2.624471   3.648297   4.928501
    20  O    4.322481   5.243251   2.668919   5.039398   4.799629
    21  O    4.005750   4.044283   2.725789   4.912516   5.039024
    22  H    4.809162   6.213807   3.898052   5.461611   4.166212
    23  H    5.463635   6.322549   5.512262   6.570153   3.954672
    24  H    4.074160   4.197430   3.270574   5.649645   3.927078
    25  H    3.897638   2.811991   4.991317   3.701601   5.161652
    26  H    4.571920   3.023737   5.153737   5.659059   5.249995
    27  H    3.634283   3.042119   3.622214   3.739498   5.219575
    28  H    4.185835   5.314276   2.651117   4.920764   4.354926
    29  H    3.867811   3.568393   2.945559   4.709251   5.085930
    30  H    4.662062   5.351084   3.502713   4.555019   5.849978
    31  H    4.396994   4.210073   5.651965   3.252556   5.460330
    32  H    4.304984   5.272954   4.917159   2.696029   5.112330
    33  H    3.436276   3.869163   3.172574   2.850935   4.936495
                    6          7          8          9         10
     6  Si   0.000000
     7  Si   4.519992   0.000000
     8  Si   3.924665   4.348874   0.000000
     9  Zr   5.843479   3.877027   5.479326   0.000000
    10  O    7.347876   5.777823   7.056332   1.926817   0.000000
    11  O    6.649155   3.831718   5.106838   1.931020   3.128525
    12  O    6.093585   3.502071   6.555674   2.006840   3.119049
    13  O    3.868461   5.702216   1.638294   6.743599   8.194204
    14  O    3.893315   3.454205   1.661942   5.783831   7.585719
    15  O    5.546535   5.091506   1.637455   5.875173   7.308320
    16  O    1.644779   5.592789   5.565459   6.773602   8.108896
    17  O    1.644316   3.752104   3.602489   6.149633   7.893455
    18  O    1.659025   5.702431   3.620180   6.762431   8.161314
    19  O    3.726469   1.685258   4.716757   5.107642   6.964043
    20  O    5.852809   1.628912   5.870689   3.850705   5.532087
    21  O    5.328403   1.632465   3.948255   4.748450   6.621710
    22  H    6.839354   4.332069   7.512323   2.719478   3.303744
    23  H    8.214374   6.701227   7.799842   2.851662   0.958588
    24  H    6.833449   3.675046   4.876990   2.805625   4.084029
    25  H    3.140124   5.763070   2.237235   6.787635   8.218839
    26  H    6.041251   5.852345   2.249742   6.091801   7.326288
    27  H    3.238768   3.535524   2.223160   6.121580   7.946412
    28  H    5.948773   2.211088   6.191465   3.206785   4.747092
    29  H    4.936439   2.214984   3.152288   5.144626   7.021927
    30  H    4.479501   2.276012   5.502313   5.870652   7.705636
    31  H    2.256267   6.553563   4.443710   7.313327   8.565499
    32  H    2.250083   5.591667   6.088655   6.461670   7.683088
    33  H    2.256993   2.984167   3.976283   5.763619   7.568303
                   11         12         13         14         15
    11  O    0.000000
    12  O    3.236828   0.000000
    13  O    6.600243   7.833069   0.000000
    14  O    5.343557   6.392666   2.751319   0.000000
    15  O    4.995476   7.165502   2.707745   2.609775   0.000000
    16  O    7.868186   6.716036   5.368582   5.458374   7.188368
    17  O    6.582538   6.211134   3.821672   2.901476   5.145673
    18  O    7.374057   7.381905   2.891997   4.032334   5.193412
    19  O    5.409274   4.498237   5.710511   3.590809   5.822939
    20  O    3.861162   2.805886   7.279392   5.038517   6.437405
    21  O    4.018121   4.771253   5.427173   2.841665   4.278414
    22  H    3.973932   0.963822   8.764986   7.335281   8.120063
    23  H    3.771564   3.985465   8.905339   8.418750   7.940955
    24  H    0.961082   3.853760   6.453779   4.965530   4.576564
    25  H    6.912508   7.762760   0.973518   3.131893   3.571358
    26  H    5.221568   7.579591   2.962228   3.508497   0.962942
    27  H    5.941914   6.533861   2.865404   0.973615   3.468947
    28  H    3.573578   1.866715   7.574338   5.579087   6.785720
    29  H    4.418943   5.417351   4.577446   1.925587   3.525045
    30  H    6.093628   5.036759   6.469587   4.208720   6.539900
    31  H    8.063055   7.957374   3.543939   4.981239   5.958229
    32  H    7.740613   6.245182   6.058074   5.990371   7.672065
    33  H    6.187399   5.575268   4.522625   3.029732   5.398410
                   16         17         18         19         20
    16  O    0.000000
    17  O    2.792870   0.000000
    18  O    2.675284   2.584790   0.000000
    19  O    4.528007   2.715521   5.081343   0.000000
    20  O    6.691906   5.210987   7.170014   2.741902   0.000000
    21  O    6.629097   4.285834   6.171630   2.734104   2.665328
    22  H    7.302187   7.009516   8.179280   5.214523   3.407998
    23  H    8.958421   8.808553   8.953211   7.918036   6.408774
    24  H    8.151390   6.551913   7.502619   5.317584   3.791418
    25  H    4.533737   3.357345   1.958128   5.555320   7.338474
    26  H    7.657396   5.850237   5.533584   6.638812   7.138871
    27  H    4.714433   2.043692   3.471191   3.209022   5.152552
    28  H    6.690223   5.569867   7.305915   3.281001   0.981170
    29  H    6.353443   3.830391   5.565249   2.950372   3.538297
    30  H    5.108405   3.327736   5.829602   0.965300   2.939159
    31  H    2.737493   3.423422   0.964194   5.900585   7.965608
    32  H    0.963843   3.394014   3.461778   4.593783   6.496181
    33  H    3.204883   0.984266   3.484693   1.753555   4.351974
                   21         22         23         24         25
    21  O    0.000000
    22  H    5.620628   0.000000
    23  H    7.475050   4.043536   0.000000
    24  H    3.482547   4.618526   4.694708   0.000000
    25  H    5.739193   8.661327   8.955170   6.869486   0.000000
    26  H    5.126708   8.516025   7.871109   4.883032   3.829394
    27  H    3.242466   7.444809   8.817813   5.652346   2.962589
    28  H    3.428441   2.426872   5.617597   3.740186   7.580129
    29  H    0.977394   6.315528   7.869027   3.876606   4.948388
    30  H    3.089728   5.658020   8.654858   5.936140   6.327215
    31  H    7.101994   8.706890   9.315426   8.262249   2.574945
    32  H    6.810759   6.736879   8.520955   8.112066   5.261090
    33  H    3.689022   6.345866   8.509466   6.141767   4.175820
                   26         27         28         29         30
    26  H    0.000000
    27  H    4.310900   0.000000
    28  H    7.397151   5.693252   0.000000
    29  H    4.431523   2.434466   4.240954   0.000000
    30  H    7.399625   3.792065   3.599851   3.394820   0.000000
    31  H    6.194972   4.431226   8.031403   6.516034   6.638742
    32  H    8.125770   5.308515   6.375179   6.663758   5.165185
    33  H    6.165291   2.284331   4.757789   3.423150   2.360915
                   31         32         33
    31  H    0.000000
    32  H    3.491082   0.000000
    33  H    4.304034   3.580428   0.000000
 Stoichiometry    H12O16Si4Zr
 Framework group  C1[X(H12O16Si4Zr)]
 Deg. of freedom    93
 Full point group                 C1      NOp   1
 Largest Abelian subgroup         C1      NOp   1
 Largest concise Abelian subgroup C1      NOp   1
                         Standard orientation:                         
 ---------------------------------------------------------------------
 Center     Atomic      Atomic             Coordinates (Angstroms)
 Number     Number       Type             X           Y           Z
 ---------------------------------------------------------------------
      1         14           0        0.138170   -0.159070   -0.886720
      2          8           0        1.005710    1.215570   -1.003670
      3          8           0       -0.581790   -0.252670    0.615010
      4          8           0        1.133900   -1.453110   -1.106270
      5          8           0       -1.181340   -0.192060   -1.826770
      6         14           0        2.693390   -1.743710   -0.651140
      7         14           0       -0.452460   -0.314040    2.262620
      8         14           0        2.154800    2.120400   -0.225030
      9         40           0       -2.877870    0.016600   -0.743940
     10          8           0       -4.320370   -0.033840   -2.020370
     11          8           0       -2.922190    1.723600    0.157740
     12          8           0       -3.275730   -1.470670    0.543360
     13          8           0        3.558250    2.004360   -1.062210
     14          8           0        2.286870    1.577110    1.340040
     15          8           0        1.669150    3.677480   -0.080450
     16          8           0        3.005960   -3.334120   -0.930770
     17          8           0        2.920570   -1.218380    0.890350
     18          8           0        3.785110   -0.842720   -1.516430
     19          8           0        0.763350   -1.451590    2.523160
     20          8           0       -1.876730   -0.804420    2.882570
     21          8           0       -0.045960    1.132570    2.900600
     22          1           0       -4.029190   -2.071360    0.563900
     23          1           0       -5.036240    0.245180   -2.593580
     24          1           0       -2.599230    2.311130    0.846350
     25          1           0        3.792210    1.109630   -1.366280
     26          1           0        1.561400    4.185680   -0.891240
     27          1           0        2.806230    0.756150    1.404970
     28          1           0       -2.490500   -1.169920    2.209970
     29          1           0        0.788420    1.498580    2.546840
     30          1           0        0.841850   -1.779550    3.427640
     31          1           0        4.151960   -1.261500   -2.303650
     32          1           0        2.244280   -3.909500   -1.064090
     33          1           0        2.210870   -1.445490    1.533410
 ---------------------------------------------------------------------
 Rotational constants (GHZ):           0.2624186           0.1371350           0.1338123
 1\1\GINC-GRA709\FOpt\RB3LYP\Gen\H12O16Si4Zr1\SARASHS\29-Jul-2020\0\\#n
  B3LYP/Gen Pseudo=cards EmpiricalDispersion=GD3 Opt=modredundant\\Titl
 e\\0,1\Si,-0.13817,0.15907,-0.88672\O,-1.00571,-1.21557,-1.00367\O,0.5
 8179,0.25267,0.61501\O,-1.1339,1.45311,-1.10627\O,1.18134,0.19206,-1.8
 2677\Si,-2.69339,1.74371,-0.65114\Si,0.45246,0.31404,2.26262\Si,-2.154
 8,-2.1204,-0.22503\Zr,2.87787,-0.0166,-0.74394\O,4.32037,0.03384,-2.02
 037\O,2.92219,-1.7236,0.15774\O,3.27573,1.47067,0.54336\O,-3.55825,-2.
 00436,-1.06221\O,-2.28687,-1.57711,1.34004\O,-1.66915,-3.67748,-0.0804
 5\O,-3.00596,3.33412,-0.93077\O,-2.92057,1.21838,0.89035\O,-3.78511,0.
 84272,-1.51643\O,-0.76335,1.45159,2.52316\O,1.87673,0.80442,2.88257\O,
 0.04596,-1.13257,2.9006\H,4.02919,2.07136,0.5639\H,5.03624,-0.24518,-2
 .59358\H,2.59923,-2.31113,0.84635\H,-3.79221,-1.10963,-1.36628\H,-1.56
 14,-4.18568,-0.89124\H,-2.80623,-0.75615,1.40497\H,2.4905,1.16992,2.20
 997\H,-0.78842,-1.49858,2.54684\H,-0.84185,1.77955,3.42764\H,-4.15196,
 1.2615,-2.30365\H,-2.24428,3.9095,-1.06409\H,-2.21087,1.44549,1.53341\
 \Version=ES64L-G16RevB.01\State=1-A\HF=-2416.9437623\RMSD=3.902e-09\RM
 SF=1.361e-05\Dipole=0.8762236,1.4598061,-1.0177751\Quadrupole=1.013845
 ,1.2393836,-2.2532286,-2.9257835,-1.5980034,5.6980702\PG=C01 [X(H12O16
 Si4Zr1)]\\@


 THOUGH I SPEAK WITH THE TONGUES OF MEN AND OF ANGELS, 
 AND HAVE NOT LOVE,
 I AM BECOME AS SOUNDING BRASS, A TINKLING CYMBAL.
 AND THOUGH I HAVE THE GIFT OF PROPHECY,
 AND UNDERSTAND ALL MYSTERIES, AND ALL KNOWLEDGE.
 AND THOUGH I HAVE ALL FAITH, SO THAT I COULD REMOVE MOUNTAINS,
 AND HAVE NOT LOVE, I AM NOTHING.
 AND THOUGH I BESTOW ALL MY GOODS TO FEED THE POOR,
 AND THOUGH I GIVE MY BODY TO BE BURNED,
 AND HAVE NOT LOVE IT PROFITETH ME NOTHING.
 LOVE SUFFERETH LONG, AND IS KIND,
 LOVE ENVIETH NOT,
 LOVE VAUNTETH NOT ITSELF, IS NOT PUFFED UP,
 DOTH NOT BEHAVE ITSELF UNSEEMLY, SEEKETH NOT HER OWN,
 IS NOT EASILY PROVOKED, THINKETH NO EVIL,
 REJOICETH NOT IN INIQUITY, BUT REJOICETH IN THE TRUTH,
 BEARETH ALL THINGS, BELIEVETH ALL THINGS,
 HOPETH ALL THINGS, ENDURETH ALL THINGS.
 LOVE NEVER FAILETH, BUT WHETHER THERE BE PROPHECIES, THEY SHALL FAIL, 
 WHETHER THERE BE TONGUES, THEY SHALL CEASE,
 WHETHER THERE BE KNOWLEDGE, IT SHALL VANISH AWAY.
 FOR WE KNOW IN PART, AND WE PROPHESY IN PART.
 BUT WHEN THAT WHICH IS PERFECT IS COME, THEN THAT WHICH IS IN PART 
 SHALL BE DONE AWAY. 
 WHEN I WAS A CHILD, I SPAKE AS A CHILD, I UNDERSTOOD AS A CHILD, 
 I THOUGHT AS A CHILD.
 BUT WHEN I BECAME A MAN, I PUT AWAY CHILDISH THINGS.
 FOR NOW WE SEE THROUGH A GLASS, DARKLY, BUT THEN FACE TO FACE.
 NOW I KNOW IN PART. BUT THEN SHALL I KNOW EVEN AS ALSO I AM KNOWN.
 AND NOW ABIDETH FAITH, HOPE AND LOVE, THESE THREE.
 BUT THE GREATEST OF THESE IS LOVE.

                     I CORINTHIANS 13
 Job cpu time:       0 days  1 hours 10 minutes 24.5 seconds.
 Elapsed time:       0 days  0 hours  5 minutes  1.5 seconds.
 File lengths (MBytes):  RWF=    148 Int=      0 D2E=      0 Chk=     20 Scr=      1
 Normal termination of Gaussian 16 at Wed Jul 29 20:11:11 2020.
