 Entering Gaussian System, Link 0=g16
 Initial command:
 /opt/software/gaussian/g16.b01/l1.exe "/localscratch/sarashs.36567452.0/Gau-18005.inp" -scrdir="/localscratch/sarashs.36567452.0/"
 Entering Link 1 = /opt/software/gaussian/g16.b01/l1.exe PID=     18006.
  
 Copyright (c) 1988-2017, Gaussian, Inc.  All Rights Reserved.
  
 This is part of the Gaussian(R) 16 program.  It is based on
 the Gaussian(R) 09 system (copyright 2009, Gaussian, Inc.),
 the Gaussian(R) 03 system (copyright 2003, Gaussian, Inc.),
 the Gaussian(R) 98 system (copyright 1998, Gaussian, Inc.),
 the Gaussian(R) 94 system (copyright 1995, Gaussian, Inc.),
 the Gaussian 92(TM) system (copyright 1992, Gaussian, Inc.),
 the Gaussian 90(TM) system (copyright 1990, Gaussian, Inc.),
 the Gaussian 88(TM) system (copyright 1988, Gaussian, Inc.),
 the Gaussian 86(TM) system (copyright 1986, Carnegie Mellon
 University), and the Gaussian 82(TM) system (copyright 1983,
 Carnegie Mellon University). Gaussian is a federally registered
 trademark of Gaussian, Inc.
  
 This software contains proprietary and confidential information,
 including trade secrets, belonging to Gaussian, Inc.
  
 This software is provided under written license and may be
 used, copied, transmitted, or stored only in accord with that
 written license.
  
 The following legend is applicable only to US Government
 contracts under FAR:
  
                    RESTRICTED RIGHTS LEGEND
  
 Use, reproduction and disclosure by the US Government is
 subject to restrictions as set forth in subparagraphs (a)
 and (c) of the Commercial Computer Software - Restricted
 Rights clause in FAR 52.227-19.
  
 Gaussian, Inc.
 340 Quinnipiac St., Bldg. 40, Wallingford CT 06492
  
  
 ---------------------------------------------------------------
 Warning -- This program may not be used in any manner that
 competes with the business of Gaussian, Inc. or will provide
 assistance to any competitor of Gaussian, Inc.  The licensee
 of this program is prohibited from giving any competitor of
 Gaussian, Inc. access to this program.  By using this program,
 the user acknowledges that Gaussian, Inc. is engaged in the
 business of creating and licensing software in the field of
 computational chemistry and represents and warrants to the
 licensee that it is not a competitor of Gaussian, Inc. and that
 it will not use this program in any manner prohibited above.
 ---------------------------------------------------------------
  

 Cite this work as:
 Gaussian 16, Revision B.01,
 M. J. Frisch, G. W. Trucks, H. B. Schlegel, G. E. Scuseria, 
 M. A. Robb, J. R. Cheeseman, G. Scalmani, V. Barone, 
 G. A. Petersson, H. Nakatsuji, X. Li, M. Caricato, A. V. Marenich, 
 J. Bloino, B. G. Janesko, R. Gomperts, B. Mennucci, H. P. Hratchian, 
 J. V. Ortiz, A. F. Izmaylov, J. L. Sonnenberg, D. Williams-Young, 
 F. Ding, F. Lipparini, F. Egidi, J. Goings, B. Peng, A. Petrone, 
 T. Henderson, D. Ranasinghe, V. G. Zakrzewski, J. Gao, N. Rega, 
 G. Zheng, W. Liang, M. Hada, M. Ehara, K. Toyota, R. Fukuda, 
 J. Hasegawa, M. Ishida, T. Nakajima, Y. Honda, O. Kitao, H. Nakai, 
 T. Vreven, K. Throssell, J. A. Montgomery, Jr., J. E. Peralta, 
 F. Ogliaro, M. J. Bearpark, J. J. Heyd, E. N. Brothers, K. N. Kudin, 
 V. N. Staroverov, T. A. Keith, R. Kobayashi, J. Normand, 
 K. Raghavachari, A. P. Rendell, J. C. Burant, S. S. Iyengar, 
 J. Tomasi, M. Cossi, J. M. Millam, M. Klene, C. Adamo, R. Cammi, 
 J. W. Ochterski, R. L. Martin, K. Morokuma, O. Farkas, 
 J. B. Foresman, and D. J. Fox, Gaussian, Inc., Wallingford CT, 2016.
 
 ******************************************
 Gaussian 16:  ES64L-G16RevB.01 20-Dec-2017
                29-Jul-2020 
 ******************************************
 %NProcShared=16
 Will use up to   16 processors via shared memory.
 ------------------------------------------------------------------
 #n B3LYP/Gen Pseudo=cards EmpiricalDispersion=GD3 Opt=modredundant
 ------------------------------------------------------------------
 1/18=120,19=15,26=3,38=1/1,3;
 2/9=110,12=2,17=6,18=5,40=1/2;
 3/5=7,11=2,16=1,17=8,25=1,30=1,71=1,74=-5,124=31/1,2,3;
 4//1;
 5/5=2,38=5/2;
 6/7=2,8=2,9=2,10=2,28=1/1;
 7//1,2,3,16;
 1/18=20,19=15,26=3/3(2);
 2/9=110/2;
 99//99;
 2/9=110/2;
 3/5=7,6=1,11=2,16=1,17=8,25=1,30=1,71=1,74=-5,82=7,124=31/1,2,3;
 4/5=5,16=3,69=1/1;
 5/5=2,38=5/2;
 7//1,2,3,16;
 1/18=20,19=15,26=3/3(-5);
 2/9=110/2;
 6/7=2,8=2,9=2,10=2,19=2,28=1/1;
 99/9=1/99;
 -----
 Title
 -----
 Symbolic Z-matrix:
 Charge =  0 Multiplicity = 1
 Si                   -0.13817   0.15907  -0.88672 
 O                    -1.00571  -1.21557  -1.00367 
 O                     0.58179   0.25267   0.61501 
 O                    -1.1339    1.45311  -1.10627 
 O                     1.18134   0.19206  -1.82677 
 Si                   -2.69339   1.74371  -0.65114 
 Si                    0.45246   0.31404   2.26262 
 Si                   -2.1548   -2.1204   -0.22503 
 Zr                    3.11747   0.02749  -1.26231 
 O                     4.14555   0.1382   -2.88816 
 O                     3.45948  -1.68649  -0.44122 
 O                     3.81559   1.51341  -0.10817 
 O                    -3.55825  -2.00436  -1.06221 
 O                    -2.28687  -1.57711   1.34004 
 O                    -1.66915  -3.67748  -0.08045 
 O                    -3.00596   3.33412  -0.93077 
 O                    -2.92057   1.21838   0.89035 
 O                    -3.78511   0.84272  -1.51643 
 O                    -0.76335   1.45159   2.52316 
 O                     1.87673   0.80442   2.88257 
 O                     0.04596  -1.13257   2.9006 
 H                     4.52762   2.13808  -0.28639 
 H                     4.68117  -0.11136  -3.64297 
 H                     3.3578   -2.29137   0.29868 
 H                    -3.79221  -1.10963  -1.36628 
 H                    -1.5614   -4.18568  -0.89124 
 H                    -2.80623  -0.75615   1.40497 
 H                     2.4905    1.16992   2.20997 
 H                    -0.78842  -1.49858   2.54684 
 H                    -0.84185   1.77955   3.42764 
 H                    -4.15196   1.2615   -2.30365 
 H                    -2.24428   3.9095   -1.06409 
 H                    -2.21087   1.44549   1.53341 
 
 The following ModRedundant input section has been read:
 A       1       5       9 F                                                   
 

 GradGradGradGradGradGradGradGradGradGradGradGradGradGradGradGradGradGrad
 Berny optimization.
 Initialization pass.
                           ----------------------------
                           !    Initial Parameters    !
                           ! (Angstroms and Degrees)  !
 --------------------------                            --------------------------
 ! Name  Definition              Value          Derivative Info.                !
 --------------------------------------------------------------------------------
 ! R1    R(1,2)                  1.6297         estimate D2E/DX2                !
 ! R2    R(1,3)                  1.668          estimate D2E/DX2                !
 ! R3    R(1,4)                  1.6475         estimate D2E/DX2                !
 ! R4    R(1,5)                  1.6205         estimate D2E/DX2                !
 ! R5    R(2,8)                  1.6569         estimate D2E/DX2                !
 ! R6    R(3,7)                  1.6538         estimate D2E/DX2                !
 ! R7    R(4,6)                  1.6503         estimate D2E/DX2                !
 ! R8    R(5,9)                  2.0234         estimate D2E/DX2                !
 ! R9    R(6,16)                 1.6448         estimate D2E/DX2                !
 ! R10   R(6,17)                 1.6443         estimate D2E/DX2                !
 ! R11   R(6,18)                 1.659          estimate D2E/DX2                !
 ! R12   R(7,19)                 1.6853         estimate D2E/DX2                !
 ! R13   R(7,20)                 1.6289         estimate D2E/DX2                !
 ! R14   R(7,21)                 1.6325         estimate D2E/DX2                !
 ! R15   R(8,13)                 1.6383         estimate D2E/DX2                !
 ! R16   R(8,14)                 1.6619         estimate D2E/DX2                !
 ! R17   R(8,15)                 1.6375         estimate D2E/DX2                !
 ! R18   R(9,10)                 1.9268         estimate D2E/DX2                !
 ! R19   R(9,11)                 1.931          estimate D2E/DX2                !
 ! R20   R(9,12)                 2.0068         estimate D2E/DX2                !
 ! R21   R(10,23)                0.9586         estimate D2E/DX2                !
 ! R22   R(11,24)                0.9611         estimate D2E/DX2                !
 ! R23   R(12,22)                0.9638         estimate D2E/DX2                !
 ! R24   R(13,25)                0.9735         estimate D2E/DX2                !
 ! R25   R(14,27)                0.9736         estimate D2E/DX2                !
 ! R26   R(15,26)                0.9629         estimate D2E/DX2                !
 ! R27   R(16,32)                0.9638         estimate D2E/DX2                !
 ! R28   R(17,33)                0.9843         estimate D2E/DX2                !
 ! R29   R(18,31)                0.9642         estimate D2E/DX2                !
 ! R30   R(19,30)                0.9653         estimate D2E/DX2                !
 ! R31   R(20,28)                0.9812         estimate D2E/DX2                !
 ! R32   R(21,29)                0.9774         estimate D2E/DX2                !
 ! A1    A(2,1,3)              109.9808         estimate D2E/DX2                !
 ! A2    A(2,1,4)              109.3435         estimate D2E/DX2                !
 ! A3    A(2,1,5)              114.1426         estimate D2E/DX2                !
 ! A4    A(3,1,4)              109.6804         estimate D2E/DX2                !
 ! A5    A(3,1,5)               99.7688         estimate D2E/DX2                !
 ! A6    A(4,1,5)              113.5061         estimate D2E/DX2                !
 ! A7    A(1,2,8)              142.7567         estimate D2E/DX2                !
 ! A8    A(1,3,7)              149.9119         estimate D2E/DX2                !
 ! A9    A(1,4,6)              132.2743         estimate D2E/DX2                !
 ! A10   A(1,5,9)              128.0            Frozen                          !
 ! A11   A(4,6,16)             107.6353         estimate D2E/DX2                !
 ! A12   A(4,6,17)             109.4409         estimate D2E/DX2                !
 ! A13   A(4,6,18)             112.4799         estimate D2E/DX2                !
 ! A14   A(16,6,17)            116.2345         estimate D2E/DX2                !
 ! A15   A(16,6,18)            108.144          estimate D2E/DX2                !
 ! A16   A(17,6,18)            102.9751         estimate D2E/DX2                !
 ! A17   A(3,7,19)             103.6202         estimate D2E/DX2                !
 ! A18   A(3,7,20)             108.7814         estimate D2E/DX2                !
 ! A19   A(3,7,21)             112.0818         estimate D2E/DX2                !
 ! A20   A(19,7,20)            111.639          estimate D2E/DX2                !
 ! A21   A(19,7,21)            110.9828         estimate D2E/DX2                !
 ! A22   A(20,7,21)            109.6189         estimate D2E/DX2                !
 ! A23   A(2,8,13)             108.3776         estimate D2E/DX2                !
 ! A24   A(2,8,14)             108.6105         estimate D2E/DX2                !
 ! A25   A(2,8,15)             110.799          estimate D2E/DX2                !
 ! A26   A(13,8,14)            112.954          estimate D2E/DX2                !
 ! A27   A(13,8,15)            111.5028         estimate D2E/DX2                !
 ! A28   A(14,8,15)            104.553          estimate D2E/DX2                !
 ! A29   A(5,9,10)             105.693          estimate D2E/DX2                !
 ! A30   A(5,9,11)             111.1172         estimate D2E/DX2                !
 ! A31   A(5,9,12)             115.6628         estimate D2E/DX2                !
 ! A32   A(10,9,11)            108.3783         estimate D2E/DX2                !
 ! A33   A(10,9,12)            104.8993         estimate D2E/DX2                !
 ! A34   A(11,9,12)            110.5517         estimate D2E/DX2                !
 ! A35   A(9,10,23)            161.3689         estimate D2E/DX2                !
 ! A36   A(9,11,24)            150.1403         estimate D2E/DX2                !
 ! A37   A(9,12,22)            129.0895         estimate D2E/DX2                !
 ! A38   A(8,13,25)            115.5044         estimate D2E/DX2                !
 ! A39   A(8,14,27)            112.3856         estimate D2E/DX2                !
 ! A40   A(8,15,26)            117.432          estimate D2E/DX2                !
 ! A41   A(6,16,32)            116.7803         estimate D2E/DX2                !
 ! A42   A(6,17,33)            116.0494         estimate D2E/DX2                !
 ! A43   A(6,18,31)            116.1247         estimate D2E/DX2                !
 ! A44   A(7,19,30)            115.6491         estimate D2E/DX2                !
 ! A45   A(7,20,28)            113.4661         estimate D2E/DX2                !
 ! A46   A(7,21,29)            113.7637         estimate D2E/DX2                !
 ! D1    D(3,1,2,8)             50.0624         estimate D2E/DX2                !
 ! D2    D(4,1,2,8)            -70.4297         estimate D2E/DX2                !
 ! D3    D(5,1,2,8)            161.2125         estimate D2E/DX2                !
 ! D4    D(2,1,3,7)            -60.1512         estimate D2E/DX2                !
 ! D5    D(4,1,3,7)             60.1373         estimate D2E/DX2                !
 ! D6    D(5,1,3,7)            179.5701         estimate D2E/DX2                !
 ! D7    D(2,1,4,6)             37.0076         estimate D2E/DX2                !
 ! D8    D(3,1,4,6)            -83.6678         estimate D2E/DX2                !
 ! D9    D(5,1,4,6)            165.7183         estimate D2E/DX2                !
 ! D10   D(2,1,5,9)           -106.8939         estimate D2E/DX2                !
 ! D11   D(3,1,5,9)             10.3087         estimate D2E/DX2                !
 ! D12   D(4,1,5,9)            126.8943         estimate D2E/DX2                !
 ! D13   D(1,2,8,13)           108.4711         estimate D2E/DX2                !
 ! D14   D(1,2,8,14)           -14.5876         estimate D2E/DX2                !
 ! D15   D(1,2,8,15)          -128.8886         estimate D2E/DX2                !
 ! D16   D(1,3,7,19)           -46.0619         estimate D2E/DX2                !
 ! D17   D(1,3,7,20)          -164.9541         estimate D2E/DX2                !
 ! D18   D(1,3,7,21)            73.6681         estimate D2E/DX2                !
 ! D19   D(1,4,6,16)           169.4411         estimate D2E/DX2                !
 ! D20   D(1,4,6,17)            42.2775         estimate D2E/DX2                !
 ! D21   D(1,4,6,18)           -71.5346         estimate D2E/DX2                !
 ! D22   D(1,5,9,10)           179.605          estimate D2E/DX2                !
 ! D23   D(1,5,9,11)            62.2448         estimate D2E/DX2                !
 ! D24   D(1,5,9,12)           -64.8453         estimate D2E/DX2                !
 ! D25   D(4,6,16,32)          -16.3726         estimate D2E/DX2                !
 ! D26   D(17,6,16,32)         106.7215         estimate D2E/DX2                !
 ! D27   D(18,6,16,32)        -138.134          estimate D2E/DX2                !
 ! D28   D(4,6,17,33)           44.2632         estimate D2E/DX2                !
 ! D29   D(16,6,17,33)         -77.8848         estimate D2E/DX2                !
 ! D30   D(18,6,17,33)         164.0932         estimate D2E/DX2                !
 ! D31   D(4,6,18,31)          -92.9354         estimate D2E/DX2                !
 ! D32   D(16,6,18,31)          25.7911         estimate D2E/DX2                !
 ! D33   D(17,6,18,31)         149.3552         estimate D2E/DX2                !
 ! D34   D(3,7,19,30)         -166.1155         estimate D2E/DX2                !
 ! D35   D(20,7,19,30)         -49.2104         estimate D2E/DX2                !
 ! D36   D(21,7,19,30)          73.4066         estimate D2E/DX2                !
 ! D37   D(3,7,20,28)           12.9879         estimate D2E/DX2                !
 ! D38   D(19,7,20,28)        -100.7463         estimate D2E/DX2                !
 ! D39   D(21,7,20,28)         135.8599         estimate D2E/DX2                !
 ! D40   D(3,7,21,29)          -57.2164         estimate D2E/DX2                !
 ! D41   D(19,7,21,29)          58.1093         estimate D2E/DX2                !
 ! D42   D(20,7,21,29)        -178.1114         estimate D2E/DX2                !
 ! D43   D(2,8,13,25)          -43.843          estimate D2E/DX2                !
 ! D44   D(14,8,13,25)          76.5485         estimate D2E/DX2                !
 ! D45   D(15,8,13,25)        -166.0547         estimate D2E/DX2                !
 ! D46   D(2,8,14,27)           78.098          estimate D2E/DX2                !
 ! D47   D(13,8,14,27)         -42.1603         estimate D2E/DX2                !
 ! D48   D(15,8,14,27)        -163.5737         estimate D2E/DX2                !
 ! D49   D(2,8,15,26)          -65.1514         estimate D2E/DX2                !
 ! D50   D(13,8,15,26)          55.6545         estimate D2E/DX2                !
 ! D51   D(14,8,15,26)         178.0211         estimate D2E/DX2                !
 ! D52   D(5,9,10,23)         -105.0484         estimate D2E/DX2                !
 ! D53   D(11,9,10,23)          14.14           estimate D2E/DX2                !
 ! D54   D(12,9,10,23)         132.2514         estimate D2E/DX2                !
 ! D55   D(5,9,11,24)          -71.4529         estimate D2E/DX2                !
 ! D56   D(10,9,11,24)         172.8348         estimate D2E/DX2                !
 ! D57   D(12,9,11,24)          58.3838         estimate D2E/DX2                !
 ! D58   D(5,9,12,22)         -118.0996         estimate D2E/DX2                !
 ! D59   D(10,9,12,22)          -2.1004         estimate D2E/DX2                !
 ! D60   D(11,9,12,22)         114.5271         estimate D2E/DX2                !
 --------------------------------------------------------------------------------
 Trust Radius=3.00D-01 FncErr=1.00D-07 GrdErr=1.00D-06 EigMax=2.50D+02 EigMin=1.00D-04
 Number of steps in this run=    148 maximum allowed number of steps=    198.
 GradGradGradGradGradGradGradGradGradGradGradGradGradGradGradGradGradGrad

                          Input orientation:                          
 ---------------------------------------------------------------------
 Center     Atomic      Atomic             Coordinates (Angstroms)
 Number     Number       Type             X           Y           Z
 ---------------------------------------------------------------------
      1         14           0       -0.138170    0.159070   -0.886720
      2          8           0       -1.005710   -1.215570   -1.003670
      3          8           0        0.581790    0.252670    0.615010
      4          8           0       -1.133900    1.453110   -1.106270
      5          8           0        1.181340    0.192060   -1.826770
      6         14           0       -2.693390    1.743710   -0.651140
      7         14           0        0.452460    0.314040    2.262620
      8         14           0       -2.154800   -2.120400   -0.225030
      9         40           0        3.117470    0.027490   -1.262310
     10          8           0        4.145550    0.138200   -2.888160
     11          8           0        3.459480   -1.686490   -0.441220
     12          8           0        3.815590    1.513410   -0.108170
     13          8           0       -3.558250   -2.004360   -1.062210
     14          8           0       -2.286870   -1.577110    1.340040
     15          8           0       -1.669150   -3.677480   -0.080450
     16          8           0       -3.005960    3.334120   -0.930770
     17          8           0       -2.920570    1.218380    0.890350
     18          8           0       -3.785110    0.842720   -1.516430
     19          8           0       -0.763350    1.451590    2.523160
     20          8           0        1.876730    0.804420    2.882570
     21          8           0        0.045960   -1.132570    2.900600
     22          1           0        4.527620    2.138080   -0.286390
     23          1           0        4.681170   -0.111360   -3.642970
     24          1           0        3.357800   -2.291370    0.298680
     25          1           0       -3.792210   -1.109630   -1.366280
     26          1           0       -1.561400   -4.185680   -0.891240
     27          1           0       -2.806230   -0.756150    1.404970
     28          1           0        2.490500    1.169920    2.209970
     29          1           0       -0.788420   -1.498580    2.546840
     30          1           0       -0.841850    1.779550    3.427640
     31          1           0       -4.151960    1.261500   -2.303650
     32          1           0       -2.244280    3.909500   -1.064090
     33          1           0       -2.210870    1.445490    1.533410
 ---------------------------------------------------------------------
                    Distance matrix (angstroms):
                    1          2          3          4          5
     1  Si   0.000000
     2  O    1.629705   0.000000
     3  O    1.668022   2.701113   0.000000
     4  O    1.647489   2.673726   2.710619   0.000000
     5  O    1.620459   2.728022   2.515039   2.733076   0.000000
     6  Si   3.015913   3.424891   3.814858   1.650334   4.336272
     7  Si   3.207990   3.890323   1.653817   3.894026   4.155629
     8  Si   3.114581   1.656926   3.718340   3.819528   4.363814
     9  Zr   3.279874   4.314245   3.163022   4.486746   2.023437
    10  O    4.728261   5.649732   4.998569   5.725095   3.148967
    11  O    4.067880   4.525046   3.627267   5.603438   3.261690
    12  O    4.251187   5.611968   3.545408   5.049484   3.411572
    13  O    4.050700   2.672279   5.004716   4.222974   5.279444
    14  O    3.548196   2.695377   3.478933   4.061528   5.018678
    15  O    4.208692   2.711732   4.582191   5.259444   5.113538
    16  O    4.278680   4.970512   4.975613   2.659625   5.311199
    17  O    3.467256   3.630167   3.643478   2.689569   5.026106
    18  O    3.763520   3.496362   4.894999   2.751313   5.018495
    19  O    3.699830   4.428432   2.624471   3.648297   4.928501
    20  O    4.322481   5.243251   2.668919   5.039398   4.799629
    21  O    4.005750   4.044283   2.725789   4.912516   5.039024
    22  H    5.103575   6.509931   4.465072   5.761440   4.166216
    23  H    5.558425   6.365987   5.921810   6.534329   3.954675
    24  H    4.430760   4.679068   3.778682   6.014182   3.927078
    25  H    3.897638   2.811991   4.991317   3.701601   5.161652
    26  H    4.571920   3.023737   5.153737   5.659059   5.249995
    27  H    3.634283   3.042119   3.622214   3.739498   5.219575
    28  H    4.185835   5.314276   2.651117   4.920764   4.354926
    29  H    3.867811   3.568393   2.945559   4.709251   5.085930
    30  H    4.662062   5.351084   3.502713   4.555019   5.849978
    31  H    4.396994   4.210073   5.651965   3.252556   5.460330
    32  H    4.304984   5.272954   4.917159   2.696029   5.112330
    33  H    3.436276   3.869163   3.172574   2.850935   4.936495
                    6          7          8          9         10
     6  Si   0.000000
     7  Si   4.519992   0.000000
     8  Si   3.924665   4.348874   0.000000
     9  Zr   6.089748   4.428264   5.786727   0.000000
    10  O    7.372450   6.340376   7.203329   1.926809   0.000000
    11  O    7.047563   4.511656   5.635171   1.931033   3.128530
    12  O    6.535646   4.285998   6.990264   2.006831   3.119042
    13  O    3.868461   5.702216   1.638294   6.980952   8.202024
    14  O    3.893315   3.454205   1.661942   6.209175   7.886443
    15  O    5.546535   5.091506   1.637455   6.167279   7.500226
    16  O    1.644779   5.592789   5.565459   6.967074   8.073994
    17  O    1.644316   3.752104   3.602489   6.519976   8.085418
    18  O    1.659025   5.702431   3.620180   6.955199   8.079193
    19  O    3.726469   1.685258   4.716757   5.605230   7.423252
    20  O    5.852809   1.628912   5.870689   4.395803   6.236403
    21  O    5.328403   1.632465   3.948255   5.301861   7.206333
    22  H    7.240964   5.141158   7.924213   2.719473   3.303741
    23  H    8.171687   7.275916   7.902471   2.851663   0.958596
    24  H    7.334912   4.368778   5.540060   2.805630   4.084031
    25  H    3.140124   5.763070   2.237235   7.003394   8.178095
    26  H    6.041251   5.852345   2.249742   6.307164   7.433230
    27  H    3.238768   3.535524   2.223160   6.543600   8.219372
    28  H    5.948773   2.211088   6.191465   3.708769   5.458440
    29  H    4.936439   2.214984   3.152288   5.665200   7.520793
    30  H    4.479501   2.276012   5.502313   6.382912   8.213253
    31  H    2.256267   6.553563   4.443710   7.446595   8.393577
    32  H    2.250083   5.591667   6.088655   6.622511   7.640672
    33  H    2.256993   2.984167   3.976283   6.182069   7.852602
                   11         12         13         14         15
    11  O    0.000000
    12  O    3.236834   0.000000
    13  O    7.052319   8.225474   0.000000
    14  O    6.017091   6.992041   2.751319   0.000000
    15  O    5.513351   7.551720   2.707745   2.609775   0.000000
    16  O    8.200494   7.108108   5.368582   5.458374   7.188368
    17  O    7.135572   6.816153   3.821672   2.901476   5.145673
    18  O    7.748359   7.759102   2.891997   4.032334   5.193412
    19  O    6.038823   5.281516   5.710511   3.590809   5.822939
    20  O    4.444920   3.634057   7.279392   5.038517   6.437405
    21  O    4.809024   5.501274   5.427173   2.841665   4.278414
    22  H    3.973944   0.963827   9.118278   7.930018   8.500771
    23  H    3.771573   3.985463   8.839220   8.690937   8.107732
    24  H    0.961078   3.853758   7.054512   5.784194   5.228314
    25  H    7.333179   8.145048   0.973518   3.131893   3.571358
    26  H    5.626518   7.874316   2.962228   3.508497   0.962942
    27  H    6.597960   7.161634   2.865404   0.973615   3.468947
    28  H    4.015820   2.692141   7.574338   5.579087   6.785720
    29  H    5.196967   6.108852   4.577446   1.925587   3.525045
    30  H    6.744105   5.853591   6.469587   4.208720   6.539900
    31  H    8.372175   8.268340   3.543939   4.981239   5.958229
    32  H    8.014733   6.586126   6.058074   5.990371   7.672065
    33  H    6.772099   6.246408   4.522625   3.029732   5.398410
                   16         17         18         19         20
    16  O    0.000000
    17  O    2.792870   0.000000
    18  O    2.675284   2.584790   0.000000
    19  O    4.528007   2.715521   5.081343   0.000000
    20  O    6.691906   5.210987   7.170014   2.741902   0.000000
    21  O    6.629097   4.285834   6.171630   2.734104   2.665328
    22  H    7.655101   7.596453   8.502496   6.029859   4.341448
    23  H    8.849821   8.950176   8.781249   8.372979   7.161439
    24  H    8.582256   7.217087   8.008640   5.995160   4.295809
    25  H    4.533737   3.357345   1.958128   5.555320   7.338474
    26  H    7.657396   5.850237   5.533584   6.638812   7.138871
    27  H    4.714433   2.043692   3.471191   3.209022   5.152552
    28  H    6.690223   5.569867   7.305915   3.281001   0.981170
    29  H    6.353443   3.830391   5.565249   2.950372   3.538297
    30  H    5.108405   3.327736   5.829602   0.965300   2.939159
    31  H    2.737493   3.423422   0.964194   5.900585   7.965608
    32  H    0.963843   3.394014   3.461778   4.593783   6.496181
    33  H    3.204883   0.984266   3.484693   1.753555   4.351974
                   21         22         23         24         25
    21  O    0.000000
    22  H    6.398385   0.000000
    23  H    8.083709   4.043536   0.000000
    24  H    4.368191   4.618529   4.694716   0.000000
    25  H    5.739193   8.996297   8.830517   7.435808   0.000000
    26  H    5.126708   8.799543   7.946180   5.403966   3.829394
    27  H    3.242466   8.063661   9.053100   6.447949   2.962589
    28  H    3.428441   3.364373   6.379469   4.047934   7.580129
    29  H    0.977394   7.036531   8.375831   4.782664   4.948388
    30  H    3.089728   6.538637   9.169123   6.633238   6.327215
    31  H    7.101994   8.953929   9.038955   8.705831   2.574945
    32  H    6.810759   7.042824   8.413073   8.467067   5.261090
    33  H    3.689022   7.014171   8.758933   6.819000   4.175820
                   26         27         28         29         30
    26  H    0.000000
    27  H    4.310900   0.000000
    28  H    7.397151   5.693252   0.000000
    29  H    4.431523   2.434466   4.240954   0.000000
    30  H    7.399625   3.792065   3.599851   3.394820   0.000000
    31  H    6.194972   4.431226   8.031403   6.516034   6.638742
    32  H    8.125770   5.308515   6.375179   6.663758   5.165185
    33  H    6.165291   2.284331   4.757789   3.423150   2.360915
                   31         32         33
    31  H    0.000000
    32  H    3.491082   0.000000
    33  H    4.304034   3.580428   0.000000
 Stoichiometry    H12O16Si4Zr
 Framework group  C1[X(H12O16Si4Zr)]
 Deg. of freedom    93
 Full point group                 C1      NOp   1
 Largest Abelian subgroup         C1      NOp   1
 Largest concise Abelian subgroup C1      NOp   1
                         Standard orientation:                         
 ---------------------------------------------------------------------
 Center     Atomic      Atomic             Coordinates (Angstroms)
 Number     Number       Type             X           Y           Z
 ---------------------------------------------------------------------
      1         14           0        0.109656   -0.659108   -0.365371
      2          8           0        0.967081    0.040251   -1.561890
      3          8           0       -0.394917    0.497545    0.725435
      4          8           0        1.051164   -1.772187    0.401987
      5          8           0       -1.328279   -1.241465   -0.833444
      6         14           0        2.655671   -1.792255    0.787677
      7         14           0       -0.037861    1.688965    1.815454
      8         14           0        2.223097    1.081922   -1.849553
      9         40           0       -3.164959   -0.489091   -0.439950
     10          8           0       -4.410747   -1.673081   -1.311026
     11          8           0       -3.370829    1.275356   -1.197069
     12          8           0       -3.711249   -0.495247    1.491086
     13          8           0        3.494834    0.215048   -2.410999
     14          8           0        2.566206    1.899964   -0.444158
     15          8           0        1.779024    2.250050   -2.907633
     16          8           0        2.909182   -3.064345    1.799020
     17          8           0        3.101100   -0.313951    1.353349
     18          8           0        3.625700   -1.989418   -0.543688
     19          8           0        1.190158    1.014774    2.752221
     20          8           0       -1.366979    2.003045    2.703234
     21          8           0        0.469047    3.057746    1.084411
     22          1           0       -4.447810   -0.951937    1.912836
     23          1           0       -5.043648   -2.022132   -1.940714
     24          1           0       -3.160546    2.213144   -1.194579
     25          1           0        3.674543   -0.618145   -1.940645
     26          1           0        1.564756    1.976889   -3.805815
     27          1           0        3.080735    1.360941    0.182452
     28          1           0       -2.072382    1.328518    2.602671
     29          1           0        1.249840    2.931627    0.510167
     30          1           0        1.390450    1.478273    3.574933
     31          1           0        3.874741   -2.896140   -0.757006
     32          1           0        2.130244   -3.449686    2.215866
     33          1           0        2.485573    0.106291    1.996234
 ---------------------------------------------------------------------
 Rotational constants (GHZ):           0.2492540           0.1252183           0.1245852
 General basis read from cards:  (5D, 7F)
 ======================================================================================================
                                       Pseudopotential Parameters
 ======================================================================================================
  Center     Atomic      Valence      Angular      Power
  Number     Number     Electrons     Momentum     of R      Exponent        Coefficient   SO-Coeffient
 ======================================================================================================
    1         14
                                   No pseudopotential on this center.
    2          8
                                   No pseudopotential on this center.
    3          8
                                   No pseudopotential on this center.
    4          8
                                   No pseudopotential on this center.
    5          8
                                   No pseudopotential on this center.
    6         14
                                   No pseudopotential on this center.
    7         14
                                   No pseudopotential on this center.
    8         14
                                   No pseudopotential on this center.
    9         40           12
                                      G and up 
                                                     2        1.0000000        0.00000000    0.00000000
                                      S - G
                                                     2        8.6365280      150.24299400    0.00000000
                                                     2        3.7176390       18.78003600    0.00000000
                                      P - G
                                                     2        7.6267280       33.19279100    0.00000000
                                                     2        7.4532070       66.38903900    0.00000000
                                                     2        3.3583890        4.62072600    0.00000000
                                                     2        3.2297380        9.26027000    0.00000000
                                      D - G
                                                     2        5.9380860       13.99338300    0.00000000
                                                     2        5.8255440       20.99588200    0.00000000
                                                     2        2.2050190        2.28516600    0.00000000
                                                     2        2.2062920        3.44126000    0.00000000
                                      F - G
                                                     2        4.8002150       -5.23932000    0.00000000
                                                     2        4.7989920       -6.98742400    0.00000000
   10          8
                                   No pseudopotential on this center.
   11          8
                                   No pseudopotential on this center.
   12          8
                                   No pseudopotential on this center.
   13          8
                                   No pseudopotential on this center.
   14          8
                                   No pseudopotential on this center.
   15          8
                                   No pseudopotential on this center.
   16          8
                                   No pseudopotential on this center.
   17          8
                                   No pseudopotential on this center.
   18          8
                                   No pseudopotential on this center.
   19          8
                                   No pseudopotential on this center.
   20          8
                                   No pseudopotential on this center.
   21          8
                                   No pseudopotential on this center.
   22          1
                                   No pseudopotential on this center.
   23          1
                                   No pseudopotential on this center.
   24          1
                                   No pseudopotential on this center.
   25          1
                                   No pseudopotential on this center.
   26          1
                                   No pseudopotential on this center.
   27          1
                                   No pseudopotential on this center.
   28          1
                                   No pseudopotential on this center.
   29          1
                                   No pseudopotential on this center.
   30          1
                                   No pseudopotential on this center.
   31          1
                                   No pseudopotential on this center.
   32          1
                                   No pseudopotential on this center.
   33          1
                                   No pseudopotential on this center.
 ======================================================================================================
 There are   570 symmetry adapted cartesian basis functions of A   symmetry.
 There are   524 symmetry adapted basis functions of A   symmetry.
   524 basis functions,  1074 primitive gaussians,   570 cartesian basis functions
   104 alpha electrons      104 beta electrons
       nuclear repulsion energy      2978.3794428005 Hartrees.
 NAtoms=   33 NActive=   33 NUniq=   33 SFac= 1.00D+00 NAtFMM=   60 NAOKFM=F Big=F
 Integral buffers will be    131072 words long.
 Raffenetti 2 integral format.
 Two-electron integral symmetry is turned on.
 Nuclear repulsion after empirical dispersion term =     2978.3352551035 Hartrees.
 One-electron integrals computed using PRISM.
 PrsmSu:  requested number of processors reduced to:   4 ShMem   1 Linda.
   1 Symmetry operations used in ECPInt.
 ECPInt:  NShTT=   13203 NPrTT=   78401 LenC2=   11790 LenP2D=   44256.
 LDataN:  DoStor=T MaxTD1= 8 Len=  415
 Number of processors reduced to  13 by ecpmxn.
 NBasis=   524 RedAO= T EigKep=  2.48D-05  NBF=   524
 NBsUse=   524 1.00D-06 EigRej= -1.00D+00 NBFU=   524
 Defaulting to unpruned grid for atomic number  40.
 ExpMin= 1.01D-02 ExpMax= 1.61D+04 ExpMxC= 2.43D+03 IAcc=3 IRadAn=         5 AccDes= 0.00D+00
 Harris functional with IExCor=  402 and IRadAn=       5 diagonalized for initial guess.
 HarFok:  IExCor=  402 AccDes= 0.00D+00 IRadAn=         5 IDoV= 1 UseB2=F ITyADJ=14
 ICtDFT=  3500011 ScaDFX=  1.000000  1.000000  1.000000  1.000000
 Defaulting to unpruned grid for atomic number  40.
 FoFCou: FMM=F IPFlag=           0 FMFlag=      100000 FMFlg1=           0
         NFxFlg=           0 DoJE=T BraDBF=F KetDBF=T FulRan=T
         wScrn=  0.000000 ICntrl=       500 IOpCl=  0 I1Cent=   200000004 NGrid=           0
         NMat0=    1 NMatS0=      1 NMatT0=    0 NMatD0=    1 NMtDS0=    0 NMtDT0=    0
 Petite list used in FoFCou.
 Requested convergence on RMS density matrix=1.00D-08 within 128 cycles.
 Requested convergence on MAX density matrix=1.00D-06.
 Requested convergence on             energy=1.00D-06.
 No special actions if energy rises.
 Defaulting to unpruned grid for atomic number  40.
 Defaulting to unpruned grid for atomic number  40.
 Defaulting to unpruned grid for atomic number  40.
 Defaulting to unpruned grid for atomic number  40.
 Defaulting to unpruned grid for atomic number  40.
 Defaulting to unpruned grid for atomic number  40.
 Defaulting to unpruned grid for atomic number  40.
 Defaulting to unpruned grid for atomic number  40.
 Defaulting to unpruned grid for atomic number  40.
 Defaulting to unpruned grid for atomic number  40.
 Defaulting to unpruned grid for atomic number  40.
 Defaulting to unpruned grid for atomic number  40.
 Defaulting to unpruned grid for atomic number  40.
 Defaulting to unpruned grid for atomic number  40.
 Defaulting to unpruned grid for atomic number  40.
 Defaulting to unpruned grid for atomic number  40.
 SCF Done:  E(RB3LYP) =  -2416.93418865     A.U. after   14 cycles
            NFock= 14  Conv=0.34D-08     -V/T= 2.0185

 **********************************************************************

            Population analysis using the SCF Density.

 **********************************************************************

 Orbital symmetries:
       Occupied  (A) (A) (A) (A) (A) (A) (A) (A) (A) (A) (A) (A)
                 (A) (A) (A) (A) (A) (A) (A) (A) (A) (A) (A) (A)
                 (A) (A) (A) (A) (A) (A) (A) (A) (A) (A) (A) (A)
                 (A) (A) (A) (A) (A) (A) (A) (A) (A) (A) (A) (A)
                 (A) (A) (A) (A) (A) (A) (A) (A) (A) (A) (A) (A)
                 (A) (A) (A) (A) (A) (A) (A) (A) (A) (A) (A) (A)
                 (A) (A) (A) (A) (A) (A) (A) (A) (A) (A) (A) (A)
                 (A) (A) (A) (A) (A) (A) (A) (A) (A) (A) (A) (A)
                 (A) (A) (A) (A) (A) (A) (A) (A)
       Virtual   (A) (A) (A) (A) (A) (A) (A) (A) (A) (A) (A) (A)
                 (A) (A) (A) (A) (A) (A) (A) (A) (A) (A) (A) (A)
                 (A) (A) (A) (A) (A) (A) (A) (A) (A) (A) (A) (A)
                 (A) (A) (A) (A) (A) (A) (A) (A) (A) (A) (A) (A)
                 (A) (A) (A) (A) (A) (A) (A) (A) (A) (A) (A) (A)
                 (A) (A) (A) (A) (A) (A) (A) (A) (A) (A) (A) (A)
                 (A) (A) (A) (A) (A) (A) (A) (A) (A) (A) (A) (A)
                 (A) (A) (A) (A) (A) (A) (A) (A) (A) (A) (A) (A)
                 (A) (A) (A) (A) (A) (A) (A) (A) (A) (A) (A) (A)
                 (A) (A) (A) (A) (A) (A) (A) (A) (A) (A) (A) (A)
                 (A) (A) (A) (A) (A) (A) (A) (A) (A) (A) (A) (A)
                 (A) (A) (A) (A) (A) (A) (A) (A) (A) (A) (A) (A)
                 (A) (A) (A) (A) (A) (A) (A) (A) (A) (A) (A) (A)
                 (A) (A) (A) (A) (A) (A) (A) (A) (A) (A) (A) (A)
                 (A) (A) (A) (A) (A) (A) (A) (A) (A) (A) (A) (A)
                 (A) (A) (A) (A) (A) (A) (A) (A) (A) (A) (A) (A)
                 (A) (A) (A) (A) (A) (A) (A) (A) (A) (A) (A) (A)
                 (A) (A) (A) (A) (A) (A) (A) (A) (A) (A) (A) (A)
                 (A) (A) (A) (A) (A) (A) (A) (A) (A) (A) (A) (A)
                 (A) (A) (A) (A) (A) (A) (A) (A) (A) (A) (A) (A)
                 (A) (A) (A) (A) (A) (A) (A) (A) (A) (A) (A) (A)
                 (A) (A) (A) (A) (A) (A) (A) (A) (A) (A) (A) (A)
                 (A) (A) (A) (A) (A) (A) (A) (A) (A) (A) (A) (A)
                 (A) (A) (A) (A) (A) (A) (A) (A) (A) (A) (A) (A)
                 (A) (A) (A) (A) (A) (A) (A) (A) (A) (A) (A) (A)
                 (A) (A) (A) (A) (A) (A) (A) (A) (A) (A) (A) (A)
                 (A) (A) (A) (A) (A) (A) (A) (A) (A) (A) (A) (A)
                 (A) (A) (A) (A) (A) (A) (A) (A) (A) (A) (A) (A)
                 (A) (A) (A) (A) (A) (A) (A) (A) (A) (A) (A) (A)
                 (A) (A) (A) (A) (A) (A) (A) (A) (A) (A) (A) (A)
                 (A) (A) (A) (A) (A) (A) (A) (A) (A) (A) (A) (A)
                 (A) (A) (A) (A) (A) (A) (A) (A) (A) (A) (A) (A)
                 (A) (A) (A) (A) (A) (A) (A) (A) (A) (A) (A) (A)
                 (A) (A) (A) (A) (A) (A) (A) (A) (A) (A) (A) (A)
                 (A) (A) (A) (A) (A) (A) (A) (A) (A) (A) (A) (A)
 The electronic state is 1-A.
 Alpha  occ. eigenvalues --  -66.23359 -66.22786 -66.22250 -66.21603 -19.18776
 Alpha  occ. eigenvalues --  -19.18764 -19.17973 -19.17024 -19.16946 -19.16825
 Alpha  occ. eigenvalues --  -19.16440 -19.16198 -19.16061 -19.15864 -19.15784
 Alpha  occ. eigenvalues --  -19.15379 -19.15156 -19.14986 -19.14908 -19.14032
 Alpha  occ. eigenvalues --   -5.37422  -5.36627  -5.36305  -5.35652  -3.73416
 Alpha  occ. eigenvalues --   -3.73387  -3.73314  -3.72665  -3.72617  -3.72507
 Alpha  occ. eigenvalues --   -3.72346  -3.72274  -3.72146  -3.71652  -3.71594
 Alpha  occ. eigenvalues --   -3.71565  -2.12589  -1.28974  -1.28590  -1.28108
 Alpha  occ. eigenvalues --   -1.06446  -1.05274  -1.04303  -1.03013  -1.02634
 Alpha  occ. eigenvalues --   -1.02358  -1.01613  -1.00990  -1.00238  -0.99846
 Alpha  occ. eigenvalues --   -0.99560  -0.98997  -0.97607  -0.96684  -0.96254
 Alpha  occ. eigenvalues --   -0.94999  -0.62443  -0.60839  -0.59884  -0.56943
 Alpha  occ. eigenvalues --   -0.55760  -0.55347  -0.53337  -0.52690  -0.52255
 Alpha  occ. eigenvalues --   -0.52045  -0.51166  -0.50378  -0.50357  -0.50167
 Alpha  occ. eigenvalues --   -0.48918  -0.45710  -0.43950  -0.43591  -0.42802
 Alpha  occ. eigenvalues --   -0.42281  -0.42015  -0.41159  -0.40649  -0.39837
 Alpha  occ. eigenvalues --   -0.38913  -0.38600  -0.38221  -0.37509  -0.37216
 Alpha  occ. eigenvalues --   -0.36977  -0.36786  -0.36467  -0.36109  -0.35749
 Alpha  occ. eigenvalues --   -0.35661  -0.35467  -0.34966  -0.34600  -0.34412
 Alpha  occ. eigenvalues --   -0.34123  -0.33665  -0.33297  -0.33002  -0.32646
 Alpha  occ. eigenvalues --   -0.32594  -0.32221  -0.32051  -0.31483
 Alpha virt. eigenvalues --   -0.04194  -0.02941  -0.02284  -0.01781  -0.01639
 Alpha virt. eigenvalues --   -0.01205  -0.00663  -0.00030   0.00556   0.00889
 Alpha virt. eigenvalues --    0.01346   0.01525   0.01562   0.02356   0.02576
 Alpha virt. eigenvalues --    0.03098   0.03127   0.03239   0.03722   0.03788
 Alpha virt. eigenvalues --    0.03926   0.04239   0.04880   0.05623   0.06132
 Alpha virt. eigenvalues --    0.06487   0.06750   0.07244   0.08060   0.08415
 Alpha virt. eigenvalues --    0.08464   0.08837   0.08945   0.09559   0.09776
 Alpha virt. eigenvalues --    0.10283   0.10432   0.10770   0.11245   0.11383
 Alpha virt. eigenvalues --    0.11464   0.11850   0.12372   0.12680   0.12883
 Alpha virt. eigenvalues --    0.13197   0.13854   0.14090   0.14458   0.14900
 Alpha virt. eigenvalues --    0.15038   0.15539   0.15746   0.16042   0.16405
 Alpha virt. eigenvalues --    0.16626   0.17007   0.17356   0.17601   0.18141
 Alpha virt. eigenvalues --    0.18413   0.18709   0.18816   0.19033   0.19661
 Alpha virt. eigenvalues --    0.20020   0.20582   0.21181   0.21385   0.22028
 Alpha virt. eigenvalues --    0.22238   0.22374   0.22631   0.22898   0.23191
 Alpha virt. eigenvalues --    0.23843   0.24000   0.24342   0.24493   0.24625
 Alpha virt. eigenvalues --    0.24924   0.25544   0.25672   0.25981   0.26168
 Alpha virt. eigenvalues --    0.26977   0.27095   0.27389   0.27475   0.27683
 Alpha virt. eigenvalues --    0.28175   0.28225   0.28542   0.28851   0.29209
 Alpha virt. eigenvalues --    0.29546   0.29659   0.29720   0.30324   0.30394
 Alpha virt. eigenvalues --    0.30831   0.31183   0.31517   0.31853   0.31979
 Alpha virt. eigenvalues --    0.32439   0.33104   0.33658   0.33953   0.34443
 Alpha virt. eigenvalues --    0.34548   0.34903   0.35170   0.35873   0.36315
 Alpha virt. eigenvalues --    0.36376   0.37103   0.37396   0.37962   0.38717
 Alpha virt. eigenvalues --    0.39217   0.39507   0.40402   0.40537   0.41186
 Alpha virt. eigenvalues --    0.41729   0.42511   0.43122   0.43614   0.43918
 Alpha virt. eigenvalues --    0.44668   0.44959   0.45276   0.46059   0.46771
 Alpha virt. eigenvalues --    0.47084   0.47682   0.48074   0.48579   0.49932
 Alpha virt. eigenvalues --    0.50327   0.51578   0.51845   0.52388   0.52818
 Alpha virt. eigenvalues --    0.53462   0.54039   0.55483   0.55647   0.56262
 Alpha virt. eigenvalues --    0.57466   0.57807   0.59697   0.60673   0.61350
 Alpha virt. eigenvalues --    0.61633   0.61817   0.62306   0.62658   0.64723
 Alpha virt. eigenvalues --    0.65161   0.66269   0.67105   0.68404   0.68856
 Alpha virt. eigenvalues --    0.69895   0.70611   0.71393   0.71726   0.72186
 Alpha virt. eigenvalues --    0.72757   0.74230   0.74804   0.76294   0.76690
 Alpha virt. eigenvalues --    0.78918   0.80376   0.80927   0.82027   0.83101
 Alpha virt. eigenvalues --    0.83834   0.85312   0.85691   0.89267   0.90807
 Alpha virt. eigenvalues --    0.94064   0.95091   0.95735   0.96229   0.96847
 Alpha virt. eigenvalues --    0.97688   0.99055   0.99658   1.00601   1.01276
 Alpha virt. eigenvalues --    1.02348   1.04091   1.04829   1.05217   1.06076
 Alpha virt. eigenvalues --    1.06776   1.07457   1.08352   1.09363   1.11234
 Alpha virt. eigenvalues --    1.11735   1.13190   1.14476   1.14928   1.16999
 Alpha virt. eigenvalues --    1.18165   1.19294   1.20279   1.20744   1.21179
 Alpha virt. eigenvalues --    1.21299   1.22446   1.22698   1.23018   1.23784
 Alpha virt. eigenvalues --    1.24232   1.24642   1.25254   1.25451   1.25903
 Alpha virt. eigenvalues --    1.26551   1.26713   1.27284   1.28028   1.28265
 Alpha virt. eigenvalues --    1.29162   1.29584   1.29654   1.30098   1.31253
 Alpha virt. eigenvalues --    1.31667   1.31954   1.32842   1.33027   1.33100
 Alpha virt. eigenvalues --    1.33892   1.35086   1.35683   1.36328   1.36548
 Alpha virt. eigenvalues --    1.37647   1.38338   1.38927   1.39936   1.41196
 Alpha virt. eigenvalues --    1.42052   1.42870   1.43801   1.44069   1.45791
 Alpha virt. eigenvalues --    1.47178   1.48942   1.50748   1.52261   1.52977
 Alpha virt. eigenvalues --    1.55017   1.56650   1.57462   1.57881   1.58450
 Alpha virt. eigenvalues --    1.59606   1.59689   1.60846   1.61646   1.62740
 Alpha virt. eigenvalues --    1.63333   1.63957   1.65205   1.66079   1.66312
 Alpha virt. eigenvalues --    1.67925   1.68242   1.68678   1.69480   1.69755
 Alpha virt. eigenvalues --    1.70771   1.71198   1.72163   1.72491   1.73307
 Alpha virt. eigenvalues --    1.73502   1.73909   1.74480   1.75399   1.75745
 Alpha virt. eigenvalues --    1.76255   1.77232   1.77334   1.77922   1.78451
 Alpha virt. eigenvalues --    1.78829   1.79774   1.80266   1.81661   1.81810
 Alpha virt. eigenvalues --    1.82449   1.83164   1.84554   1.85391   1.85921
 Alpha virt. eigenvalues --    1.86298   1.87233   1.87466   1.88881   1.89059
 Alpha virt. eigenvalues --    1.90244   1.91405   1.92154   1.92949   1.93516
 Alpha virt. eigenvalues --    1.94886   1.96379   1.97460   1.97924   1.98411
 Alpha virt. eigenvalues --    1.99363   2.01052   2.01687   2.01811   2.03101
 Alpha virt. eigenvalues --    2.04186   2.04647   2.04921   2.06772   2.07753
 Alpha virt. eigenvalues --    2.08041   2.09124   2.10166   2.12541   2.14107
 Alpha virt. eigenvalues --    2.14826   2.16842   2.17505   2.18806   2.22565
 Alpha virt. eigenvalues --    2.22869   2.24551   2.30590   2.32716   2.35857
 Alpha virt. eigenvalues --    2.37084   2.38436   2.39402   2.39868   2.40359
 Alpha virt. eigenvalues --    2.42282   2.43735   2.44985   2.45344   2.47139
 Alpha virt. eigenvalues --    2.48027   2.48701   2.49682   2.50219   2.52155
 Alpha virt. eigenvalues --    2.53671   2.55464   2.56447   2.59283   2.60105
 Alpha virt. eigenvalues --    2.60660   2.60850   2.61052   2.62126   2.62363
 Alpha virt. eigenvalues --    2.63342   2.64232   2.64971   2.65192   2.66469
 Alpha virt. eigenvalues --    2.67028   2.67824   2.69275   2.70076   2.71219
 Alpha virt. eigenvalues --    2.71734   2.72611   2.73955   2.75233   2.75955
 Alpha virt. eigenvalues --    2.76557   2.77084   2.77456   2.78221   2.79876
 Alpha virt. eigenvalues --    2.80785   2.82599   2.83534   2.84332   2.85273
 Alpha virt. eigenvalues --    2.85824   2.86615   2.89393   2.93344   2.95775
 Alpha virt. eigenvalues --    2.97915   3.03634   3.13680   3.26701   3.45845
 Alpha virt. eigenvalues --    3.46804   3.48377   3.49328   3.49774   3.54132
 Alpha virt. eigenvalues --    3.56747   3.60289   3.61169   3.64003   3.67434
 Alpha virt. eigenvalues --    3.71133   3.98456   4.10810   5.36168  30.79383
          Condensed to atoms (all electrons):
               1          2          3          4          5          6
     1  Si  21.380963  -1.146138  -1.938981  -1.471200  -3.279457   0.017901
     2  O   -1.146138   9.870142   0.472153   0.015348   0.240469  -0.095608
     3  O   -1.938981   0.472153  10.401676   0.372648   0.773492   0.017105
     4  O   -1.471200   0.015348   0.372648   9.695983   0.552569  -0.639533
     5  O   -3.279457   0.240469   0.773492   0.552569  10.207958  -0.052128
     6  Si   0.017901  -0.095608   0.017105  -0.639533  -0.052128  13.595876
     7  Si  -1.109940  -0.166410  -1.455035  -0.010206   0.227146   0.031805
     8  Si  -0.133673  -0.581244  -0.139018   0.070585   0.031951  -0.207160
     9  Zr  -0.514150   0.037288  -0.207046  -0.038315   0.115494  -0.000974
    10  O   -0.022931   0.001040   0.002182   0.001268  -0.007057  -0.000923
    11  O    0.024267  -0.003130  -0.016391  -0.000402  -0.030409  -0.000348
    12  O    0.017662   0.001662   0.000559  -0.004896  -0.021754  -0.000903
    13  O   -0.017624   0.243352  -0.000343  -0.008544  -0.003458   0.065087
    14  O   -0.086632   0.379434   0.121269  -0.021836  -0.008609   0.013560
    15  O    0.005267   0.095057   0.006464   0.001300  -0.004779  -0.012826
    16  O    0.049875   0.013584  -0.005124   0.267606  -0.012124  -0.503783
    17  O   -0.114807  -0.030614   0.047092   0.271005   0.025926  -0.374027
    18  O   -0.094853  -0.005673  -0.010394   0.178651   0.006819  -0.303901
    19  O    0.133790  -0.008574   0.425718   0.013492  -0.009124  -0.008061
    20  O    0.150264  -0.006968   0.328867  -0.004437  -0.022422   0.003593
    21  O   -0.021499   0.049064   0.246683  -0.007169  -0.007566   0.000508
    22  H    0.001449  -0.000001   0.000502   0.000025   0.000112  -0.000092
    23  H   -0.001045   0.000003  -0.000046   0.000001  -0.000614   0.000001
    24  H   -0.006076   0.000268   0.000801   0.000011   0.000176  -0.000023
    25  H   -0.000721  -0.006572  -0.000091   0.002991   0.000090   0.005191
    26  H   -0.008529  -0.016040   0.000323  -0.000077   0.000160  -0.000070
    27  H    0.015948  -0.032198  -0.013891  -0.004566  -0.000468   0.006864
    28  H   -0.006714  -0.000124   0.007240   0.000381   0.000731  -0.000523
    29  H   -0.000766  -0.006493  -0.026740   0.000734  -0.000223  -0.000476
    30  H   -0.003473  -0.000053  -0.006586  -0.000164   0.000176   0.000409
    31  H    0.000276  -0.002564   0.000056  -0.022906   0.000084   0.077778
    32  H    0.001248  -0.000182   0.000247   0.002264   0.000147   0.029833
    33  H   -0.014912   0.001067  -0.006700  -0.012306  -0.000544   0.051590
               7          8          9         10         11         12
     1  Si  -1.109940  -0.133673  -0.514150  -0.022931   0.024267   0.017662
     2  O   -0.166410  -0.581244   0.037288   0.001040  -0.003130   0.001662
     3  O   -1.455035  -0.139018  -0.207046   0.002182  -0.016391   0.000559
     4  O   -0.010206   0.070585  -0.038315   0.001268  -0.000402  -0.004896
     5  O    0.227146   0.031951   0.115494  -0.007057  -0.030409  -0.021754
     6  Si   0.031805  -0.207160  -0.000974  -0.000923  -0.000348  -0.000903
     7  Si  15.428518   0.174088   0.105743  -0.000777  -0.003478  -0.014516
     8  Si   0.174088  12.882266   0.034270  -0.000403   0.000686   0.000395
     9  Zr   0.105743   0.034270  11.187590  -0.027093   0.107185   0.135507
    10  O   -0.000777  -0.000403  -0.027093   8.627482  -0.035139  -0.028705
    11  O   -0.003478   0.000686   0.107185  -0.035139   8.398105  -0.028642
    12  O   -0.014516   0.000395   0.135507  -0.028705  -0.028642   8.395309
    13  O    0.009654  -0.171387  -0.007138  -0.000001  -0.000032  -0.000002
    14  O   -0.131841  -0.490709  -0.015148  -0.000002   0.000124   0.000027
    15  O   -0.015260  -0.095280  -0.007650  -0.000008   0.000309   0.000003
    16  O   -0.004498  -0.014548  -0.007793   0.000001   0.000004   0.000020
    17  O   -0.054071   0.123370  -0.011790  -0.000003  -0.000039  -0.000007
    18  O   -0.002230   0.112974  -0.007066   0.000001  -0.000007  -0.000004
    19  O   -0.657044  -0.030364  -0.030316  -0.000018  -0.000010  -0.000514
    20  O   -0.629242   0.004989  -0.012566  -0.000239  -0.001107   0.001275
    21  O   -0.148855  -0.046152  -0.023483   0.000006   0.000586   0.000683
    22  H    0.000196   0.000019  -0.029227  -0.002799   0.000443   0.273322
    23  H   -0.000009   0.000043  -0.082633   0.338038  -0.000467  -0.000220
    24  H   -0.001568  -0.000511  -0.058290   0.000487   0.316545  -0.001476
    25  H   -0.000840   0.042908  -0.000137  -0.000000   0.000000   0.000000
    26  H    0.000545   0.063230   0.000337   0.000000   0.000010   0.000000
    27  H    0.015403   0.087758   0.001190   0.000000  -0.000001  -0.000000
    28  H    0.014686  -0.000233  -0.000578   0.000077   0.000170   0.014163
    29  H    0.062490   0.022920  -0.000103  -0.000000   0.000051  -0.000006
    30  H    0.050980   0.000035   0.001277   0.000000  -0.000001   0.000003
    31  H    0.000395  -0.003842   0.000214   0.000000   0.000000   0.000000
    32  H   -0.000360   0.000073   0.000485  -0.000000  -0.000000  -0.000001
    33  H    0.020235  -0.003761  -0.000749   0.000000   0.000001   0.000001
              13         14         15         16         17         18
     1  Si  -0.017624  -0.086632   0.005267   0.049875  -0.114807  -0.094853
     2  O    0.243352   0.379434   0.095057   0.013584  -0.030614  -0.005673
     3  O   -0.000343   0.121269   0.006464  -0.005124   0.047092  -0.010394
     4  O   -0.008544  -0.021836   0.001300   0.267606   0.271005   0.178651
     5  O   -0.003458  -0.008609  -0.004779  -0.012124   0.025926   0.006819
     6  Si   0.065087   0.013560  -0.012826  -0.503783  -0.374027  -0.303901
     7  Si   0.009654  -0.131841  -0.015260  -0.004498  -0.054071  -0.002230
     8  Si  -0.171387  -0.490709  -0.095280  -0.014548   0.123370   0.112974
     9  Zr  -0.007138  -0.015148  -0.007650  -0.007793  -0.011790  -0.007066
    10  O   -0.000001  -0.000002  -0.000008   0.000001  -0.000003   0.000001
    11  O   -0.000032   0.000124   0.000309   0.000004  -0.000039  -0.000007
    12  O   -0.000002   0.000027   0.000003   0.000020  -0.000007  -0.000004
    13  O    8.630424   0.015068  -0.078534   0.003353  -0.025540  -0.043383
    14  O    0.015068   8.992308   0.085649   0.005979  -0.061305  -0.026573
    15  O   -0.078534   0.085649   8.627440  -0.000215   0.003494   0.002160
    16  O    0.003353   0.005979  -0.000215   8.947352  -0.124873  -0.073858
    17  O   -0.025540  -0.061305   0.003494  -0.124873   9.000876   0.170807
    18  O   -0.043383  -0.026573   0.002160  -0.073858   0.170807   8.902972
    19  O    0.000410   0.020724   0.000663  -0.001599  -0.023403  -0.000761
    20  O   -0.000015  -0.003788   0.000305  -0.000008   0.001429   0.000032
    21  O   -0.001253   0.044850   0.005273  -0.000059  -0.007935  -0.000012
    22  H   -0.000000  -0.000000   0.000000   0.000000   0.000000  -0.000000
    23  H   -0.000000   0.000000   0.000000   0.000000   0.000000   0.000000
    24  H    0.000000   0.000001  -0.000005   0.000000   0.000000  -0.000000
    25  H    0.227617  -0.008644   0.006857   0.000157   0.000295   0.010647
    26  H   -0.007296   0.003625   0.230977   0.000000  -0.000012   0.000012
    27  H   -0.002923   0.188270   0.001640  -0.000108   0.012570   0.000814
    28  H    0.000000  -0.000017  -0.000002  -0.000003  -0.000010   0.000000
    29  H    0.000564   0.003359   0.000001  -0.000010  -0.000280   0.000027
    30  H   -0.000002  -0.000474  -0.000000  -0.000082   0.000924  -0.000001
    31  H    0.002078  -0.000081  -0.000013  -0.001169   0.001739   0.214567
    32  H   -0.000002  -0.000013   0.000000   0.231144  -0.002803   0.004401
    33  H    0.000676   0.000630  -0.000151   0.000216   0.215474   0.003654
              19         20         21         22         23         24
     1  Si   0.133790   0.150264  -0.021499   0.001449  -0.001045  -0.006076
     2  O   -0.008574  -0.006968   0.049064  -0.000001   0.000003   0.000268
     3  O    0.425718   0.328867   0.246683   0.000502  -0.000046   0.000801
     4  O    0.013492  -0.004437  -0.007169   0.000025   0.000001   0.000011
     5  O   -0.009124  -0.022422  -0.007566   0.000112  -0.000614   0.000176
     6  Si  -0.008061   0.003593   0.000508  -0.000092   0.000001  -0.000023
     7  Si  -0.657044  -0.629242  -0.148855   0.000196  -0.000009  -0.001568
     8  Si  -0.030364   0.004989  -0.046152   0.000019   0.000043  -0.000511
     9  Zr  -0.030316  -0.012566  -0.023483  -0.029227  -0.082633  -0.058290
    10  O   -0.000018  -0.000239   0.000006  -0.002799   0.338038   0.000487
    11  O   -0.000010  -0.001107   0.000586   0.000443  -0.000467   0.316545
    12  O   -0.000514   0.001275   0.000683   0.273322  -0.000220  -0.001476
    13  O    0.000410  -0.000015  -0.001253  -0.000000  -0.000000   0.000000
    14  O    0.020724  -0.003788   0.044850  -0.000000   0.000000   0.000001
    15  O    0.000663   0.000305   0.005273   0.000000   0.000000  -0.000005
    16  O   -0.001599  -0.000008  -0.000059   0.000000   0.000000   0.000000
    17  O   -0.023403   0.001429  -0.007935   0.000000   0.000000   0.000000
    18  O   -0.000761   0.000032  -0.000012  -0.000000   0.000000  -0.000000
    19  O    9.009830   0.032041  -0.039550   0.000002  -0.000000   0.000018
    20  O    0.032041   8.658386   0.063274   0.000446  -0.000001  -0.000069
    21  O   -0.039550   0.063274   8.535514   0.000001   0.000000  -0.000301
    22  H    0.000002   0.000446   0.000001   0.366939  -0.000009  -0.000005
    23  H   -0.000000  -0.000001   0.000000  -0.000009   0.369622   0.000009
    24  H    0.000018  -0.000069  -0.000301  -0.000005   0.000009   0.365011
    25  H   -0.000033   0.000001   0.000001  -0.000000   0.000000  -0.000000
    26  H   -0.000001  -0.000000  -0.000001  -0.000000  -0.000000  -0.000000
    27  H   -0.001517   0.000054  -0.003276   0.000000   0.000000   0.000000
    28  H   -0.006374   0.252034   0.000311  -0.000161   0.000000  -0.000004
    29  H   -0.006239   0.004891   0.212771   0.000000  -0.000000   0.000001
    30  H    0.220633  -0.005825  -0.004125   0.000000  -0.000000   0.000000
    31  H    0.000018  -0.000000  -0.000000   0.000000  -0.000000  -0.000000
    32  H    0.000026  -0.000001   0.000000   0.000000  -0.000000   0.000000
    33  H    0.013020   0.000280   0.002053  -0.000000  -0.000000  -0.000000
              25         26         27         28         29         30
     1  Si  -0.000721  -0.008529   0.015948  -0.006714  -0.000766  -0.003473
     2  O   -0.006572  -0.016040  -0.032198  -0.000124  -0.006493  -0.000053
     3  O   -0.000091   0.000323  -0.013891   0.007240  -0.026740  -0.006586
     4  O    0.002991  -0.000077  -0.004566   0.000381   0.000734  -0.000164
     5  O    0.000090   0.000160  -0.000468   0.000731  -0.000223   0.000176
     6  Si   0.005191  -0.000070   0.006864  -0.000523  -0.000476   0.000409
     7  Si  -0.000840   0.000545   0.015403   0.014686   0.062490   0.050980
     8  Si   0.042908   0.063230   0.087758  -0.000233   0.022920   0.000035
     9  Zr  -0.000137   0.000337   0.001190  -0.000578  -0.000103   0.001277
    10  O   -0.000000   0.000000   0.000000   0.000077  -0.000000   0.000000
    11  O    0.000000   0.000010  -0.000001   0.000170   0.000051  -0.000001
    12  O    0.000000   0.000000  -0.000000   0.014163  -0.000006   0.000003
    13  O    0.227617  -0.007296  -0.002923   0.000000   0.000564  -0.000002
    14  O   -0.008644   0.003625   0.188270  -0.000017   0.003359  -0.000474
    15  O    0.006857   0.230977   0.001640  -0.000002   0.000001  -0.000000
    16  O    0.000157   0.000000  -0.000108  -0.000003  -0.000010  -0.000082
    17  O    0.000295  -0.000012   0.012570  -0.000010  -0.000280   0.000924
    18  O    0.010647   0.000012   0.000814   0.000000   0.000027  -0.000001
    19  O   -0.000033  -0.000001  -0.001517  -0.006374  -0.006239   0.220633
    20  O    0.000001  -0.000000   0.000054   0.252034   0.004891  -0.005825
    21  O    0.000001  -0.000001  -0.003276   0.000311   0.212771  -0.004125
    22  H   -0.000000  -0.000000   0.000000  -0.000161   0.000000   0.000000
    23  H    0.000000  -0.000000   0.000000   0.000000  -0.000000  -0.000000
    24  H   -0.000000  -0.000000   0.000000  -0.000004   0.000001   0.000000
    25  H    0.304383  -0.000012  -0.000081  -0.000000  -0.000001   0.000000
    26  H   -0.000012   0.362143  -0.000055   0.000000   0.000011   0.000000
    27  H   -0.000081  -0.000055   0.309499   0.000000  -0.000443   0.000045
    28  H   -0.000000   0.000000   0.000000   0.314537  -0.000031   0.000070
    29  H   -0.000001   0.000011  -0.000443  -0.000031   0.296887   0.000116
    30  H    0.000000   0.000000   0.000045   0.000070   0.000116   0.335633
    31  H   -0.000299   0.000000   0.000010   0.000000   0.000000   0.000000
    32  H   -0.000001  -0.000000  -0.000000   0.000000  -0.000000   0.000000
    33  H   -0.000004   0.000000  -0.001616  -0.000003   0.000096  -0.000567
              31         32         33
     1  Si   0.000276   0.001248  -0.014912
     2  O   -0.002564  -0.000182   0.001067
     3  O    0.000056   0.000247  -0.006700
     4  O   -0.022906   0.002264  -0.012306
     5  O    0.000084   0.000147  -0.000544
     6  Si   0.077778   0.029833   0.051590
     7  Si   0.000395  -0.000360   0.020235
     8  Si  -0.003842   0.000073  -0.003761
     9  Zr   0.000214   0.000485  -0.000749
    10  O    0.000000  -0.000000   0.000000
    11  O    0.000000  -0.000000   0.000001
    12  O    0.000000  -0.000001   0.000001
    13  O    0.002078  -0.000002   0.000676
    14  O   -0.000081  -0.000013   0.000630
    15  O   -0.000013   0.000000  -0.000151
    16  O   -0.001169   0.231144   0.000216
    17  O    0.001739  -0.002803   0.215474
    18  O    0.214567   0.004401   0.003654
    19  O    0.000018   0.000026   0.013020
    20  O   -0.000000  -0.000001   0.000280
    21  O   -0.000000   0.000000   0.002053
    22  H    0.000000   0.000000  -0.000000
    23  H   -0.000000  -0.000000  -0.000000
    24  H   -0.000000   0.000000  -0.000000
    25  H   -0.000299  -0.000001  -0.000004
    26  H    0.000000  -0.000000   0.000000
    27  H    0.000010  -0.000000  -0.001616
    28  H    0.000000   0.000000  -0.000003
    29  H    0.000000  -0.000000   0.000096
    30  H    0.000000   0.000000  -0.000567
    31  H    0.336288   0.000017  -0.000048
    32  H    0.000017   0.348351   0.000125
    33  H   -0.000048   0.000125   0.278380
 Mulliken charges:
               1
     1  Si   2.195209
     2  O   -1.311345
     3  O   -1.398691
     4  O   -1.200305
     5  O   -0.722761
     6  Si   2.284260
     7  Si   2.264294
     8  Si   2.265722
     9  Zr   1.355663
    10  O   -0.844484
    11  O   -0.728883
    12  O   -0.738946
    13  O   -0.830807
    14  O   -1.019205
    15  O   -0.858134
    16  O   -0.769437
    17  O   -1.043482
    18  O   -1.039823
    19  O   -1.046881
    20  O   -0.815472
    21  O   -0.850341
    22  H    0.388840
    23  H    0.377327
    24  H    0.384999
    25  H    0.416298
    26  H    0.370720
    27  H    0.421079
    28  H    0.410375
    29  H    0.436892
    30  H    0.411052
    31  H    0.397403
    32  H    0.385001
    33  H    0.453864
 Sum of Mulliken charges =  -0.00000
 Mulliken charges with hydrogens summed into heavy atoms:
               1
     1  Si   2.195209
     2  O   -1.311345
     3  O   -1.398691
     4  O   -1.200305
     5  O   -0.722761
     6  Si   2.284260
     7  Si   2.264294
     8  Si   2.265722
     9  Zr   1.355663
    10  O   -0.467157
    11  O   -0.343884
    12  O   -0.350105
    13  O   -0.414510
    14  O   -0.598126
    15  O   -0.487414
    16  O   -0.384436
    17  O   -0.589618
    18  O   -0.642420
    19  O   -0.635829
    20  O   -0.405097
    21  O   -0.413448
 Electronic spatial extent (au):  <R**2>=           8553.2283
 Charge=             -0.0000 electrons
 Dipole moment (field-independent basis, Debye):
    X=             -3.0123    Y=             -4.4166    Z=              1.0964  Tot=              5.4573
 Quadrupole moment (field-independent basis, Debye-Ang):
   XX=           -157.0715   YY=           -164.7870   ZZ=           -150.2507
   XY=             -1.1925   XZ=              6.8913   YZ=              0.0219
 Traceless Quadrupole moment (field-independent basis, Debye-Ang):
   XX=              0.2982   YY=             -7.4173   ZZ=              7.1190
   XY=             -1.1925   XZ=              6.8913   YZ=              0.0219
 Octapole moment (field-independent basis, Debye-Ang**2):
  XXX=           -229.8245  YYY=            -92.5338  ZZZ=             -9.1854  XYY=            -27.9399
  XXY=            -62.3008  XXZ=             -5.9626  XZZ=            -39.9989  YZZ=             -6.7980
  YYZ=            -12.8052  XYZ=             34.1062
 Hexadecapole moment (field-independent basis, Debye-Ang**3):
 XXXX=          -5881.4485 YYYY=          -2487.2203 ZZZZ=          -2060.0787 XXXY=            184.9251
 XXXZ=             98.3269 YYYX=            -78.3118 YYYZ=            -38.0976 ZZZX=            146.5252
 ZZZY=            -30.3694 XXYY=          -1312.7154 XXZZ=          -1399.1585 YYZZ=           -760.4127
 XXYZ=            170.8286 YYXZ=             48.1833 ZZXY=            121.5416
 N-N= 2.978335255103D+03 E-N=-1.166889874579D+04  KE= 2.373010899988D+03
 PrsmSu:  requested number of processors reduced to:   2 ShMem   1 Linda.
 PrsmSu:  requested number of processors reduced to:  10 ShMem   1 Linda.
   1 Symmetry operations used in ECPInt.
 ECPInt:  NShTT=   13203 NPrTT=   78401 LenC2=   11790 LenP2D=   44256.
 LDataN:  DoStor=T MaxTD1= 9 Len=  602
 Number of processors reduced to  15 by ecpmxn.
 Calling FoFJK, ICntrl=      2127 FMM=F ISym2X=0 I1Cent= 0 IOpClX= 0 NMat=1 NMatS=1 NMatT=0.
 CoulSu:  requested number of processors reduced to:  10 ShMem   1 Linda.
 Defaulting to unpruned grid for atomic number  40.
 Defaulting to unpruned grid for atomic number  40.
 Defaulting to unpruned grid for atomic number  40.
 Defaulting to unpruned grid for atomic number  40.
 Defaulting to unpruned grid for atomic number  40.
 Defaulting to unpruned grid for atomic number  40.
 Defaulting to unpruned grid for atomic number  40.
 Defaulting to unpruned grid for atomic number  40.
 Defaulting to unpruned grid for atomic number  40.
 Defaulting to unpruned grid for atomic number  40.
 Defaulting to unpruned grid for atomic number  40.
 Defaulting to unpruned grid for atomic number  40.
 Defaulting to unpruned grid for atomic number  40.
 Defaulting to unpruned grid for atomic number  40.
 Defaulting to unpruned grid for atomic number  40.
 Defaulting to unpruned grid for atomic number  40.
 ***** Axes restored to original set *****
 -------------------------------------------------------------------
 Center     Atomic                   Forces (Hartrees/Bohr)
 Number     Number              X              Y              Z
 -------------------------------------------------------------------
      1       14           0.014792543   -0.000924927    0.010050366
      2        8          -0.000982010   -0.000702972   -0.001128797
      3        8          -0.004820681    0.001975880    0.008327646
      4        8          -0.001032747    0.000654569   -0.001146945
      5        8           0.003630910    0.000360170   -0.004898289
      6       14           0.001103606   -0.000656971   -0.000067061
      7       14          -0.007969205   -0.006384362   -0.016899210
      8       14           0.001072018    0.000677977    0.000085399
      9       40          -0.003321207    0.009129555   -0.002560417
     10        8          -0.000492194   -0.000069278    0.001049243
     11        8          -0.002282519   -0.000400470    0.003737069
     12        8          -0.008242265   -0.008961944   -0.004239124
     13        8          -0.000344421   -0.000065018   -0.000178162
     14        8          -0.000421646   -0.000077190    0.000107838
     15        8          -0.000220079   -0.000324056   -0.000137947
     16        8          -0.000150639    0.000352281   -0.000040168
     17        8          -0.000230649    0.000314722    0.000225131
     18        8          -0.000239537    0.000070223   -0.000126363
     19        8           0.001250457    0.001118865    0.002301350
     20        8           0.013783644    0.006313211   -0.007149102
     21        8           0.000958339    0.001457957    0.002588872
     22        1          -0.000908459    0.000266399    0.001918028
     23        1          -0.000101826   -0.000399350    0.000262113
     24        1           0.000676887   -0.000551726   -0.000950223
     25        1           0.000058037   -0.000030150    0.000050819
     26        1          -0.000018462    0.000087208    0.000060894
     27        1           0.000186523   -0.000054577   -0.000029453
     28        1          -0.005358083   -0.003243573    0.009292572
     29        1           0.000226977    0.000194984   -0.000391426
     30        1          -0.000586728    0.000201777    0.000143342
     31        1           0.000031253   -0.000013381    0.000062565
     32        1          -0.000008840   -0.000110390    0.000011177
     33        1          -0.000038994   -0.000205444   -0.000331736
 -------------------------------------------------------------------
 Cartesian Forces:  Max     0.016899210 RMS     0.003986964

 GradGradGradGradGradGradGradGradGradGradGradGradGradGradGradGradGradGrad
 Berny optimization.
 FormGI is forming the generalized inverse of G from B-inverse, IUseBI=4.
 Internal  Forces:  Max     0.035443548 RMS     0.004292177
 Search for a local minimum.
 Step number   1 out of a maximum of  148
 All quantities printed in internal units (Hartrees-Bohrs-Radians)
 Mixed Optimization -- RFO/linear search
 Second derivative matrix not updated -- first step.
 ITU=  0
     Eigenvalues ---    0.00230   0.00230   0.00230   0.00230   0.03211
     Eigenvalues ---    0.03439   0.03520   0.03558   0.03586   0.03627
     Eigenvalues ---    0.03673   0.03711   0.03747   0.03753   0.03833
     Eigenvalues ---    0.03844   0.03910   0.03946   0.03957   0.04069
     Eigenvalues ---    0.08320   0.10847   0.10956   0.11220   0.11319
     Eigenvalues ---    0.11516   0.11815   0.11842   0.12054   0.12258
     Eigenvalues ---    0.12369   0.12943   0.12968   0.13045   0.13623
     Eigenvalues ---    0.16000   0.16000   0.16000   0.16000   0.16000
     Eigenvalues ---    0.16000   0.16000   0.16000   0.16000   0.16000
     Eigenvalues ---    0.16000   0.16000   0.16997   0.17756   0.19685
     Eigenvalues ---    0.20143   0.20145   0.20307   0.20369   0.20384
     Eigenvalues ---    0.21054   0.21061   0.21241   0.21266   0.21864
     Eigenvalues ---    0.22129   0.25000   0.25000   0.25000   0.37725
     Eigenvalues ---    0.40032   0.40890   0.41311   0.41617   0.42076
     Eigenvalues ---    0.42599   0.43032   0.43450   0.43522   0.44473
     Eigenvalues ---    0.44608   0.45420   0.45878   0.46010   0.47457
     Eigenvalues ---    0.50565   0.51158   0.51894   0.52645   0.52665
     Eigenvalues ---    0.54349   0.54581   0.54655   0.54658   0.54845
     Eigenvalues ---    0.55242   0.557761000.000001000.000001000.00000
     Eigenvalues --- 1000.000001000.000001000.000001000.000001000.00000
     Eigenvalues --- 1000.000001000.000001000.000001000.000001000.00000
     Eigenvalues --- 1000.000001000.000001000.000001000.000001000.00000
     Eigenvalues --- 1000.000001000.000001000.000001000.000001000.00000
     Eigenvalues --- 1000.000001000.000001000.000001000.000001000.00000
     Eigenvalues --- 1000.000001000.000001000.000001000.000001000.00000
     Eigenvalues --- 1000.000001000.000001000.000001000.000001000.00000
     Eigenvalues --- 1000.000001000.000001000.000001000.000001000.00000
     Eigenvalues --- 1000.000001000.000001000.00000
 RFO step:  Lambda=-1.02370329D-02 EMin= 2.30000000D-03
 Linear search not attempted -- first point.
 Iteration  1 RMS(Cart)=  0.19664900 RMS(Int)=  0.02222097
 Iteration  2 RMS(Cart)=  0.11254484 RMS(Int)=  0.00383885
 Iteration  3 RMS(Cart)=  0.00622461 RMS(Int)=  0.00041243
 Iteration  4 RMS(Cart)=  0.00001813 RMS(Int)=  0.00041236
 Iteration  5 RMS(Cart)=  0.00000002 RMS(Int)=  0.00041236
 Iteration  1 RMS(Cart)=  0.00000000 RMS(Int)=  0.00000000
 Variable       Old X    -DE/DX   Delta X   Delta X   Delta X     New X
                                 (Linear)    (Quad)   (Total)
    R1        3.07970   0.00085   0.00000   0.00182   0.00182   3.08152
    R2        3.15210  -0.00260   0.00000  -0.00634  -0.00634   3.14577
    R3        3.11330   0.00085   0.00000   0.00192   0.00192   3.11523
    R4        3.06222  -0.00571   0.00000  -0.01177  -0.01177   3.05046
    R5        3.13114  -0.00036   0.00000  -0.00084  -0.00084   3.13030
    R6        3.12526  -0.01027   0.00000  -0.02382  -0.02382   3.10144
    R7        3.11868  -0.00055   0.00000  -0.00126  -0.00126   3.11742
    R8        3.82374  -0.01418   0.00000  -0.07868  -0.07868   3.74506
    R9        3.10818   0.00027   0.00000   0.00060   0.00060   3.10878
   R10        3.10731  -0.00009   0.00000  -0.00021  -0.00021   3.10709
   R11        3.13510   0.00014   0.00000   0.00033   0.00033   3.13543
   R12        3.18468   0.00079   0.00000   0.00204   0.00204   3.18671
   R13        3.07820   0.00911   0.00000   0.01936   0.01936   3.09756
   R14        3.08491  -0.00090   0.00000  -0.00194  -0.00194   3.08298
   R15        3.09593   0.00030   0.00000   0.00067   0.00067   3.09659
   R16        3.14061   0.00005   0.00000   0.00011   0.00011   3.14073
   R17        3.09434   0.00015   0.00000   0.00033   0.00033   3.09467
   R18        3.64114  -0.00145   0.00000  -0.00626  -0.00626   3.63488
   R19        3.64912   0.00174   0.00000   0.00761   0.00761   3.65673
   R20        3.79236  -0.01095   0.00000  -0.05832  -0.05832   3.73404
   R21        1.81148  -0.00016   0.00000  -0.00028  -0.00028   1.81120
   R22        1.81617  -0.00046   0.00000  -0.00081  -0.00081   1.81536
   R23        1.82137  -0.00085   0.00000  -0.00153  -0.00153   1.81984
   R24        1.83968  -0.00006   0.00000  -0.00011  -0.00011   1.83957
   R25        1.83987  -0.00015   0.00000  -0.00028  -0.00028   1.83959
   R26        1.81970  -0.00010   0.00000  -0.00017  -0.00017   1.81952
   R27        1.82140  -0.00008   0.00000  -0.00014  -0.00014   1.82126
   R28        1.85999  -0.00029   0.00000  -0.00057  -0.00057   1.85943
   R29        1.82206  -0.00007   0.00000  -0.00012  -0.00012   1.82194
   R30        1.82415   0.00025   0.00000   0.00045   0.00045   1.82461
   R31        1.85414  -0.01093   0.00000  -0.02095  -0.02095   1.83320
   R32        1.84701  -0.00012   0.00000  -0.00024  -0.00024   1.84677
    A1        1.91953   0.00322   0.00000   0.02048   0.02047   1.94000
    A2        1.90840  -0.00101   0.00000  -0.00231  -0.00236   1.90604
    A3        1.99216   0.00110   0.00000   0.00477   0.00480   1.99696
    A4        1.91428   0.00038   0.00000   0.00180   0.00169   1.91598
    A5        1.74129  -0.00261   0.00000  -0.01408  -0.01413   1.72717
    A6        1.98106  -0.00094   0.00000  -0.00989  -0.00992   1.97114
    A7        2.49157   0.00018   0.00000   0.00070   0.00070   2.49228
    A8        2.61646   0.01233   0.00000   0.04738   0.04738   2.66384
    A9        2.30862   0.00044   0.00000   0.00170   0.00170   2.31032
   A10        2.23402  -0.03544   0.00000   0.00000   0.00000   2.23402
   A11        1.87859  -0.00014   0.00000  -0.00072  -0.00072   1.87787
   A12        1.91010   0.00021   0.00000   0.00138   0.00138   1.91148
   A13        1.96315   0.00021   0.00000   0.00132   0.00132   1.96447
   A14        2.02867  -0.00007   0.00000  -0.00066  -0.00066   2.02802
   A15        1.88747  -0.00011   0.00000  -0.00098  -0.00098   1.88649
   A16        1.79725  -0.00007   0.00000  -0.00025  -0.00025   1.79700
[...]
 Alpha virt. eigenvalues --    3.48244   3.49012   3.49417   3.50859   3.57663
 Alpha virt. eigenvalues --    3.60499   3.61566   3.63307   3.64299   3.73381
 Alpha virt. eigenvalues --    3.80491   4.07784   4.14548   5.54209  30.87896
          Condensed to atoms (all electrons):
               1          2          3          4          5          6
     1  Si  23.703687  -1.668896  -2.663708  -1.564615  -3.572379   0.042069
     2  O   -1.668896   9.931033   0.672916  -0.023469   0.374034  -0.029764
     3  O   -2.663708   0.672916  10.948250   0.472511   0.856155   0.005453
     4  O   -1.564615  -0.023469   0.472511   9.692298   0.578241  -0.552280
     5  O   -3.572379   0.374034   0.856155   0.578241  10.135541  -0.070012
     6  Si   0.042069  -0.029764   0.005453  -0.552280  -0.070012  13.367682
     7  Si  -1.846686  -0.045327  -1.908449   0.000917   0.278837   0.020417
     8  Si  -0.093946  -0.513696  -0.137141   0.068885   0.013770  -0.191896
     9  Zr  -0.644941   0.057281  -0.219495  -0.040601   0.152170  -0.011858
    10  O   -0.016112   0.001067   0.000971   0.000649  -0.015304  -0.000531
    11  O    0.015431  -0.004627  -0.009131   0.000194  -0.029795  -0.000502
    12  O    0.013708   0.003045   0.001608  -0.008701  -0.022387  -0.002275
    13  O   -0.028047   0.215080  -0.001231  -0.010982  -0.002607   0.065543
    14  O   -0.087677   0.357741   0.106610  -0.021403  -0.000530   0.006888
    15  O    0.009721   0.071769   0.006797   0.003223  -0.004824  -0.013238
    16  O    0.042449   0.010447  -0.000442   0.232362  -0.007381  -0.413668
    17  O   -0.094664  -0.058961   0.058690   0.255843   0.031005  -0.374961
    18  O   -0.088014  -0.012814  -0.020850   0.176875   0.007619  -0.307097
    19  O    0.132202  -0.002941   0.508217   0.014512  -0.011648  -0.011379
    20  O    0.219258  -0.014482   0.398946  -0.005537  -0.023872   0.000573
    21  O    0.031985   0.043580   0.358244  -0.005490  -0.013137   0.004262
    22  H    0.000815  -0.000006   0.001936   0.000214   0.000698  -0.000189
    23  H   -0.001801   0.000007  -0.000018   0.000001  -0.000921  -0.000007
    24  H   -0.005273   0.000373   0.000812  -0.000003   0.000154   0.000006
    25  H   -0.000178  -0.006247   0.000120   0.003083   0.000042   0.005752
    26  H   -0.008802  -0.016792   0.000392  -0.000069   0.000131  -0.000091
    27  H    0.024502  -0.033413  -0.019647  -0.004641  -0.000740   0.003654
    28  H   -0.010541   0.000031  -0.000412   0.000426   0.002299  -0.000337
    29  H   -0.005894  -0.005015  -0.028643   0.000391  -0.000187  -0.000709
    30  H   -0.001645   0.000020  -0.009627  -0.000197   0.000128  -0.000553
    31  H    0.001413  -0.001996   0.000104  -0.022223  -0.000020   0.076529
    32  H    0.000327  -0.000154   0.000440   0.004134   0.000124   0.028417
    33  H   -0.017945   0.002005  -0.009168  -0.013346  -0.000711   0.057541
               7          8          9         10         11         12
     1  Si  -1.846686  -0.093946  -0.644941  -0.016112   0.015431   0.013708
     2  O   -0.045327  -0.513696   0.057281   0.001067  -0.004627   0.003045
     3  O   -1.908449  -0.137141  -0.219495   0.000971  -0.009131   0.001608
     4  O    0.000917   0.068885  -0.040601   0.000649   0.000194  -0.008701
     5  O    0.278837   0.013770   0.152170  -0.015304  -0.029795  -0.022387
     6  Si   0.020417  -0.191896  -0.011858  -0.000531  -0.000502  -0.002275
     7  Si  16.922306   0.123402   0.108387  -0.001512  -0.013709   0.004354
     8  Si   0.123402  12.737544   0.042924  -0.000044   0.001380   0.001197
     9  Zr   0.108387   0.042924  11.310754  -0.003476   0.048130   0.076547
    10  O   -0.001512  -0.000044  -0.003476   8.600439  -0.036765  -0.028569
    11  O   -0.013709   0.001380   0.048130  -0.036765   8.526880  -0.033663
    12  O    0.004354   0.001197   0.076547  -0.028569  -0.033663   8.546256
    13  O    0.010071  -0.122992  -0.005956  -0.000001  -0.000036  -0.000002
    14  O   -0.078499  -0.471076  -0.020443   0.000009   0.000026  -0.000135
    15  O   -0.010097  -0.069807  -0.009839  -0.000001   0.000517   0.000004
    16  O   -0.001994  -0.015318  -0.009078   0.000004   0.000004   0.000043
    17  O   -0.067566   0.117811  -0.009932  -0.000000  -0.000017  -0.000072
    18  O   -0.002110   0.114783  -0.007830   0.000002  -0.000005  -0.000010
    19  O   -0.765670  -0.019058  -0.037754  -0.000029   0.000203  -0.003474
    20  O   -0.797825   0.001442   0.004277  -0.000369  -0.000412  -0.012849
    21  O   -0.395273  -0.043212  -0.030661   0.000015   0.000117  -0.000272
    22  H   -0.002179  -0.000009  -0.036008  -0.002710   0.000439   0.277473
    23  H   -0.000110   0.000037  -0.084041   0.337737  -0.001568  -0.000520
    24  H   -0.000989  -0.000458  -0.075107  -0.000280   0.328266  -0.001408
    25  H   -0.000840   0.043435  -0.000036  -0.000000   0.000000   0.000000
    26  H    0.000495   0.066690   0.000171  -0.000000   0.000008   0.000000
    27  H    0.016904   0.087627   0.001684  -0.000000  -0.000002   0.000001
    28  H    0.021631  -0.000244  -0.001184   0.000241   0.000009   0.033868
    29  H    0.070370   0.020221   0.000587  -0.000000   0.000054   0.000029
    30  H    0.056590  -0.000080   0.001389   0.000000  -0.000001   0.000049
    31  H    0.000334  -0.004503   0.000219  -0.000000   0.000000   0.000000
    32  H   -0.000423   0.000115   0.000698  -0.000000  -0.000000  -0.000003
    33  H    0.024536  -0.002976  -0.000387   0.000000  -0.000001   0.000019
              13         14         15         16         17         18
     1  Si  -0.028047  -0.087677   0.009721   0.042449  -0.094664  -0.088014
     2  O    0.215080   0.357741   0.071769   0.010447  -0.058961  -0.012814
     3  O   -0.001231   0.106610   0.006797  -0.000442   0.058690  -0.020850
     4  O   -0.010982  -0.021403   0.003223   0.232362   0.255843   0.176875
     5  O   -0.002607  -0.000530  -0.004824  -0.007381   0.031005   0.007619
     6  Si   0.065543   0.006888  -0.013238  -0.413668  -0.374961  -0.307097
     7  Si   0.010071  -0.078499  -0.010097  -0.001994  -0.067566  -0.002110
     8  Si  -0.122992  -0.471076  -0.069807  -0.015318   0.117811   0.114783
     9  Zr  -0.005956  -0.020443  -0.009839  -0.009078  -0.009932  -0.007830
    10  O   -0.000001   0.000009  -0.000001   0.000004  -0.000000   0.000002
    11  O   -0.000036   0.000026   0.000517   0.000004  -0.000017  -0.000005
    12  O   -0.000002  -0.000135   0.000004   0.000043  -0.000072  -0.000010
    13  O    8.630508   0.008754  -0.079767   0.003004  -0.024565  -0.043453
    14  O    0.008754   8.994679   0.078630   0.005786  -0.062000  -0.029044
    15  O   -0.079767   0.078630   8.616876  -0.000206   0.003679   0.001911
    16  O    0.003004   0.005786  -0.000206   8.896577  -0.130745  -0.081770
    17  O   -0.024565  -0.062000   0.003679  -0.130745   9.030883   0.185013
    18  O   -0.043453  -0.029044   0.001911  -0.081770   0.185013   8.915890
    19  O    0.000265   0.013756   0.000319  -0.000121  -0.011853  -0.000741
    20  O    0.000010  -0.003942   0.000201  -0.000149   0.001711   0.000090
    21  O   -0.001251   0.044298   0.003799  -0.000002  -0.007099  -0.000107
    22  H    0.000000  -0.000001  -0.000000  -0.000000   0.000001  -0.000000
    23  H    0.000000   0.000000   0.000000   0.000000   0.000000   0.000000
    24  H    0.000000   0.000009  -0.000014   0.000000   0.000000  -0.000000
    25  H    0.227603  -0.008659   0.007302   0.000267  -0.000315   0.010074
    26  H   -0.007107   0.003922   0.229523   0.000000  -0.000016   0.000009
    27  H   -0.002616   0.185251   0.001741  -0.000152   0.015679   0.001254
    28  H    0.000000   0.000034  -0.000002  -0.000003   0.000007   0.000000
    29  H    0.000456   0.004395  -0.000082  -0.000009  -0.000472   0.000028
    30  H   -0.000000  -0.000111   0.000001  -0.000029   0.000335  -0.000004
    31  H    0.002270  -0.000076  -0.000016  -0.001279   0.001630   0.214249
    32  H   -0.000002  -0.000012   0.000000   0.231900  -0.002547   0.004251
    33  H    0.000525  -0.000032  -0.000120   0.001042   0.211073   0.003197
              19         20         21         22         23         24
     1  Si   0.132202   0.219258   0.031985   0.000815  -0.001801  -0.005273
     2  O   -0.002941  -0.014482   0.043580  -0.000006   0.000007   0.000373
     3  O    0.508217   0.398946   0.358244   0.001936  -0.000018   0.000812
     4  O    0.014512  -0.005537  -0.005490   0.000214   0.000001  -0.000003
     5  O   -0.011648  -0.023872  -0.013137   0.000698  -0.000921   0.000154
     6  Si  -0.011379   0.000573   0.004262  -0.000189  -0.000007   0.000006
     7  Si  -0.765670  -0.797825  -0.395273  -0.002179  -0.000110  -0.000989
     8  Si  -0.019058   0.001442  -0.043212  -0.000009   0.000037  -0.000458
     9  Zr  -0.037754   0.004277  -0.030661  -0.036008  -0.084041  -0.075107
    10  O   -0.000029  -0.000369   0.000015  -0.002710   0.337737  -0.000280
    11  O    0.000203  -0.000412   0.000117   0.000439  -0.001568   0.328266
    12  O   -0.003474  -0.012849  -0.000272   0.277473  -0.000520  -0.001408
    13  O    0.000265   0.000010  -0.001251   0.000000   0.000000   0.000000
    14  O    0.013756  -0.003942   0.044298  -0.000001   0.000000   0.000009
    15  O    0.000319   0.000201   0.003799  -0.000000   0.000000  -0.000014
    16  O   -0.000121  -0.000149  -0.000002  -0.000000   0.000000   0.000000
    17  O   -0.011853   0.001711  -0.007099   0.000001   0.000000   0.000000
    18  O   -0.000741   0.000090  -0.000107  -0.000000   0.000000  -0.000000
    19  O    8.951598   0.054276  -0.007877   0.000100  -0.000000   0.000006
    20  O    0.054276   8.704037   0.078834   0.002849  -0.000002   0.000132
    21  O   -0.007877   0.078834   8.605580  -0.000034   0.000000  -0.000128
    22  H    0.000100   0.002849  -0.000034   0.358954  -0.000004  -0.000004
    23  H   -0.000000  -0.000002   0.000000  -0.000004   0.369447   0.000001
    24  H    0.000006   0.000132  -0.000128  -0.000004   0.000001   0.366330
    25  H   -0.000021   0.000001   0.000012  -0.000000  -0.000000  -0.000000
    26  H   -0.000000  -0.000000   0.000005  -0.000000  -0.000000  -0.000000
    27  H   -0.002429   0.000068  -0.005554   0.000000   0.000000   0.000000
    28  H   -0.005257   0.236433  -0.001403  -0.001877   0.000000  -0.000002
    29  H   -0.008243   0.003218   0.212980   0.000000  -0.000000  -0.000000
    30  H    0.223495  -0.007614  -0.004959   0.000000   0.000000   0.000000
    31  H    0.000008  -0.000000  -0.000001   0.000000  -0.000000  -0.000000
    32  H    0.000015  -0.000000   0.000000   0.000000  -0.000000   0.000000
    33  H    0.013598  -0.000081   0.001685  -0.000000   0.000000  -0.000000
              25         26         27         28         29         30
     1  Si  -0.000178  -0.008802   0.024502  -0.010541  -0.005894  -0.001645
     2  O   -0.006247  -0.016792  -0.033413   0.000031  -0.005015   0.000020
     3  O    0.000120   0.000392  -0.019647  -0.000412  -0.028643  -0.009627
     4  O    0.003083  -0.000069  -0.004641   0.000426   0.000391  -0.000197
     5  O    0.000042   0.000131  -0.000740   0.002299  -0.000187   0.000128
     6  Si   0.005752  -0.000091   0.003654  -0.000337  -0.000709  -0.000553
     7  Si  -0.000840   0.000495   0.016904   0.021631   0.070370   0.056590
     8  Si   0.043435   0.066690   0.087627  -0.000244   0.020221  -0.000080
     9  Zr  -0.000036   0.000171   0.001684  -0.001184   0.000587   0.001389
    10  O   -0.000000  -0.000000  -0.000000   0.000241  -0.000000   0.000000
    11  O    0.000000   0.000008  -0.000002   0.000009   0.000054  -0.000001
    12  O    0.000000   0.000000   0.000001   0.033868   0.000029   0.000049
    13  O    0.227603  -0.007107  -0.002616   0.000000   0.000456  -0.000000
    14  O   -0.008659   0.003922   0.185251   0.000034   0.004395  -0.000111
    15  O    0.007302   0.229523   0.001741  -0.000002  -0.000082   0.000001
    16  O    0.000267   0.000000  -0.000152  -0.000003  -0.000009  -0.000029
    17  O   -0.000315  -0.000016   0.015679   0.000007  -0.000472   0.000335
    18  O    0.010074   0.000009   0.001254   0.000000   0.000028  -0.000004
    19  O   -0.000021  -0.000000  -0.002429  -0.005257  -0.008243   0.223495
    20  O    0.000001  -0.000000   0.000068   0.236433   0.003218  -0.007614
    21  O    0.000012   0.000005  -0.005554  -0.001403   0.212980  -0.004959
    22  H   -0.000000  -0.000000   0.000000  -0.001877   0.000000   0.000000
    23  H   -0.000000  -0.000000   0.000000   0.000000  -0.000000   0.000000
    24  H   -0.000000  -0.000000   0.000000  -0.000002  -0.000000   0.000000
    25  H    0.306152  -0.000021  -0.000048  -0.000000  -0.000002   0.000000
    26  H   -0.000021   0.362190  -0.000052   0.000000   0.000008   0.000000
    27  H   -0.000048  -0.000052   0.306143  -0.000000  -0.000094   0.000018
    28  H   -0.000000   0.000000  -0.000000   0.280599  -0.000032   0.000032
    29  H   -0.000002   0.000008  -0.000094  -0.000032   0.303807   0.000130
    30  H    0.000000   0.000000   0.000018   0.000032   0.000130   0.342212
    31  H   -0.000580   0.000000   0.000012   0.000000   0.000000   0.000000
    32  H   -0.000001  -0.000000  -0.000000   0.000000  -0.000000   0.000000
    33  H   -0.000004   0.000000  -0.001252  -0.000002   0.000112  -0.000756
              31         32         33
     1  Si   0.001413   0.000327  -0.017945
     2  O   -0.001996  -0.000154   0.002005
     3  O    0.000104   0.000440  -0.009168
     4  O   -0.022223   0.004134  -0.013346
     5  O   -0.000020   0.000124  -0.000711
     6  Si   0.076529   0.028417   0.057541
     7  Si   0.000334  -0.000423   0.024536
     8  Si  -0.004503   0.000115  -0.002976
     9  Zr   0.000219   0.000698  -0.000387
    10  O   -0.000000  -0.000000   0.000000
    11  O    0.000000  -0.000000  -0.000001
    12  O    0.000000  -0.000003   0.000019
    13  O    0.002270  -0.000002   0.000525
    14  O   -0.000076  -0.000012  -0.000032
    15  O   -0.000016   0.000000  -0.000120
    16  O   -0.001279   0.231900   0.001042
    17  O    0.001630  -0.002547   0.211073
    18  O    0.214249   0.004251   0.003197
    19  O    0.000008   0.000015   0.013598
    20  O   -0.000000  -0.000000  -0.000081
    21  O   -0.000001   0.000000   0.001685
    22  H    0.000000   0.000000  -0.000000
    23  H   -0.000000  -0.000000   0.000000
    24  H   -0.000000   0.000000  -0.000000
    25  H   -0.000580  -0.000001  -0.000004
    26  H    0.000000  -0.000000   0.000000
    27  H    0.000012  -0.000000  -0.001252
    28  H    0.000000   0.000000  -0.000002
    29  H    0.000000  -0.000000   0.000112
    30  H    0.000000   0.000000  -0.000756
    31  H    0.338645   0.000016  -0.000045
    32  H    0.000016   0.349778   0.000140
    33  H   -0.000045   0.000140   0.274670
 Mulliken charges:
               1
     1  Si   2.184198
     2  O   -1.301827
     3  O   -1.371208
     4  O   -1.231202
     5  O   -0.654493
     6  Si   2.296562
     7  Si   2.279709
     8  Si   2.245194
     9  Zr   1.443410
    10  O   -0.835429
    11  O   -0.791425
    12  O   -0.843861
    13  O   -0.833476
    14  O   -1.027147
    15  O   -0.848001
    16  O   -0.761538
    17  O   -1.067573
    18  O   -1.041396
    19  O   -1.024073
    20  O   -0.839221
    21  O   -0.868935
    22  H    0.399541
    23  H    0.381762
    24  H    0.387575
    25  H    0.413110
    26  H    0.369407
    27  H    0.426103
    28  H    0.445685
    29  H    0.432594
    30  H    0.401177
    31  H    0.395309
    32  H    0.382784
    33  H    0.456683
 Sum of Mulliken charges =  -0.00000
 Mulliken charges with hydrogens summed into heavy atoms:
               1
     1  Si   2.184198
     2  O   -1.301827
     3  O   -1.371208
     4  O   -1.231202
     5  O   -0.654493
     6  Si   2.296562
     7  Si   2.279709
     8  Si   2.245194
     9  Zr   1.443410
    10  O   -0.453667
    11  O   -0.403849
    12  O   -0.444320
    13  O   -0.420366
    14  O   -0.601044
    15  O   -0.478594
    16  O   -0.378754
    17  O   -0.610891
    18  O   -0.646087
    19  O   -0.622896
    20  O   -0.393536
    21  O   -0.436341
 Electronic spatial extent (au):  <R**2>=           8396.4728
 Charge=             -0.0000 electrons
 Dipole moment (field-independent basis, Debye):
    X=             -4.1525    Y=              3.2069    Z=              3.4655  Tot=              6.2879
 Quadrupole moment (field-independent basis, Debye-Ang):
   XX=           -153.2022   YY=           -153.7336   ZZ=           -161.7891
   XY=              5.4528   XZ=             -3.3733   YZ=             -6.3336
 Traceless Quadrupole moment (field-independent basis, Debye-Ang):
   XX=              3.0394   YY=              2.5080   ZZ=             -5.5475
   XY=              5.4528   XZ=             -3.3733   YZ=             -6.3336
 Octapole moment (field-independent basis, Debye-Ang**2):
  XXX=           -238.7528  YYY=             -1.5228  ZZZ=             67.1654  XYY=            -75.8589
  XXY=             28.1347  XXZ=             57.4668  XZZ=              2.8113  YZZ=             33.4985
  YYZ=             23.5746  XYZ=             -1.9186
 Hexadecapole moment (field-independent basis, Debye-Ang**3):
 XXXX=          -5638.0221 YYYY=          -2152.1602 ZZZZ=          -2376.1008 XXXY=             16.6227
 XXXZ=           -179.6917 YYYX=            -21.1958 YYYZ=            -85.3763 ZZZX=           -181.0327
 ZZZY=            -93.0045 XXYY=          -1476.6486 XXZZ=          -1155.6233 YYZZ=           -753.2832
 XXYZ=              7.4368 YYXZ=             33.0476 ZZXY=            109.2982
 N-N= 2.996303040475D+03 E-N=-1.170528894018D+04  KE= 2.373151227506D+03
 1\1\GINC-GRA715\FOpt\RB3LYP\Gen\H12O16Si4Zr1\SARASHS\29-Jul-2020\0\\#n
  B3LYP/Gen Pseudo=cards EmpiricalDispersion=GD3 Opt=modredundant\\Titl
 e\\0,1\Si,-0.1555124437,0.0643186476,-0.9355153217\O,-1.0114302139,-1.
 3204874544,-1.077938415\O,0.4110151692,0.2048305651,0.59425183\O,-1.13
 8531598,1.3509809804,-1.2658852761\O,1.1797513253,0.0888156539,-1.8593
 680307\Si,-2.639255029,1.7320744287,-0.6994050719\Si,0.504199432,0.365
 9785473,2.2127950977\Si,-2.1606185937,-2.1436207432,-0.2068423759\Zr,3
 .0743211322,0.0034439294,-1.2719130065\O,4.229241129,0.3732406287,-2.7
 743631531\O,3.4018315745,-1.7406543176,-0.5304939749\O,3.3958378434,1.
 3596167558,0.1507332517\O,-3.5942711171,-2.0102273888,-0.9926973483\O,
 -2.2125736992,-1.5366900401,1.3380245587\O,-1.7360333186,-3.7164701209
 ,-0.0283471913\O,-2.9086144454,3.3237397284,-1.0214826959\O,-2.7808888
 672,1.2786687758,0.8749343229\O,-3.8291382035,0.8445007711,-1.44266039
 76\O,-0.6224791903,1.5811093846,2.5308535445\O,2.0173514037,0.81578697
 42,2.6328496887\O,0.0984331345,-1.0053241253,3.0071538366\H,3.99205973
 67,2.1113155106,0.2368133075\H,4.835803634,0.228301787,-3.5027095162\H
 ,3.3992830926,-2.5203847755,0.0275065287\H,-3.8311122209,-1.113133815,
 -1.2868499984\H,-1.729438395,-4.2614305005,-0.8221292129\H,-2.68712710
 02,-0.6879316892,1.3916474341\H,2.5817549688,1.0648100648,1.8742770161
 \H,-0.7067576394,-1.4254735668,2.6509244656\H,-0.7316710232,1.83169142
 53,3.4562298672\H,-4.2288329038,1.2444313445,-2.2235318714\H,-2.134936
 7687,3.856163182,-1.2377867812\H,-2.0606508052,1.5402894521,1.49284488
 88\\Version=ES64L-G16RevB.01\State=1-A\HF=-2416.9419087\RMSD=4.423e-09
 \RMSF=5.691e-04\Dipole=1.4281345,1.3229982,-1.5264297\Quadrupole=1.601
 9974,1.4876186,-3.089616,-3.3246712,-3.4000591,5.283851\PG=C01 [X(H12O
 16Si4Zr1)]\\@


 ERWIN WITH HIS PSI CAN DO
 CALCULATIONS QUITE A FEW.
 BUT ONE THING HAS NOT BEEN SEEN
 JUST WHAT DOES PSI REALLY MEAN.
 -- WALTER HUCKEL, TRANS. BY FELIX BLOCH
 Job cpu time:       1 days  1 hours 28 minutes 54.3 seconds.
 Elapsed time:       0 days  1 hours 52 minutes 18.4 seconds.
 File lengths (MBytes):  RWF=    167 Int=      0 D2E=      0 Chk=     21 Scr=      1
 Normal termination of Gaussian 16 at Wed Jul 29 21:58:34 2020.
