 Entering Gaussian System, Link 0=g16
 Initial command:
 /opt/software/gaussian/g16.b01/l1.exe "/localscratch/sarashs.36567455.0/Gau-7078.inp" -scrdir="/localscratch/sarashs.36567455.0/"
 Entering Link 1 = /opt/software/gaussian/g16.b01/l1.exe PID=      7079.
  
 Copyright (c) 1988-2017, Gaussian, Inc.  All Rights Reserved.
  
 This is part of the Gaussian(R) 16 program.  It is based on
 the Gaussian(R) 09 system (copyright 2009, Gaussian, Inc.),
 the Gaussian(R) 03 system (copyright 2003, Gaussian, Inc.),
 the Gaussian(R) 98 system (copyright 1998, Gaussian, Inc.),
 the Gaussian(R) 94 system (copyright 1995, Gaussian, Inc.),
 the Gaussian 92(TM) system (copyright 1992, Gaussian, Inc.),
 the Gaussian 90(TM) system (copyright 1990, Gaussian, Inc.),
 the Gaussian 88(TM) system (copyright 1988, Gaussian, Inc.),
 the Gaussian 86(TM) system (copyright 1986, Carnegie Mellon
 University), and the Gaussian 82(TM) system (copyright 1983,
 Carnegie Mellon University). Gaussian is a federally registered
 trademark of Gaussian, Inc.
  
 This software contains proprietary and confidential information,
 including trade secrets, belonging to Gaussian, Inc.
  
 This software is provided under written license and may be
 used, copied, transmitted, or stored only in accord with that
 written license.
  
 The following legend is applicable only to US Government
 contracts under FAR:
  
                    RESTRICTED RIGHTS LEGEND
  
 Use, reproduction and disclosure by the US Government is
 subject to restrictions as set forth in subparagraphs (a)
 and (c) of the Commercial Computer Software - Restricted
 Rights clause in FAR 52.227-19.
  
 Gaussian, Inc.
 340 Quinnipiac St., Bldg. 40, Wallingford CT 06492
  
  
 ---------------------------------------------------------------
 Warning -- This program may not be used in any manner that
 competes with the business of Gaussian, Inc. or will provide
 assistance to any competitor of Gaussian, Inc.  The licensee
 of this program is prohibited from giving any competitor of
 Gaussian, Inc. access to this program.  By using this program,
 the user acknowledges that Gaussian, Inc. is engaged in the
 business of creating and licensing software in the field of
 computational chemistry and represents and warrants to the
 licensee that it is not a competitor of Gaussian, Inc. and that
 it will not use this program in any manner prohibited above.
 ---------------------------------------------------------------
  

 Cite this work as:
 Gaussian 16, Revision B.01,
 M. J. Frisch, G. W. Trucks, H. B. Schlegel, G. E. Scuseria, 
 M. A. Robb, J. R. Cheeseman, G. Scalmani, V. Barone, 
 G. A. Petersson, H. Nakatsuji, X. Li, M. Caricato, A. V. Marenich, 
 J. Bloino, B. G. Janesko, R. Gomperts, B. Mennucci, H. P. Hratchian, 
 J. V. Ortiz, A. F. Izmaylov, J. L. Sonnenberg, D. Williams-Young, 
 F. Ding, F. Lipparini, F. Egidi, J. Goings, B. Peng, A. Petrone, 
 T. Henderson, D. Ranasinghe, V. G. Zakrzewski, J. Gao, N. Rega, 
 G. Zheng, W. Liang, M. Hada, M. Ehara, K. Toyota, R. Fukuda, 
 J. Hasegawa, M. Ishida, T. Nakajima, Y. Honda, O. Kitao, H. Nakai, 
 T. Vreven, K. Throssell, J. A. Montgomery, Jr., J. E. Peralta, 
 F. Ogliaro, M. J. Bearpark, J. J. Heyd, E. N. Brothers, K. N. Kudin, 
 V. N. Staroverov, T. A. Keith, R. Kobayashi, J. Normand, 
 K. Raghavachari, A. P. Rendell, J. C. Burant, S. S. Iyengar, 
 J. Tomasi, M. Cossi, J. M. Millam, M. Klene, C. Adamo, R. Cammi, 
 J. W. Ochterski, R. L. Martin, K. Morokuma, O. Farkas, 
 J. B. Foresman, and D. J. Fox, Gaussian, Inc., Wallingford CT, 2016.
 
 ******************************************
 Gaussian 16:  ES64L-G16RevB.01 20-Dec-2017
                29-Jul-2020 
 ******************************************
 %NProcShared=16
 Will use up to   16 processors via shared memory.
 ------------------------------------------------------------------
 #n B3LYP/Gen Pseudo=cards EmpiricalDispersion=GD3 Opt=modredundant
 ------------------------------------------------------------------
 1/18=120,19=15,26=3,38=1/1,3;
 2/9=110,12=2,17=6,18=5,40=1/2;
 3/5=7,11=2,16=1,17=8,25=1,30=1,71=1,74=-5,124=31/1,2,3;
 4//1;
 5/5=2,38=5/2;
 6/7=2,8=2,9=2,10=2,28=1/1;
 7//1,2,3,16;
 1/18=20,19=15,26=3/3(2);
 2/9=110/2;
 99//99;
 2/9=110/2;
 3/5=7,6=1,11=2,16=1,17=8,25=1,30=1,71=1,74=-5,82=7,124=31/1,2,3;
 4/5=5,16=3,69=1/1;
 5/5=2,38=5/2;
 7//1,2,3,16;
 1/18=20,19=15,26=3/3(-5);
 2/9=110/2;
 6/7=2,8=2,9=2,10=2,19=2,28=1/1;
 99/9=1/99;
 -----
 Title
 -----
 Symbolic Z-matrix:
 Charge =  0 Multiplicity = 1
 Si                   -4.58993   2.06734   0.07578 
 O                    -2.95345   2.16951   0.18141 
 O                    -5.2797    3.50662  -0.3125 
 O                    -5.23182   1.49908   1.48137 
 O                    -4.95485   0.99064  -1.12561 
 Si                   -5.4797    1.94759   3.04681 
 Si                   -5.02815   5.13136  -0.27787 
 Si                   -1.72976   2.8855    1.01414 
 Zr                   -4.70163   0.84184  -2.75078 
 O                    -5.37618  -0.37651  -3.26132 
 O                    -3.24737   0.74657  -3.02931 
 O                    -5.24551   2.02945  -3.45541 
 O                    -0.43835   2.2548    0.65236 
 O                    -1.95904   2.75863   2.47225 
 O                    -1.68507   4.32578   0.66523 
 O                    -6.42023   1.00958   3.70575 
 O                    -6.03556   3.32204   3.09515 
 O                    -4.18903   1.93161   3.77594 
 O                    -6.2426    5.83876  -0.74838 
 O                    -3.88572   5.47052  -1.15987 
 O                    -4.71074   5.54687   1.10997 
 H                    -6.19682   2.10178  -3.28024 
 H                    -5.02455  -1.15641  -2.80414 
 H                    -2.88081  -0.02706  -2.57321 
 H                    -0.4641    1.31209   0.87936 
 H                    -1.53525   4.423    -0.28819 
 H                    -1.99046   1.8198    2.71413 
 H                    -4.08817   5.20073  -2.06933 
 H                    -5.45531   5.32715   1.69156 
 H                    -6.44578   5.56362  -1.65608 
 H                    -3.8149    1.03699   3.75147 
 H                    -7.26718   1.01555   3.23295 
 H                    -6.88135   3.34562   2.62083 
 
 The following ModRedundant input section has been read:
 A       1       5       9 F                                                   
 

 GradGradGradGradGradGradGradGradGradGradGradGradGradGradGradGradGradGrad
 Berny optimization.
 Initialization pass.
                           ----------------------------
                           !    Initial Parameters    !
                           ! (Angstroms and Degrees)  !
 --------------------------                            --------------------------
 ! Name  Definition              Value          Derivative Info.                !
 --------------------------------------------------------------------------------
 ! R1    R(1,2)                  1.6431         estimate D2E/DX2                !
 ! R2    R(1,3)                  1.6426         estimate D2E/DX2                !
 ! R3    R(1,4)                  1.6464         estimate D2E/DX2                !
 ! R4    R(1,5)                  1.654          estimate D2E/DX2                !
 ! R5    R(1,9)                  3.0828         estimate D2E/DX2                !
 ! R6    R(2,8)                  1.6442         estimate D2E/DX2                !
 ! R7    R(3,7)                  1.6445         estimate D2E/DX2                !
 ! R8    R(4,6)                  1.6472         estimate D2E/DX2                !
 ! R9    R(5,9)                  1.6515         estimate D2E/DX2                !
 ! R10   R(6,16)                 1.4828         estimate D2E/DX2                !
 ! R11   R(6,17)                 1.4834         estimate D2E/DX2                !
 ! R12   R(6,18)                 1.4825         estimate D2E/DX2                !
 ! R13   R(7,19)                 1.4821         estimate D2E/DX2                !
 ! R14   R(7,20)                 1.4826         estimate D2E/DX2                !
 ! R15   R(7,21)                 1.4831         estimate D2E/DX2                !
 ! R16   R(8,13)                 1.482          estimate D2E/DX2                !
 ! R17   R(8,14)                 1.4815         estimate D2E/DX2                !
 ! R18   R(8,15)                 1.4826         estimate D2E/DX2                !
 ! R19   R(9,10)                 1.4833         estimate D2E/DX2                !
 ! R20   R(9,11)                 1.4838         estimate D2E/DX2                !
 ! R21   R(9,12)                 1.4842         estimate D2E/DX2                !
 ! R22   R(9,22)                 2.0257         estimate D2E/DX2                !
 ! R23   R(9,23)                 2.0249         estimate D2E/DX2                !
 ! R24   R(9,24)                 2.0253         estimate D2E/DX2                !
 ! R25   R(10,23)                0.97           estimate D2E/DX2                !
 ! R26   R(11,24)                0.97           estimate D2E/DX2                !
 ! R27   R(12,22)                0.97           estimate D2E/DX2                !
 ! R28   R(13,25)                0.97           estimate D2E/DX2                !
 ! R29   R(14,27)                0.97           estimate D2E/DX2                !
 ! R30   R(15,26)                0.97           estimate D2E/DX2                !
 ! R31   R(16,32)                0.97           estimate D2E/DX2                !
 ! R32   R(17,33)                0.97           estimate D2E/DX2                !
 ! R33   R(18,31)                0.97           estimate D2E/DX2                !
 ! R34   R(19,30)                0.97           estimate D2E/DX2                !
 ! R35   R(20,28)                0.97           estimate D2E/DX2                !
 ! R36   R(21,29)                0.97           estimate D2E/DX2                !
 ! A1    A(2,1,3)              112.2692         estimate D2E/DX2                !
 ! A2    A(2,1,4)              110.7867         estimate D2E/DX2                !
 ! A3    A(2,1,5)              107.8734         estimate D2E/DX2                !
 ! A4    A(2,1,9)               96.8778         estimate D2E/DX2                !
 ! A5    A(3,1,4)              109.9088         estimate D2E/DX2                !
 ! A6    A(3,1,5)              107.8211         estimate D2E/DX2                !
 ! A7    A(3,1,9)               96.6829         estimate D2E/DX2                !
 ! A8    A(4,1,5)              108.0237         estimate D2E/DX2                !
 ! A9    A(4,1,9)              129.1562         estimate D2E/DX2                !
 ! A10   A(1,2,8)              143.2148         estimate D2E/DX2                !
 ! A11   A(1,3,7)              142.798          estimate D2E/DX2                !
 ! A12   A(1,4,6)              140.9012         estimate D2E/DX2                !
 ! A13   A(1,5,9)              137.6965         Frozen                          !
 ! A14   A(4,6,16)             110.215          estimate D2E/DX2                !
 ! A15   A(4,6,17)             109.8559         estimate D2E/DX2                !
 ! A16   A(4,6,18)             109.4798         estimate D2E/DX2                !
 ! A17   A(16,6,17)            109.5102         estimate D2E/DX2                !
 ! A18   A(16,6,18)            109.0775         estimate D2E/DX2                !
 ! A19   A(17,6,18)            108.6752         estimate D2E/DX2                !
 ! A20   A(3,7,19)             109.8487         estimate D2E/DX2                !
 ! A21   A(3,7,20)             109.3513         estimate D2E/DX2                !
 ! A22   A(3,7,21)             109.2235         estimate D2E/DX2                !
 ! A23   A(19,7,20)            109.4726         estimate D2E/DX2                !
 ! A24   A(19,7,21)            109.799          estimate D2E/DX2                !
 ! A25   A(20,7,21)            109.1288         estimate D2E/DX2                !
 ! A26   A(2,8,13)             109.8502         estimate D2E/DX2                !
 ! A27   A(2,8,14)             110.2427         estimate D2E/DX2                !
 ! A28   A(2,8,15)             109.0425         estimate D2E/DX2                !
 ! A29   A(13,8,14)            109.7963         estimate D2E/DX2                !
 ! A30   A(13,8,15)            109.2506         estimate D2E/DX2                !
 ! A31   A(14,8,15)            108.6316         estimate D2E/DX2                !
 ! A32   A(1,9,10)             131.193          estimate D2E/DX2                !
 ! A33   A(1,9,11)              99.3304         estimate D2E/DX2                !
 ! A34   A(1,9,12)              97.4975         estimate D2E/DX2                !
 ! A35   A(1,9,22)              91.0965         estimate D2E/DX2                !
 ! A36   A(1,9,23)             114.976          estimate D2E/DX2                !
 ! A37   A(1,9,24)              93.3012         estimate D2E/DX2                !
 ! A38   A(5,9,10)             110.0594         estimate D2E/DX2                !
 ! A39   A(5,9,11)             109.9252         estimate D2E/DX2                !
 ! A40   A(5,9,12)             109.8107         estimate D2E/DX2                !
 ! A41   A(5,9,22)              95.0482         estimate D2E/DX2                !
 ! A42   A(5,9,23)              95.1863         estimate D2E/DX2                !
 ! A43   A(5,9,24)              95.1765         estimate D2E/DX2                !
 ! A44   A(10,9,11)            109.1706         estimate D2E/DX2                !
 ! A45   A(10,9,12)            109.0993         estimate D2E/DX2                !
 ! A46   A(10,9,22)             94.8907         estimate D2E/DX2                !
 ! A47   A(10,9,24)             94.9702         estimate D2E/DX2                !
 ! A48   A(11,9,12)            108.7493         estimate D2E/DX2                !
 ! A49   A(11,9,22)            135.5873         estimate D2E/DX2                !
 ! A50   A(11,9,23)             95.0483         estimate D2E/DX2                !
 ! A51   A(12,9,23)            135.9486         estimate D2E/DX2                !
 ! A52   A(12,9,24)            135.5923         estimate D2E/DX2                !
 ! A53   A(22,9,23)            119.2884         estimate D2E/DX2                !
 ! A54   A(22,9,24)            162.4303         estimate D2E/DX2                !
 ! A55   A(23,9,24)             73.8774         estimate D2E/DX2                !
 ! A56   A(8,13,25)            109.4713         estimate D2E/DX2                !
 ! A57   A(8,14,27)            109.471          estimate D2E/DX2                !
 ! A58   A(8,15,26)            109.4711         estimate D2E/DX2                !
 ! A59   A(6,16,32)            109.4712         estimate D2E/DX2                !
 ! A60   A(6,17,33)            109.471          estimate D2E/DX2                !
 ! A61   A(6,18,31)            109.4711         estimate D2E/DX2                !
 ! A62   A(7,19,30)            109.4704         estimate D2E/DX2                !
 ! A63   A(7,20,28)            109.4706         estimate D2E/DX2                !
 ! A64   A(7,21,29)            109.471          estimate D2E/DX2                !
 ! D1    D(3,1,2,8)             62.8563         estimate D2E/DX2                !
 ! D2    D(4,1,2,8)            -60.4445         estimate D2E/DX2                !
 ! D3    D(5,1,2,8)           -178.4884         estimate D2E/DX2                !
 ! D4    D(9,1,2,8)            162.9966         estimate D2E/DX2                !
 ! D5    D(2,1,3,7)            -22.4867         estimate D2E/DX2                !
 ! D6    D(4,1,3,7)            101.3052         estimate D2E/DX2                !
 ! D7    D(5,1,3,7)           -141.1728         estimate D2E/DX2                !
 ! D8    D(9,1,3,7)           -122.7557         estimate D2E/DX2                !
 ! D9    D(2,1,4,6)             69.8031         estimate D2E/DX2                !
 ! D10   D(3,1,4,6)            -54.8486         estimate D2E/DX2                !
 ! D11   D(5,1,4,6)           -172.2446         estimate D2E/DX2                !
 ! D12   D(9,1,4,6)           -171.8835         estimate D2E/DX2                !
 ! D13   D(2,1,9,10)           126.7782         estimate D2E/DX2                !
 ! D14   D(2,1,9,11)             0.9017         estimate D2E/DX2                !
 ! D15   D(2,1,9,12)          -109.5961         estimate D2E/DX2                !
 ! D16   D(2,1,9,22)          -135.7482         estimate D2E/DX2                !
 ! D17   D(2,1,9,23)           100.9748         estimate D2E/DX2                !
 ! D18   D(2,1,9,24)            27.234          estimate D2E/DX2                !
 ! D19   D(3,1,9,10)          -119.7405         estimate D2E/DX2                !
 ! D20   D(3,1,9,11)           114.3829         estimate D2E/DX2                !
 ! D21   D(3,1,9,12)             3.8852         estimate D2E/DX2                !
 ! D22   D(3,1,9,22)           -22.2669         estimate D2E/DX2                !
 ! D23   D(3,1,9,23)          -145.5439         estimate D2E/DX2                !
 ! D24   D(3,1,9,24)           140.7153         estimate D2E/DX2                !
 ! D25   D(4,1,9,10)             2.7771         estimate D2E/DX2                !
 ! D26   D(4,1,9,11)          -123.0994         estimate D2E/DX2                !
 ! D27   D(4,1,9,12)           126.4029         estimate D2E/DX2                !
 ! D28   D(4,1,9,22)           100.2507         estimate D2E/DX2                !
 ! D29   D(4,1,9,23)           -23.0263         estimate D2E/DX2                !
 ! D30   D(4,1,9,24)           -96.7671         estimate D2E/DX2                !
 ! D31   D(1,2,8,13)           169.4861         estimate D2E/DX2                !
 ! D32   D(1,2,8,14)            48.3611         estimate D2E/DX2                !
 ! D33   D(1,2,8,15)           -70.816          estimate D2E/DX2                !
 ! D34   D(1,3,7,19)          -175.4348         estimate D2E/DX2                !
 ! D35   D(1,3,7,20)            64.4057         estimate D2E/DX2                !
 ! D36   D(1,3,7,21)           -54.9537         estimate D2E/DX2                !
 ! D37   D(1,4,6,16)           167.0985         estimate D2E/DX2                !
 ! D38   D(1,4,6,17)            46.3436         estimate D2E/DX2                !
 ! D39   D(1,4,6,18)           -72.9214         estimate D2E/DX2                !
 ! D40   D(4,6,16,32)          -59.7773         estimate D2E/DX2                !
 ! D41   D(17,6,16,32)          61.1846         estimate D2E/DX2                !
 ! D42   D(18,6,16,32)         179.9999         estimate D2E/DX2                !
 ! D43   D(4,6,17,33)           60.2441         estimate D2E/DX2                !
 ! D44   D(16,6,17,33)         -60.9351         estimate D2E/DX2                !
 ! D45   D(18,6,17,33)        -179.9993         estimate D2E/DX2                !
 ! D46   D(4,6,18,31)          -60.0089         estimate D2E/DX2                !
 ! D47   D(16,6,18,31)          60.6653         estimate D2E/DX2                !
 ! D48   D(17,6,18,31)        -179.9995         estimate D2E/DX2                !
 ! D49   D(3,7,19,30)          -59.8681         estimate D2E/DX2                !
 ! D50   D(20,7,19,30)          60.2178         estimate D2E/DX2                !
 ! D51   D(21,7,19,30)         179.9998         estimate D2E/DX2                !
 ! D52   D(3,7,20,28)           60.5824         estimate D2E/DX2                !
 ! D53   D(19,7,20,28)         -59.8073         estimate D2E/DX2                !
 ! D54   D(21,7,20,28)        -179.9997         estimate D2E/DX2                !
 ! D55   D(3,7,21,29)          -60.5027         estimate D2E/DX2                !
 ! D56   D(19,7,21,29)          60.0088         estimate D2E/DX2                !
 ! D57   D(20,7,21,29)        -179.9998         estimate D2E/DX2                !
 ! D58   D(2,8,13,25)          -60.4292         estimate D2E/DX2                !
 ! D59   D(14,8,13,25)          60.9637         estimate D2E/DX2                !
 ! D60   D(15,8,13,25)         179.9999         estimate D2E/DX2                !
 ! D61   D(2,8,14,27)           60.5726         estimate D2E/DX2                !
 ! D62   D(13,8,14,27)         -60.5846         estimate D2E/DX2                !
 ! D63   D(15,8,14,27)         179.9995         estimate D2E/DX2                !
 ! D64   D(2,8,15,26)          -59.8253         estimate D2E/DX2                !
 ! D65   D(13,8,15,26)          60.2431         estimate D2E/DX2                !
 ! D66   D(14,8,15,26)         179.9998         estimate D2E/DX2                !
 --------------------------------------------------------------------------------
 Trust Radius=3.00D-01 FncErr=1.00D-07 GrdErr=1.00D-06 EigMax=2.50D+02 EigMin=1.00D-04
 Number of steps in this run=    176 maximum allowed number of steps=    198.
 GradGradGradGradGradGradGradGradGradGradGradGradGradGradGradGradGradGrad

                          Input orientation:                          
 ---------------------------------------------------------------------
 Center     Atomic      Atomic             Coordinates (Angstroms)
 Number     Number       Type             X           Y           Z
 ---------------------------------------------------------------------
      1         14           0       -4.589930    2.067340    0.075780
      2          8           0       -2.953450    2.169510    0.181410
      3          8           0       -5.279700    3.506620   -0.312500
      4          8           0       -5.231820    1.499080    1.481370
      5          8           0       -4.954850    0.990640   -1.125610
      6         14           0       -5.479700    1.947590    3.046810
      7         14           0       -5.028150    5.131360   -0.277870
      8         14           0       -1.729760    2.885500    1.014140
      9         40           0       -4.701630    0.841840   -2.750780
     10          8           0       -5.376180   -0.376510   -3.261320
     11          8           0       -3.247370    0.746570   -3.029310
     12          8           0       -5.245510    2.029450   -3.455410
     13          8           0       -0.438350    2.254800    0.652360
     14          8           0       -1.959040    2.758630    2.472250
     15          8           0       -1.685070    4.325780    0.665230
     16          8           0       -6.420230    1.009580    3.705750
     17          8           0       -6.035560    3.322040    3.095150
     18          8           0       -4.189030    1.931610    3.775940
     19          8           0       -6.242600    5.838760   -0.748380
     20          8           0       -3.885720    5.470520   -1.159870
     21          8           0       -4.710740    5.546870    1.109970
     22          1           0       -6.196820    2.101780   -3.280240
     23          1           0       -5.024550   -1.156410   -2.804140
     24          1           0       -2.880810   -0.027060   -2.573210
     25          1           0       -0.464100    1.312090    0.879360
     26          1           0       -1.535250    4.423000   -0.288190
     27          1           0       -1.990460    1.819800    2.714130
     28          1           0       -4.088170    5.200730   -2.069330
     29          1           0       -5.455310    5.327150    1.691560
     30          1           0       -6.445780    5.563620   -1.656080
     31          1           0       -3.814900    1.036990    3.751470
     32          1           0       -7.267180    1.015550    3.232950
     33          1           0       -6.881350    3.345620    2.620830
 ---------------------------------------------------------------------
                    Distance matrix (angstroms):
                    1          2          3          4          5
     1  Si   0.000000
     2  O    1.643065   0.000000
     3  O    1.642581   2.728232   0.000000
     4  O    1.646398   2.707460   2.692671   0.000000
     5  O    1.654022   2.665265   2.663988   2.670500   0.000000
     6  Si   3.103716   3.826448   3.708846   1.647182   4.312808
     7  Si   3.115337   3.645254   1.644462   4.041023   4.227245
     8  Si   3.119371   1.644232   3.840291   3.795377   4.309319
     9  Zr   3.082818   3.662865   3.657927   4.315572   1.651496
    10  O    4.210324   4.919779   4.876838   5.102135   2.570579
    11  O    3.631595   3.524184   4.373705   4.985032   2.568878
    12  O    3.591730   4.301118   3.472907   4.965207   2.567407
    13  O    4.195617   2.560234   5.092806   4.922979   5.015780
    14  O    3.625263   2.565904   4.397852   3.644091   5.004524
    15  O    3.726421   2.548013   3.814229   4.608227   5.002172
    16  O    4.200659   5.077891   4.866452   2.569007   5.048736
    17  O    3.575012   4.395180   3.495350   2.563877   4.941475
    18  O    3.724289   3.808399   4.515037   2.557253   5.049465
    19  O    4.199305   5.014620   2.560477   4.982598   5.030395
    20  O    3.688411   3.683046   2.553061   4.955852   4.605816
    21  O    3.631979   3.918782   2.551422   4.098056   5.081008
    22  H    3.721042   4.744160   3.409130   4.895651   2.723885
    23  H    4.344583   4.925922   5.293130   5.045809   2.726196
    24  H    3.784805   3.523936   4.832430   4.929094   2.726335
    25  H    4.270669   2.723815   5.424619   4.809214   4.928496
    26  H    3.874620   2.703707   3.855029   5.034410   4.916913
    27  H    3.712063   2.732090   4.777547   3.482668   4.921252
    28  H    3.830325   3.942298   2.715917   5.255247   4.400750
    29  H    3.739785   4.302389   2.713195   3.840345   5.195404
    30  H    4.320589   5.205067   2.719595   5.276152   4.839051
    31  H    3.895252   3.843179   4.975999   2.715611   5.008747
    32  H    4.271025   5.408492   4.767150   2.728466   4.934018
    33  H    3.655391   4.770996   3.345987   2.725624   4.826297
                    6          7          8          9         10
     6  Si   0.000000
     7  Si   4.625342   0.000000
     8  Si   4.367319   4.194348   0.000000
     9  Zr   5.953161   4.962044   5.213749   0.000000
    10  O    6.723441   6.273654   6.497434   1.483255   0.000000
    11  O    6.583690   5.474302   4.819507   1.483755   2.418051
    12  O    6.506951   4.445880   5.750669   1.484158   2.417310
    13  O    5.589542   5.496016   1.482028   5.635013   6.828093
    14  O    3.658272   4.755254   1.481469   6.202897   7.374264
    15  O    5.072172   3.565751   1.482613   5.736427   7.152176
    16  O    1.482788   5.898829   5.724015   6.683450   7.179927
    17  O    1.483385   3.958002   4.802196   6.488887   7.383682
    18  O    1.482469   5.232198   3.819091   6.636899   7.500651
    19  O    5.488778   1.482121   5.673971   5.599411   6.759817
    20  O    5.713840   1.482599   4.007095   4.961994   6.389470
    21  O    4.159022   1.483070   3.997289   6.086278   7.391713
    22  H    6.369427   4.422485   6.245842   2.025678   2.610695
    23  H    6.638945   6.776290   6.463122   2.024877   0.970001
    24  H    6.499084   6.040609   4.762038   2.025316   2.611988
    25  H    5.500722   6.062719   2.023779   5.599617   6.642675
    26  H    5.727876   3.564019   2.024303   5.377269   6.828436
    27  H    3.507392   5.398709   2.023276   6.178357   7.210609
    28  H    6.220463   2.024279   4.519975   4.454282   5.846830
    29  H    3.641253   2.024711   4.505583   6.357706   7.554404
    30  H    6.010504   2.023854   6.045101   5.151275   6.245477
    31  H    2.024178   5.871237   3.906120   6.565335   7.322213
    32  H    2.024458   5.854827   6.251628   6.512852   6.905741
    33  H    2.024986   3.876297   5.415906   6.314609   7.121761
                   11         12         13         14         15
    11  O    0.000000
    12  O    2.412448   0.000000
    13  O    4.870323   6.327191   0.000000
    14  O    5.997945   6.816872   2.424529   0.000000
    15  O    5.375979   5.910122   2.417320   2.407559   0.000000
    16  O    7.449648   7.328186   6.830567   4.948021   6.531744
    17  O    7.205280   6.723452   6.199595   4.162145   5.083185
    18  O    6.971547   7.308772   4.891708   2.712273   4.656005
    19  O    6.332807   4.778393   6.963918   6.181306   5.005845
    20  O    5.120352   4.354250   5.050682   4.925316   3.079656
    21  O    6.505226   5.787998   5.412989   4.147522   3.292952
    22  H    3.255582   0.970004   6.974864   7.175052   6.392871
    23  H    2.613504   3.259245   6.679594   7.250185   7.296784
    24  H    0.969998   3.255659   4.645083   5.836642   5.555583
    25  H    4.831574   6.493591   0.969997   2.620042   3.258673
    26  H    4.895021   5.433819   2.605555   3.251116   0.970004
    27  H    5.976516   6.978720   2.617091   0.969997   3.251337
    28  H    4.633362   3.649338   5.422849   5.578799   3.744095
    29  H    6.938539   6.116383   5.974040   4.408024   4.033709
    30  H    5.943026   4.143500   7.236463   6.711327   5.439218
    31  H    6.810684   7.414226   4.742218   2.836312   4.987704
    32  H    7.446282   7.060404   7.404600   5.638559   6.979309
    33  H    7.203121   6.428761   6.824735   4.959412   5.637944
                   16         17         18         19         20
    16  O    0.000000
    17  O    2.422452   0.000000
    18  O    2.415227   2.409656   0.000000
    19  O    6.572047   4.598855   6.320794   0.000000
    20  O    7.070925   5.229051   6.080962   2.420704   0.000000
    21  O    5.499766   3.262814   4.522132   2.425955   2.416332
    22  H    7.074381   6.493122   7.338246   4.514137   4.602778
    23  H    7.001293   7.475311   7.316517   7.392036   6.922193
    24  H    7.281995   7.300632   6.771967   7.002819   5.764613
    25  H    6.599657   6.323827   4.759105   7.518733   5.758340
    26  H    7.173982   5.736889   5.455889   4.937134   2.716953
    27  H    4.611142   4.331828   2.444106   6.798655   5.650455
    28  H    7.507049   5.830408   6.698097   2.606446   0.969995
    29  H    4.861013   2.515397   4.180646   2.614360   3.258039
    30  H    7.034853   5.269454   6.913122   0.970002   2.609368
    31  H    2.605875   3.253235   0.970009   7.014226   6.616832
    32  H    0.970000   2.618353   3.257148   6.337516   7.111814
    33  H    2.616633   0.969998   3.253043   4.239732   5.270929
                   21         22         23         24         25
    21  O    0.000000
    22  H    5.775034   0.000000
    23  H    7.768700   3.495238   0.000000
    24  H    6.926987   4.003470   2.434005   0.000000
    25  H    6.001708   7.126708   6.360768   4.421996   0.000000
    26  H    3.647146   6.005885   7.045214   5.180240   3.491174
    27  H    4.885110   7.328400   6.965259   5.670942   2.440067
    28  H    3.258121   3.939061   6.467610   5.389007   6.078666
    29  H    0.970004   5.972574   7.901482   7.313267   6.456977
    30  H    3.265222   3.831999   6.963960   6.693717   7.764307
    31  H    5.302742   7.500151   7.017854   6.481227   4.421827
    32  H    5.619189   6.689336   6.796562   7.351107   7.204805
    33  H    3.440893   6.069460   7.290150   7.372743   6.953349
                   26         27         28         29         30
    26  H    0.000000
    27  H    3.999724   0.000000
    28  H    3.208539   6.221942   0.000000
    29  H    4.483723   5.035111   4.003667   0.000000
    30  H    5.223547   7.277692   2.420907   3.499092   0.000000
    31  H    5.742884   2.239966   7.161922   5.033850   7.526852
    32  H    7.540833   5.362813   7.465655   4.924292   6.727723
    33  H    6.180933   5.124221   5.765491   2.612201   4.837479
                   31         32         33
    31  H    0.000000
    32  H    3.491069   0.000000
    33  H    4.001404   2.439832   0.000000
 Stoichiometry    H12O16Si4Zr
 Framework group  C1[X(H12O16Si4Zr)]
 Deg. of freedom    93
 Full point group                 C1      NOp   1
 Largest Abelian subgroup         C1      NOp   1
 Largest concise Abelian subgroup C1      NOp   1
                         Standard orientation:                         
 ---------------------------------------------------------------------
 Center     Atomic      Atomic             Coordinates (Angstroms)
 Number     Number       Type             X           Y           Z
 ---------------------------------------------------------------------
      1         14           0        0.002451   -0.463935   -0.166905
      2          8           0       -0.246262   -0.015426    1.394070
      3          8           0       -0.119760    0.802717   -1.205524
      4          8           0       -1.047179   -1.653420   -0.607392
      5          8           0        1.538007   -1.067543   -0.283152
      6         14           0       -2.646615   -1.896770   -0.916893
      7         14           0       -0.767456    2.305486   -1.368102
      8         14           0       -1.366579    0.611014    2.421669
      9         40           0        3.082108   -0.532229   -0.045183
     10          8           0        4.050684   -1.595801   -0.406736
     11          8           0        3.274874   -0.161123    1.378422
     12          8           0        3.335783    0.662625   -0.888214
     13          8           0       -0.888231    0.494353    3.819518
     14          8           0       -2.655945   -0.102913    2.271357
     15          8           0       -1.576447    2.041800    2.094640
     16          8           0       -2.847182   -3.210715   -1.574148
     17          8           0       -3.159042   -0.818851   -1.797768
     18          8           0       -3.406013   -1.870787    0.356038
     19          8           0       -0.507682    2.820428   -2.733399
     20          8           0       -0.153550    3.215489   -0.371551
     21          8           0       -2.229163    2.235904   -1.127132
     22          1           0        3.212518    0.431453   -1.822169
     23          1           0        3.889624   -2.379725    0.141372
     24          1           0        3.111474   -0.935413    1.939379
     25          1           0       -0.749835   -0.440781    4.036920
     26          1           0       -0.738608    2.521364    2.189256
     27          1           0       -2.532382   -1.041507    2.482706
     28          1           0        0.803013    3.264666   -0.524714
     29          1           0       -2.636021    1.641480   -1.776774
     30          1           0        0.449270    2.863980   -2.885880
     31          1           0       -3.079815   -2.572024    0.941511
     32          1           0       -2.352445   -3.233924   -2.408172
     33          1           0       -2.669460   -0.825444   -2.635122
 ---------------------------------------------------------------------
 Rotational constants (GHZ):           0.2328894           0.1399304           0.1357383
 General basis read from cards:  (5D, 7F)
 ======================================================================================================
                                       Pseudopotential Parameters
 ======================================================================================================
  Center     Atomic      Valence      Angular      Power
  Number     Number     Electrons     Momentum     of R      Exponent        Coefficient   SO-Coeffient
 ======================================================================================================
    1         14
                                   No pseudopotential on this center.
    2          8
                                   No pseudopotential on this center.
    3          8
                                   No pseudopotential on this center.
    4          8
                                   No pseudopotential on this center.
    5          8
                                   No pseudopotential on this center.
    6         14
                                   No pseudopotential on this center.
    7         14
                                   No pseudopotential on this center.
    8         14
                                   No pseudopotential on this center.
    9         40           12
                                      G and up 
                                                     2        1.0000000        0.00000000    0.00000000
                                      S - G
                                                     2        8.6365280      150.24299400    0.00000000
                                                     2        3.7176390       18.78003600    0.00000000
                                      P - G
                                                     2        7.6267280       33.19279100    0.00000000
                                                     2        7.4532070       66.38903900    0.00000000
                                                     2        3.3583890        4.62072600    0.00000000
                                                     2        3.2297380        9.26027000    0.00000000
                                      D - G
                                                     2        5.9380860       13.99338300    0.00000000
                                                     2        5.8255440       20.99588200    0.00000000
                                                     2        2.2050190        2.28516600    0.00000000
                                                     2        2.2062920        3.44126000    0.00000000
                                      F - G
                                                     2        4.8002150       -5.23932000    0.00000000
                                                     2        4.7989920       -6.98742400    0.00000000
   10          8
                                   No pseudopotential on this center.
   11          8
                                   No pseudopotential on this center.
   12          8
                                   No pseudopotential on this center.
   13          8
                                   No pseudopotential on this center.
   14          8
                                   No pseudopotential on this center.
   15          8
                                   No pseudopotential on this center.
   16          8
                                   No pseudopotential on this center.
   17          8
                                   No pseudopotential on this center.
   18          8
                                   No pseudopotential on this center.
   19          8
                                   No pseudopotential on this center.
   20          8
                                   No pseudopotential on this center.
   21          8
                                   No pseudopotential on this center.
   22          1
                                   No pseudopotential on this center.
   23          1
                                   No pseudopotential on this center.
   24          1
                                   No pseudopotential on this center.
   25          1
                                   No pseudopotential on this center.
   26          1
                                   No pseudopotential on this center.
   27          1
                                   No pseudopotential on this center.
   28          1
                                   No pseudopotential on this center.
   29          1
                                   No pseudopotential on this center.
   30          1
                                   No pseudopotential on this center.
   31          1
                                   No pseudopotential on this center.
   32          1
                                   No pseudopotential on this center.
   33          1
                                   No pseudopotential on this center.
 ======================================================================================================
 There are   570 symmetry adapted cartesian basis functions of A   symmetry.
 There are   524 symmetry adapted basis functions of A   symmetry.
   524 basis functions,  1074 primitive gaussians,   570 cartesian basis functions
   104 alpha electrons      104 beta electrons
       nuclear repulsion energy      3101.5142569218 Hartrees.
 NAtoms=   33 NActive=   33 NUniq=   33 SFac= 1.00D+00 NAtFMM=   60 NAOKFM=F Big=F
 Integral buffers will be    131072 words long.
 Raffenetti 2 integral format.
 Two-electron integral symmetry is turned on.
 Nuclear repulsion after empirical dispersion term =     3101.4695903046 Hartrees.
 One-electron integrals computed using PRISM.
 PrsmSu:  requested number of processors reduced to:   4 ShMem   1 Linda.
   1 Symmetry operations used in ECPInt.
 ECPInt:  NShTT=   13203 NPrTT=   78401 LenC2=   11876 LenP2D=   45093.
 LDataN:  DoStor=T MaxTD1= 8 Len=  415
 Number of processors reduced to  13 by ecpmxn.
 NBasis=   524 RedAO= T EigKep=  2.14D-05  NBF=   524
 NBsUse=   524 1.00D-06 EigRej= -1.00D+00 NBFU=   524
 Defaulting to unpruned grid for atomic number  40.
 ExpMin= 1.01D-02 ExpMax= 1.61D+04 ExpMxC= 2.43D+03 IAcc=3 IRadAn=         5 AccDes= 0.00D+00
 Harris functional with IExCor=  402 and IRadAn=       5 diagonalized for initial guess.
 HarFok:  IExCor=  402 AccDes= 0.00D+00 IRadAn=         5 IDoV= 1 UseB2=F ITyADJ=14
 ICtDFT=  3500011 ScaDFX=  1.000000  1.000000  1.000000  1.000000
 Defaulting to unpruned grid for atomic number  40.
 FoFCou: FMM=F IPFlag=           0 FMFlag=      100000 FMFlg1=           0
         NFxFlg=           0 DoJE=T BraDBF=F KetDBF=T FulRan=T
         wScrn=  0.000000 ICntrl=       500 IOpCl=  0 I1Cent=   200000004 NGrid=           0
         NMat0=    1 NMatS0=      1 NMatT0=    0 NMatD0=    1 NMtDS0=    0 NMtDT0=    0
 Petite list used in FoFCou.
 Requested convergence on RMS density matrix=1.00D-08 within 128 cycles.
 Requested convergence on MAX density matrix=1.00D-06.
 Requested convergence on             energy=1.00D-06.
 No special actions if energy rises.
 Defaulting to unpruned grid for atomic number  40.
 Defaulting to unpruned grid for atomic number  40.
 Defaulting to unpruned grid for atomic number  40.
 Defaulting to unpruned grid for atomic number  40.
 Defaulting to unpruned grid for atomic number  40.
 Defaulting to unpruned grid for atomic number  40.
 Defaulting to unpruned grid for atomic number  40.
 Defaulting to unpruned grid for atomic number  40.
 Defaulting to unpruned grid for atomic number  40.
 Defaulting to unpruned grid for atomic number  40.
 Defaulting to unpruned grid for atomic number  40.
 Defaulting to unpruned grid for atomic number  40.
 Defaulting to unpruned grid for atomic number  40.
 Defaulting to unpruned grid for atomic number  40.
 Defaulting to unpruned grid for atomic number  40.
 Defaulting to unpruned grid for atomic number  40.
 SCF Done:  E(RB3LYP) =  -2415.74375074     A.U. after   14 cycles
            NFock= 14  Conv=0.74D-08     -V/T= 2.0135

 **********************************************************************

            Population analysis using the SCF Density.

 **********************************************************************

 Orbital symmetries:
       Occupied  (A) (A) (A) (A) (A) (A) (A) (A) (A) (A) (A) (A)
                 (A) (A) (A) (A) (A) (A) (A) (A) (A) (A) (A) (A)
                 (A) (A) (A) (A) (A) (A) (A) (A) (A) (A) (A) (A)
                 (A) (A) (A) (A) (A) (A) (A) (A) (A) (A) (A) (A)
                 (A) (A) (A) (A) (A) (A) (A) (A) (A) (A) (A) (A)
                 (A) (A) (A) (A) (A) (A) (A) (A) (A) (A) (A) (A)
                 (A) (A) (A) (A) (A) (A) (A) (A) (A) (A) (A) (A)
                 (A) (A) (A) (A) (A) (A) (A) (A) (A) (A) (A) (A)
                 (A) (A) (A) (A) (A) (A) (A) (A)
       Virtual   (A) (A) (A) (A) (A) (A) (A) (A) (A) (A) (A) (A)
                 (A) (A) (A) (A) (A) (A) (A) (A) (A) (A) (A) (A)
                 (A) (A) (A) (A) (A) (A) (A) (A) (A) (A) (A) (A)
                 (A) (A) (A) (A) (A) (A) (A) (A) (A) (A) (A) (A)
                 (A) (A) (A) (A) (A) (A) (A) (A) (A) (A) (A) (A)
                 (A) (A) (A) (A) (A) (A) (A) (A) (A) (A) (A) (A)
                 (A) (A) (A) (A) (A) (A) (A) (A) (A) (A) (A) (A)
                 (A) (A) (A) (A) (A) (A) (A) (A) (A) (A) (A) (A)
                 (A) (A) (A) (A) (A) (A) (A) (A) (A) (A) (A) (A)
                 (A) (A) (A) (A) (A) (A) (A) (A) (A) (A) (A) (A)
                 (A) (A) (A) (A) (A) (A) (A) (A) (A) (A) (A) (A)
                 (A) (A) (A) (A) (A) (A) (A) (A) (A) (A) (A) (A)
                 (A) (A) (A) (A) (A) (A) (A) (A) (A) (A) (A) (A)
                 (A) (A) (A) (A) (A) (A) (A) (A) (A) (A) (A) (A)
                 (A) (A) (A) (A) (A) (A) (A) (A) (A) (A) (A) (A)
                 (A) (A) (A) (A) (A) (A) (A) (A) (A) (A) (A) (A)
                 (A) (A) (A) (A) (A) (A) (A) (A) (A) (A) (A) (A)
                 (A) (A) (A) (A) (A) (A) (A) (A) (A) (A) (A) (A)
                 (A) (A) (A) (A) (A) (A) (A) (A) (A) (A) (A) (A)
                 (A) (A) (A) (A) (A) (A) (A) (A) (A) (A) (A) (A)
                 (A) (A) (A) (A) (A) (A) (A) (A) (A) (A) (A) (A)
                 (A) (A) (A) (A) (A) (A) (A) (A) (A) (A) (A) (A)
                 (A) (A) (A) (A) (A) (A) (A) (A) (A) (A) (A) (A)
                 (A) (A) (A) (A) (A) (A) (A) (A) (A) (A) (A) (A)
                 (A) (A) (A) (A) (A) (A) (A) (A) (A) (A) (A) (A)
                 (A) (A) (A) (A) (A) (A) (A) (A) (A) (A) (A) (A)
                 (A) (A) (A) (A) (A) (A) (A) (A) (A) (A) (A) (A)
                 (A) (A) (A) (A) (A) (A) (A) (A) (A) (A) (A) (A)
                 (A) (A) (A) (A) (A) (A) (A) (A) (A) (A) (A) (A)
                 (A) (A) (A) (A) (A) (A) (A) (A) (A) (A) (A) (A)
                 (A) (A) (A) (A) (A) (A) (A) (A) (A) (A) (A) (A)
                 (A) (A) (A) (A) (A) (A) (A) (A) (A) (A) (A) (A)
                 (A) (A) (A) (A) (A) (A) (A) (A) (A) (A) (A) (A)
                 (A) (A) (A) (A) (A) (A) (A) (A) (A) (A) (A) (A)
                 (A) (A) (A) (A) (A) (A) (A) (A) (A) (A) (A) (A)
 The electronic state is 1-A.
 Alpha  occ. eigenvalues --  -66.20458 -66.14637 -66.13750 -66.13087 -19.16319
 Alpha  occ. eigenvalues --  -19.16105 -19.15670 -19.15337 -19.15100 -19.15092
 Alpha  occ. eigenvalues --  -19.14121 -19.14060 -19.13975 -19.13847 -19.13673
 Alpha  occ. eigenvalues --  -19.13645 -19.13532 -19.13469 -19.13146 -19.09773
 Alpha  occ. eigenvalues --   -5.34264  -5.31273  -5.30401  -5.29761  -3.70274
 Alpha  occ. eigenvalues --   -3.70265  -3.70170  -3.67171  -3.67162  -3.66954
 Alpha  occ. eigenvalues --   -3.66294  -3.66267  -3.66106  -3.65654  -3.65622
 Alpha  occ. eigenvalues --   -3.65467  -2.00136  -1.34104  -1.33349  -1.24173
 Alpha  occ. eigenvalues --   -1.09420  -1.08465  -1.07822  -1.04285  -1.03874
 Alpha  occ. eigenvalues --   -1.03219  -1.02501  -1.02451  -1.01901  -1.00554
 Alpha  occ. eigenvalues --   -0.97448  -0.97305  -0.95965  -0.88791  -0.87733
 Alpha  occ. eigenvalues --   -0.85373  -0.61590  -0.60223  -0.59584  -0.57294
 Alpha  occ. eigenvalues --   -0.57112  -0.55999  -0.55340  -0.54788  -0.52217
 Alpha  occ. eigenvalues --   -0.51925  -0.51594  -0.51498  -0.50907  -0.49934
 Alpha  occ. eigenvalues --   -0.49230  -0.46903  -0.45464  -0.45091  -0.44285
 Alpha  occ. eigenvalues --   -0.43875  -0.42711  -0.41600  -0.41249  -0.40600
 Alpha  occ. eigenvalues --   -0.40008  -0.39722  -0.39295  -0.39059  -0.38629
 Alpha  occ. eigenvalues --   -0.38262  -0.37907  -0.37107  -0.36267  -0.36049
 Alpha  occ. eigenvalues --   -0.35478  -0.34801  -0.34476  -0.34191  -0.33397
 Alpha  occ. eigenvalues --   -0.32952  -0.32877  -0.31791  -0.31403  -0.31037
 Alpha  occ. eigenvalues --   -0.30532  -0.30154  -0.26510  -0.24788
 Alpha virt. eigenvalues --   -0.05472  -0.04103  -0.03741  -0.02872  -0.00746
 Alpha virt. eigenvalues --    0.00054   0.00659   0.01034   0.01108   0.01419
 Alpha virt. eigenvalues --    0.02119   0.02555   0.02845   0.03156   0.03268
 Alpha virt. eigenvalues --    0.03683   0.04173   0.04357   0.05015   0.05483
 Alpha virt. eigenvalues --    0.06053   0.06133   0.06381   0.07214   0.07378
 Alpha virt. eigenvalues --    0.07608   0.08037   0.08682   0.08858   0.09288
 Alpha virt. eigenvalues --    0.09687   0.10138   0.10567   0.11576   0.11870
 Alpha virt. eigenvalues --    0.12089   0.12624   0.12900   0.13120   0.13201
 Alpha virt. eigenvalues --    0.13902   0.13966   0.14406   0.14913   0.15289
 Alpha virt. eigenvalues --    0.15757   0.15966   0.16330   0.16780   0.17363
 Alpha virt. eigenvalues --    0.17920   0.18217   0.18251   0.18704   0.19142
 Alpha virt. eigenvalues --    0.19361   0.20050   0.20080   0.20244   0.20538
 Alpha virt. eigenvalues --    0.20931   0.21066   0.21497   0.21558   0.21720
 Alpha virt. eigenvalues --    0.22373   0.22425   0.23058   0.23284   0.23481
 Alpha virt. eigenvalues --    0.23860   0.24204   0.24550   0.24769   0.25139
 Alpha virt. eigenvalues --    0.25192   0.25405   0.25583   0.26031   0.26463
 Alpha virt. eigenvalues --    0.26575   0.26800   0.27350   0.27485   0.27545
 Alpha virt. eigenvalues --    0.27776   0.28310   0.28564   0.29189   0.29356
 Alpha virt. eigenvalues --    0.30059   0.30214   0.30315   0.30778   0.31257
 Alpha virt. eigenvalues --    0.31441   0.31865   0.32375   0.32714   0.33044
 Alpha virt. eigenvalues --    0.33316   0.33866   0.34046   0.34418   0.34849
 Alpha virt. eigenvalues --    0.35077   0.35367   0.35659   0.36102   0.36669
 Alpha virt. eigenvalues --    0.37132   0.37411   0.37574   0.38530   0.38661
 Alpha virt. eigenvalues --    0.38942   0.39698   0.40357   0.40437   0.41083
 Alpha virt. eigenvalues --    0.41294   0.41389   0.42665   0.43113   0.43418
 Alpha virt. eigenvalues --    0.43928   0.44682   0.45030   0.46162   0.46462
 Alpha virt. eigenvalues --    0.46979   0.47686   0.48497   0.48710   0.50449
 Alpha virt. eigenvalues --    0.51776   0.52616   0.53159   0.53980   0.54373
 Alpha virt. eigenvalues --    0.54794   0.55827   0.57067   0.57723   0.57959
 Alpha virt. eigenvalues --    0.58789   0.59406   0.59765   0.60127   0.61616
 Alpha virt. eigenvalues --    0.61985   0.62805   0.63600   0.64092   0.65820
 Alpha virt. eigenvalues --    0.66024   0.66631   0.66805   0.68340   0.69230
 Alpha virt. eigenvalues --    0.70051   0.70980   0.71831   0.72142   0.72652
 Alpha virt. eigenvalues --    0.73969   0.74419   0.75898   0.75964   0.76902
 Alpha virt. eigenvalues --    0.77450   0.79076   0.79479   0.79620   0.81902
 Alpha virt. eigenvalues --    0.81959   0.82510   0.84636   0.85385   0.86876
 Alpha virt. eigenvalues --    0.88492   0.89348   0.94411   0.95410   0.98031
 Alpha virt. eigenvalues --    0.98644   0.99113   1.00055   1.00920   1.01587
 Alpha virt. eigenvalues --    1.01858   1.02901   1.03473   1.04017   1.05133
 Alpha virt. eigenvalues --    1.06044   1.06654   1.07042   1.07779   1.07888
 Alpha virt. eigenvalues --    1.08403   1.09253   1.09902   1.10271   1.10823
 Alpha virt. eigenvalues --    1.11101   1.12503   1.12748   1.14168   1.14965
 Alpha virt. eigenvalues --    1.17447   1.18745   1.20081   1.20914   1.21814
 Alpha virt. eigenvalues --    1.23270   1.24045   1.24138   1.25347   1.25443
 Alpha virt. eigenvalues --    1.26413   1.27483   1.28060   1.28428   1.29016
 Alpha virt. eigenvalues --    1.29699   1.30072   1.31877   1.32689   1.33429
 Alpha virt. eigenvalues --    1.33759   1.34687   1.35193   1.35751   1.36447
 Alpha virt. eigenvalues --    1.37426   1.37851   1.38640   1.38905   1.40027
 Alpha virt. eigenvalues --    1.41327   1.41427   1.42549   1.43440   1.43803
 Alpha virt. eigenvalues --    1.44722   1.45638   1.46129   1.46603   1.47293
 Alpha virt. eigenvalues --    1.48126   1.49181   1.50164   1.51164   1.52745
 Alpha virt. eigenvalues --    1.55834   1.56509   1.56711   1.57203   1.57549
 Alpha virt. eigenvalues --    1.58414   1.59386   1.59731   1.60128   1.60476
 Alpha virt. eigenvalues --    1.61147   1.61703   1.63218   1.63440   1.64388
 Alpha virt. eigenvalues --    1.65603   1.65725   1.67423   1.68566   1.70209
 Alpha virt. eigenvalues --    1.70623   1.71733   1.72291   1.73401   1.74018
 Alpha virt. eigenvalues --    1.75533   1.75990   1.76894   1.77723   1.77858
 Alpha virt. eigenvalues --    1.79184   1.79721   1.79932   1.81005   1.82472
 Alpha virt. eigenvalues --    1.82643   1.83083   1.83825   1.83998   1.85693
 Alpha virt. eigenvalues --    1.86353   1.87172   1.88258   1.89309   1.89737
 Alpha virt. eigenvalues --    1.90424   1.92520   1.92756   1.93388   1.93656
 Alpha virt. eigenvalues --    1.95239   1.96125   1.96786   1.98164   1.99385
 Alpha virt. eigenvalues --    2.01900   2.03514   2.04727   2.05204   2.06384
 Alpha virt. eigenvalues --    2.07129   2.08103   2.09164   2.11316   2.12261
 Alpha virt. eigenvalues --    2.14179   2.14907   2.15453   2.16529   2.17281
 Alpha virt. eigenvalues --    2.19177   2.20414   2.20913   2.23843   2.24834
 Alpha virt. eigenvalues --    2.27752   2.30148   2.31952   2.32104   2.35266
 Alpha virt. eigenvalues --    2.37878   2.39389   2.40238   2.40515   2.43200
 Alpha virt. eigenvalues --    2.43982   2.45093   2.45240   2.46429   2.48182
 Alpha virt. eigenvalues --    2.50838   2.53638   2.55087   2.57778   2.58753
 Alpha virt. eigenvalues --    2.60274   2.61040   2.61147   2.62133   2.62461
 Alpha virt. eigenvalues --    2.63575   2.64624   2.64731   2.64938   2.65642
 Alpha virt. eigenvalues --    2.67500   2.67903   2.68733   2.69123   2.69971
 Alpha virt. eigenvalues --    2.70892   2.72299   2.72941   2.73719   2.75310
 Alpha virt. eigenvalues --    2.77876   2.79013   2.79856   2.80712   2.81882
 Alpha virt. eigenvalues --    2.82617   2.84627   2.87589   2.89530   2.90475
 Alpha virt. eigenvalues --    2.93264   2.94416   2.95081   2.95305   2.96105
 Alpha virt. eigenvalues --    2.96859   2.97270   2.98681   2.99389   3.00040
 Alpha virt. eigenvalues --    3.00426   3.01916   3.02740   3.03951   3.06207
 Alpha virt. eigenvalues --    3.09260   3.10781   3.14265   3.16995   3.20566
 Alpha virt. eigenvalues --    3.23812   3.26148   3.27795   3.44526   3.47036
 Alpha virt. eigenvalues --    3.47404   3.48326   3.48811   3.51540   3.53270
 Alpha virt. eigenvalues --    3.56554   3.58344   3.66575   3.68847   3.79392
 Alpha virt. eigenvalues --    3.83032   8.99082   9.35084  11.70930  32.09167
          Condensed to atoms (all electrons):
               1          2          3          4          5          6
     1  Si  22.189544  -0.830239  -1.326384  -1.550712  -2.511877  -0.535796
     2  O   -0.830239  10.184910   0.178351   0.041922   0.285405   0.048975
     3  O   -1.326384   0.178351  10.410144   0.102489   0.314372   0.036565
     4  O   -1.550712   0.041922   0.102489  10.130295   0.948201  -1.197702
     5  O   -2.511877   0.285405   0.314372   0.948201  11.206178  -0.118479
     6  Si  -0.535796   0.048975   0.036565  -1.197702  -0.118479  16.432825
     7  Si  -0.537885  -0.212971  -1.395912   0.105539   0.089582   0.064391
     8  Si  -0.785256  -1.451281  -0.091039  -0.072780  -0.046221   0.024029
     9  Zr  -2.035492   0.099570   0.141618  -0.169484  -0.767714  -0.258306
    10  O   -0.299302  -0.006665   0.003010   0.005784  -0.232611  -0.009034
    11  O   -0.173609   0.003782   0.022079  -0.011393  -0.234987   0.000227
    12  O   -0.127278   0.012354  -0.008044  -0.007937  -0.221009  -0.002621
    13  O   -0.026091   0.445876   0.009806  -0.015286  -0.003492   0.005367
    14  O    0.144295   0.522129  -0.046134   0.071123   0.027544   0.031734
    15  O    0.178749   0.185876   0.093174  -0.047069  -0.007773   0.007466
    16  O    0.006959   0.009000  -0.013307   0.442080  -0.003313  -1.056589
    17  O    0.046786  -0.076164   0.023892   0.385877   0.044383  -1.209154
    18  O    0.070985   0.027174  -0.052528   0.218686   0.023454  -1.133885
    19  O   -0.053398   0.009184   0.470084  -0.011099  -0.003853   0.001445
    20  O    0.043142   0.071355   0.418605  -0.022639  -0.027520  -0.005752
    21  O    0.015895   0.027645   0.223827   0.001046   0.013763  -0.022478
    22  H    0.011588   0.000315   0.005530  -0.000060  -0.014491   0.001677
    23  H   -0.038814   0.000119  -0.000221  -0.000630  -0.031656  -0.000683
    24  H    0.003180   0.005428   0.000046  -0.000096  -0.019239   0.001292
    25  H   -0.009647  -0.035624  -0.000309   0.000741   0.000476  -0.000790
    26  H   -0.005638  -0.028615  -0.002704   0.000498   0.000218   0.001055
    27  H   -0.021476  -0.032363   0.000124   0.002332  -0.000705  -0.001453
    28  H   -0.014919  -0.004312  -0.045851   0.000212   0.001610  -0.000372
    29  H   -0.029997  -0.000330  -0.025818  -0.000138  -0.000504   0.012026
    30  H   -0.006395   0.000027  -0.031058   0.000288   0.000083   0.000635
    31  H   -0.012491  -0.002824   0.000398  -0.014110  -0.000176   0.081892
    32  H   -0.013896  -0.000157   0.000587  -0.036664  -0.000201   0.149971
    33  H   -0.006426   0.001307  -0.008547  -0.045616  -0.001675   0.158961
               7          8          9         10         11         12
     1  Si  -0.537885  -0.785256  -2.035492  -0.299302  -0.173609  -0.127278
     2  O   -0.212971  -1.451281   0.099570  -0.006665   0.003782   0.012354
     3  O   -1.395912  -0.091039   0.141618   0.003010   0.022079  -0.008044
     4  O    0.105539  -0.072780  -0.169484   0.005784  -0.011393  -0.007937
     5  O    0.089582  -0.046221  -0.767714  -0.232611  -0.234987  -0.221009
     6  Si   0.064391   0.024029  -0.258306  -0.009034   0.000227  -0.002621
     7  Si  16.027439   0.324700  -0.118257  -0.004331  -0.015903   0.005223
     8  Si   0.324700  17.520500  -0.162316   0.001536  -0.016528   0.002372
     9  Zr  -0.118257  -0.162316  17.694092  -0.759430  -0.361204  -0.475012
    10  O   -0.004331   0.001536  -0.759430   9.556166  -0.285847  -0.228336
    11  O   -0.015903  -0.016528  -0.361204  -0.285847   9.170953  -0.229169
    12  O    0.005223   0.002372  -0.475012  -0.228336  -0.229169   9.205180
    13  O   -0.002115  -0.972418  -0.012144   0.000064  -0.001443  -0.000107
    14  O   -0.019249  -1.800018   0.027557  -0.000035  -0.000024  -0.000298
    15  O   -0.183531  -1.305602   0.019326  -0.000004   0.000416  -0.000943
    16  O    0.000040   0.004618  -0.008442  -0.000013   0.000012  -0.000007
    17  O    0.039879  -0.021973   0.006263   0.000081   0.000010  -0.000080
    18  O   -0.024003   0.083557   0.000340   0.000021  -0.000022   0.000108
    19  O   -0.825588   0.015092  -0.007178   0.000117   0.000193   0.000709
    20  O   -1.078988  -0.035528  -0.015265  -0.000370   0.000762  -0.002405
    21  O   -0.929608  -0.135971   0.024640  -0.000016  -0.000245  -0.000551
    22  H   -0.000165  -0.001080  -0.130273  -0.029550   0.017767   0.376357
    23  H   -0.000049  -0.000111  -0.098254   0.421883  -0.043092   0.017672
    24  H   -0.000341  -0.003522  -0.130234  -0.037061   0.396147   0.014369
    25  H    0.001065   0.145721  -0.002494  -0.000002   0.000031   0.000000
    26  H    0.009379   0.124979  -0.005233   0.000002   0.000007   0.000003
    27  H    0.001184   0.173734  -0.002590  -0.000000   0.000013   0.000002
    28  H    0.166958   0.000393   0.010910   0.000002   0.000021   0.000343
    29  H    0.113852   0.004089  -0.002824   0.000000   0.000001   0.000010
    30  H    0.129478  -0.000152  -0.002018   0.000004  -0.000009  -0.000288
    31  H    0.000070   0.008098  -0.001788   0.000000  -0.000001  -0.000000
    32  H   -0.000225   0.000305   0.000074  -0.000000  -0.000000  -0.000001
    33  H    0.011394  -0.000102  -0.002250  -0.000001  -0.000000   0.000001
              13         14         15         16         17         18
     1  Si  -0.026091   0.144295   0.178749   0.006959   0.046786   0.070985
     2  O    0.445876   0.522129   0.185876   0.009000  -0.076164   0.027174
     3  O    0.009806  -0.046134   0.093174  -0.013307   0.023892  -0.052528
     4  O   -0.015286   0.071123  -0.047069   0.442080   0.385877   0.218686
     5  O   -0.003492   0.027544  -0.007773  -0.003313   0.044383   0.023454
     6  Si   0.005367   0.031734   0.007466  -1.056589  -1.209154  -1.133885
     7  Si  -0.002115  -0.019249  -0.183531   0.000040   0.039879  -0.024003
     8  Si  -0.972418  -1.800018  -1.305602   0.004618  -0.021973   0.083557
     9  Zr  -0.012144   0.027557   0.019326  -0.008442   0.006263   0.000340
    10  O    0.000064  -0.000035  -0.000004  -0.000013   0.000081   0.000021
    11  O   -0.001443  -0.000024   0.000416   0.000012   0.000010  -0.000022
    12  O   -0.000107  -0.000298  -0.000943  -0.000007  -0.000080   0.000108
    13  O    9.044430   0.026865   0.072881  -0.000007   0.000361   0.004786
    14  O    0.026865   9.443993   0.388865  -0.008004   0.014875  -0.102155
    15  O    0.072881   0.388865   9.165657  -0.000421  -0.003626  -0.013530
    16  O   -0.000007  -0.008004  -0.000421   9.090903   0.027806   0.109791
    17  O    0.000361   0.014875  -0.003626   0.027806   9.230125   0.314151
    18  O    0.004786  -0.102155  -0.013530   0.109791   0.314151   9.119444
    19  O    0.000054   0.000298  -0.007217   0.000300  -0.007625  -0.000773
    20  O    0.004336  -0.011031   0.042086  -0.000123  -0.000337   0.002169
    21  O    0.000642   0.019093   0.067722  -0.001292   0.001204   0.011350
    22  H    0.000002   0.000000  -0.000001   0.000000  -0.000001  -0.000000
    23  H    0.000000  -0.000000  -0.000000  -0.000000  -0.000000   0.000001
    24  H    0.000456  -0.000015  -0.000098  -0.000000  -0.000000  -0.000001
    25  H    0.195170  -0.032920   0.008655   0.000005  -0.000005   0.000191
    26  H   -0.008707   0.002324   0.208185   0.000001  -0.000004   0.000071
    27  H   -0.018071   0.158056   0.005035   0.000341  -0.001446   0.011527
    28  H    0.000003   0.000043  -0.000210  -0.000000  -0.000004  -0.000003
    29  H    0.000004  -0.000563  -0.000355   0.000401   0.007761  -0.000576
    30  H    0.000000  -0.000003  -0.000028   0.000000   0.000041   0.000001
    31  H   -0.000205  -0.010990   0.000071  -0.007489   0.005983   0.245936
    32  H   -0.000000   0.000076   0.000001   0.191579  -0.026448   0.007199
    33  H   -0.000002   0.000255   0.000032  -0.014471   0.172562   0.005477
              19         20         21         22         23         24
     1  Si  -0.053398   0.043142   0.015895   0.011588  -0.038814   0.003180
     2  O    0.009184   0.071355   0.027645   0.000315   0.000119   0.005428
     3  O    0.470084   0.418605   0.223827   0.005530  -0.000221   0.000046
     4  O   -0.011099  -0.022639   0.001046  -0.000060  -0.000630  -0.000096
     5  O   -0.003853  -0.027520   0.013763  -0.014491  -0.031656  -0.019239
     6  Si   0.001445  -0.005752  -0.022478   0.001677  -0.000683   0.001292
     7  Si  -0.825588  -1.078988  -0.929608  -0.000165  -0.000049  -0.000341
     8  Si   0.015092  -0.035528  -0.135971  -0.001080  -0.000111  -0.003522
     9  Zr  -0.007178  -0.015265   0.024640  -0.130273  -0.098254  -0.130234
    10  O    0.000117  -0.000370  -0.000016  -0.029550   0.421883  -0.037061
    11  O    0.000193   0.000762  -0.000245   0.017767  -0.043092   0.396147
    12  O    0.000709  -0.002405  -0.000551   0.376357   0.017672   0.014369
    13  O    0.000054   0.004336   0.000642   0.000002   0.000000   0.000456
    14  O    0.000298  -0.011031   0.019093   0.000000  -0.000000  -0.000015
    15  O   -0.007217   0.042086   0.067722  -0.000001  -0.000000  -0.000098
    16  O    0.000300  -0.000123  -0.001292   0.000000  -0.000000  -0.000000
    17  O   -0.007625  -0.000337   0.001204  -0.000001  -0.000000  -0.000000
    18  O   -0.000773   0.002169   0.011350  -0.000000   0.000001  -0.000001
    19  O    9.007860  -0.030316  -0.054042  -0.000672   0.000001  -0.000000
    20  O   -0.030316   9.119496   0.294528  -0.000156  -0.000000  -0.000026
    21  O   -0.054042   0.294528   9.086485   0.000001  -0.000000  -0.000002
    22  H   -0.000672  -0.000156   0.000001   0.406165   0.000038   0.000486
    23  H    0.000001  -0.000000  -0.000000   0.000038   0.422889   0.004605
    24  H   -0.000000  -0.000026  -0.000002   0.000486   0.004605   0.417493
    25  H   -0.000000  -0.000012  -0.000005   0.000000   0.000000   0.000005
    26  H   -0.000054  -0.002073  -0.003189   0.000000   0.000000   0.000001
    27  H    0.000004   0.000051  -0.000049  -0.000000   0.000000  -0.000000
    28  H   -0.024355   0.173774   0.007186   0.000059   0.000000   0.000000
    29  H   -0.005657   0.006847   0.202310  -0.000000   0.000000   0.000000
    30  H    0.195726  -0.024382   0.013130   0.000056  -0.000000   0.000000
    31  H    0.000003  -0.000005  -0.000020   0.000000  -0.000000   0.000000
    32  H    0.000001   0.000000   0.000015   0.000000  -0.000000   0.000000
    33  H   -0.000292   0.000022  -0.004257   0.000000   0.000000   0.000000
              25         26         27         28         29         30
     1  Si  -0.009647  -0.005638  -0.021476  -0.014919  -0.029997  -0.006395
     2  O   -0.035624  -0.028615  -0.032363  -0.004312  -0.000330   0.000027
     3  O   -0.000309  -0.002704   0.000124  -0.045851  -0.025818  -0.031058
     4  O    0.000741   0.000498   0.002332   0.000212  -0.000138   0.000288
     5  O    0.000476   0.000218  -0.000705   0.001610  -0.000504   0.000083
     6  Si  -0.000790   0.001055  -0.001453  -0.000372   0.012026   0.000635
     7  Si   0.001065   0.009379   0.001184   0.166958   0.113852   0.129478
     8  Si   0.145721   0.124979   0.173734   0.000393   0.004089  -0.000152
     9  Zr  -0.002494  -0.005233  -0.002590   0.010910  -0.002824  -0.002018
    10  O   -0.000002   0.000002  -0.000000   0.000002   0.000000   0.000004
    11  O    0.000031   0.000007   0.000013   0.000021   0.000001  -0.000009
    12  O    0.000000   0.000003   0.000002   0.000343   0.000010  -0.000288
    13  O    0.195170  -0.008707  -0.018071   0.000003   0.000004   0.000000
    14  O   -0.032920   0.002324   0.158056   0.000043  -0.000563  -0.000003
    15  O    0.008655   0.208185   0.005035  -0.000210  -0.000355  -0.000028
    16  O    0.000005   0.000001   0.000341  -0.000000   0.000401   0.000000
    17  O   -0.000005  -0.000004  -0.001446  -0.000004   0.007761   0.000041
    18  O    0.000191   0.000071   0.011527  -0.000003  -0.000576   0.000001
    19  O   -0.000000  -0.000054   0.000004  -0.024355  -0.005657   0.195726
    20  O   -0.000012  -0.002073   0.000051   0.173774   0.006847  -0.024382
    21  O   -0.000005  -0.003189  -0.000049   0.007186   0.202310   0.013130
    22  H    0.000000   0.000000  -0.000000   0.000059  -0.000000   0.000056
    23  H    0.000000   0.000000   0.000000   0.000000   0.000000  -0.000000
    24  H    0.000005   0.000001  -0.000000   0.000000   0.000000   0.000000
    25  H    0.392512   0.000059   0.000009  -0.000000  -0.000000   0.000000
    26  H    0.000059   0.352980  -0.000167  -0.000009   0.000011   0.000000
    27  H    0.000009  -0.000167   0.412713  -0.000000   0.000000   0.000000
    28  H   -0.000000  -0.000009  -0.000000   0.382484  -0.000172  -0.000533
    29  H   -0.000000   0.000011   0.000000  -0.000172   0.351824  -0.000047
    30  H    0.000000   0.000000   0.000000  -0.000533  -0.000047   0.382662
    31  H   -0.000002  -0.000000   0.004658   0.000000   0.000001  -0.000000
    32  H   -0.000000  -0.000000  -0.000002   0.000000   0.000000  -0.000000
    33  H    0.000000   0.000000  -0.000001  -0.000000  -0.000551   0.000000
              31         32         33
     1  Si  -0.012491  -0.013896  -0.006426
     2  O   -0.002824  -0.000157   0.001307
     3  O    0.000398   0.000587  -0.008547
     4  O   -0.014110  -0.036664  -0.045616
     5  O   -0.000176  -0.000201  -0.001675
     6  Si   0.081892   0.149971   0.158961
     7  Si   0.000070  -0.000225   0.011394
     8  Si   0.008098   0.000305  -0.000102
     9  Zr  -0.001788   0.000074  -0.002250
    10  O    0.000000  -0.000000  -0.000001
    11  O   -0.000001  -0.000000  -0.000000
    12  O   -0.000000  -0.000001   0.000001
    13  O   -0.000205  -0.000000  -0.000002
    14  O   -0.010990   0.000076   0.000255
    15  O    0.000071   0.000001   0.000032
    16  O   -0.007489   0.191579  -0.014471
    17  O    0.005983  -0.026448   0.172562
    18  O    0.245936   0.007199   0.005477
    19  O    0.000003   0.000001  -0.000292
    20  O   -0.000005   0.000000   0.000022
    21  O   -0.000020   0.000015  -0.004257
    22  H    0.000000   0.000000   0.000000
    23  H   -0.000000  -0.000000   0.000000
    24  H    0.000000   0.000000   0.000000
    25  H   -0.000002  -0.000000   0.000000
    26  H   -0.000000  -0.000000   0.000000
    27  H    0.004658  -0.000002  -0.000001
    28  H    0.000000   0.000000  -0.000000
    29  H    0.000001   0.000000  -0.000551
    30  H   -0.000000  -0.000000   0.000000
    31  H    0.366871   0.000064  -0.000187
    32  H    0.000064   0.381900  -0.000322
    33  H   -0.000187  -0.000322   0.384525
 Mulliken charges:
               1
     1  Si   2.241896
     2  O   -1.479160
     3  O   -1.406844
     4  O   -1.253699
     5  O   -0.707773
     6  Si   2.492560
     7  Si   2.258945
     8  Si   2.468175
     9  Zr  -0.496189
    10  O   -0.096062
    11  O   -0.238943
    12  O   -0.330615
    13  O   -0.751018
    14  O   -0.847689
    15  O   -0.873789
    16  O   -0.770359
    17  O   -0.975176
    18  O   -0.928941
    19  O   -0.668951
    20  O   -0.920245
    21  O   -0.858757
    22  H    0.356408
    23  H    0.346303
    24  H    0.347130
    25  H    0.337171
    26  H    0.356620
    27  H    0.308539
    28  H    0.346741
    29  H    0.368392
    30  H    0.342782
    31  H    0.336241
    32  H    0.346141
    33  H    0.350164
 Sum of Mulliken charges =  -0.00000
 Mulliken charges with hydrogens summed into heavy atoms:
               1
     1  Si   2.241896
     2  O   -1.479160
     3  O   -1.406844
     4  O   -1.253699
     5  O   -0.707773
     6  Si   2.492560
     7  Si   2.258945
     8  Si   2.468175
     9  Zr  -0.496189
    10  O    0.250241
    11  O    0.108187
    12  O    0.025793
    13  O   -0.413847
    14  O   -0.539150
    15  O   -0.517169
    16  O   -0.424218
    17  O   -0.625011
    18  O   -0.592700
    19  O   -0.326168
    20  O   -0.573504
    21  O   -0.490365
 Electronic spatial extent (au):  <R**2>=           8021.2561
 Charge=              0.0000 electrons
 Dipole moment (field-independent basis, Debye):
    X=              4.8309    Y=             -5.2902    Z=             -1.7021  Tot=              7.3635
 Quadrupole moment (field-independent basis, Debye-Ang):
   XX=           -177.4447   YY=           -154.3003   ZZ=           -139.3716
   XY=              9.0814   XZ=              3.6762   YZ=            -12.8338
 Traceless Quadrupole moment (field-independent basis, Debye-Ang):
   XX=            -20.4058   YY=              2.7385   ZZ=             17.6673
   XY=              9.0814   XZ=              3.6762   YZ=            -12.8338
 Octapole moment (field-independent basis, Debye-Ang**2):
  XXX=            145.8262  YYY=            -41.3877  ZZZ=            -43.0443  XYY=             84.2550
  XXY=            -26.7318  XXZ=             -8.1853  XZZ=             32.3400  YZZ=            -69.1743
  YYZ=             22.9818  XYZ=             -9.7297
 Hexadecapole moment (field-independent basis, Debye-Ang**3):
 XXXX=          -5535.3978 YYYY=          -2716.5879 ZZZZ=          -2355.1984 XXXY=           -139.8680
 XXXZ=             56.7441 YYYX=             11.7302 YYYZ=            -14.1128 ZZZX=             36.5881
 ZZZY=            -59.2629 XXYY=          -1301.0357 XXZZ=          -1171.2797 YYZZ=           -758.8946
 XXYZ=           -145.5226 YYXZ=            -34.9177 ZZXY=            101.8859
 N-N= 3.101469590305D+03 E-N=-1.192553275037D+04  KE= 2.383468962507D+03
 PrsmSu:  requested number of processors reduced to:   2 ShMem   1 Linda.
 PrsmSu:  requested number of processors reduced to:  10 ShMem   1 Linda.
   1 Symmetry operations used in ECPInt.
 ECPInt:  NShTT=   13203 NPrTT=   78401 LenC2=   11876 LenP2D=   45093.
 LDataN:  DoStor=T MaxTD1= 9 Len=  602
 Number of processors reduced to  14 by ecpmxn.
 Calling FoFJK, ICntrl=      2127 FMM=F ISym2X=0 I1Cent= 0 IOpClX= 0 NMat=1 NMatS=1 NMatT=0.
 CoulSu:  requested number of processors reduced to:  10 ShMem   1 Linda.
 Defaulting to unpruned grid for atomic number  40.
 Defaulting to unpruned grid for atomic number  40.
 Defaulting to unpruned grid for atomic number  40.
 Defaulting to unpruned grid for atomic number  40.
 Defaulting to unpruned grid for atomic number  40.
 Defaulting to unpruned grid for atomic number  40.
 Defaulting to unpruned grid for atomic number  40.
 Defaulting to unpruned grid for atomic number  40.
 Defaulting to unpruned grid for atomic number  40.
 Defaulting to unpruned grid for atomic number  40.
 Defaulting to unpruned grid for atomic number  40.
 Defaulting to unpruned grid for atomic number  40.
 Defaulting to unpruned grid for atomic number  40.
 Defaulting to unpruned grid for atomic number  40.
 Defaulting to unpruned grid for atomic number  40.
 Defaulting to unpruned grid for atomic number  40.
 ***** Axes restored to original set *****
 -------------------------------------------------------------------
 Center     Atomic                   Forces (Hartrees/Bohr)
 Number     Number              X              Y              Z
 -------------------------------------------------------------------
      1       14          -0.008466286   -0.019103431   -0.003910770
      2        8          -0.017380680   -0.014133692   -0.009549050
      3        8          -0.005996462   -0.020311547   -0.003479865
      4        8          -0.001230696   -0.002566576   -0.011022101
      5        8          -0.048953621    0.049080321    0.391011900
      6       14           0.043505864   -0.032604034   -0.135970722
      7       14          -0.001253639   -0.135214705    0.024525154
      8       14          -0.112623086   -0.030475476   -0.067182693
      9       40          -0.054577177    0.095559423    0.352999968
     10        8          -0.334843706   -0.648179149   -0.238695946
     11        8           0.738814008   -0.078085118   -0.118906144
     12        8          -0.300128145    0.593872535   -0.343133711
     13        8           0.143828381   -0.098530328   -0.047306247
     14        8          -0.027835083   -0.032485510    0.163694542
     15        8           0.008172260    0.151672296   -0.053657121
     16        8          -0.122513380   -0.113416192    0.056997393
     17        8          -0.075471670    0.163177414   -0.010500486
     18        8           0.143135643   -0.021396156    0.080330040
     19        8          -0.150964901    0.065695703   -0.070675690
     20        8           0.130979946    0.026857635   -0.117315853
     21        8           0.018551270    0.040299939    0.153192040
     22        1          -0.009041356    0.025932850   -0.016910962
     23        1          -0.019039389   -0.025849503   -0.015759806
     24        1           0.036049518    0.002654026   -0.009506692
     25        1           0.014760048    0.002217341   -0.008788783
     26        1          -0.003876863    0.015215396    0.005609305
     27        1          -0.003687767    0.013558285    0.013161921
     28        1           0.015104361    0.005084988    0.000296809
     29        1           0.012283159    0.003869790    0.011391234
     30        1          -0.013326490    0.009556163    0.004447340
     31        1           0.004044825    0.008397566    0.008960214
     32        1          -0.001544480   -0.013560617    0.010865810
     33        1           0.003525593    0.013210361    0.004788974
 -------------------------------------------------------------------
 Cartesian Forces:  Max     0.738814008 RMS     0.153867554

 GradGradGradGradGradGradGradGradGradGradGradGradGradGradGradGradGradGrad
 Berny optimization.
 FormGI is forming the generalized inverse of G from B-inverse, IUseBI=4.
 Internal  Forces:  Max     0.742347119 RMS     0.112104914
 Search for a local minimum.
 Step number   1 out of a maximum of  176
 All quantities printed in internal units (Hartrees-Bohrs-Radians)
 Mixed Optimization -- RFO/linear search
 Second derivative matrix not updated -- first step.
 ITU=  0
     Eigenvalues ---    0.00323   0.03715   0.03725   0.03751   0.03754
     Eigenvalues ---    0.03769   0.03776   0.04036   0.05882   0.05886
     Eigenvalues ---    0.05890   0.05892   0.05892   0.05894   0.05898
     Eigenvalues ---    0.05900   0.05907   0.06735   0.06824   0.06947
     Eigenvalues ---    0.07062   0.08103   0.11052   0.11503   0.12835
     Eigenvalues ---    0.12837   0.12963   0.13045   0.13121   0.13135
     Eigenvalues ---    0.13546   0.13664   0.13714   0.13981   0.15485
     Eigenvalues ---    0.15624   0.16000   0.16000   0.16000   0.16000
     Eigenvalues ---    0.16000   0.16000   0.16000   0.16000   0.16000
     Eigenvalues ---    0.17149   0.18954   0.19348   0.21052   0.21065
     Eigenvalues ---    0.21076   0.21082   0.21090   0.21110   0.21534
     Eigenvalues ---    0.22192   0.22932   0.23672   0.25000   0.25000
     Eigenvalues ---    0.25000   0.42230   0.42666   0.43079   0.43200
     Eigenvalues ---    0.43499   0.43535   0.43717   0.43793   0.44853
     Eigenvalues ---    0.48419   0.53375   0.53376   0.53376   0.53377
     Eigenvalues ---    0.53377   0.53377   0.53377   0.53378   0.53378
     Eigenvalues ---    0.82453   0.82568   0.82671   0.82735   0.82741
     Eigenvalues ---    0.82788   0.82916   0.82950   0.83156   1.11719
     Eigenvalues ---    1.11888   1.124711000.000001000.000001000.00000
     Eigenvalues --- 1000.000001000.000001000.000001000.000001000.00000
     Eigenvalues --- 1000.000001000.000001000.000001000.000001000.00000
     Eigenvalues --- 1000.000001000.000001000.000001000.000001000.00000
     Eigenvalues --- 1000.000001000.000001000.000001000.000001000.00000
     Eigenvalues --- 1000.000001000.000001000.000001000.000001000.00000
     Eigenvalues --- 1000.000001000.000001000.000001000.000001000.00000
     Eigenvalues --- 1000.000001000.000001000.000001000.000001000.00000
     Eigenvalues --- 1000.000001000.000001000.000001000.000001000.00000
     Eigenvalues --- 1000.000001000.000001000.000001000.000001000.00000
     Eigenvalues --- 1000.000001000.000001000.000001000.000001000.00000
     Eigenvalues --- 1000.000001000.000001000.000001000.000001000.00000
     Eigenvalues --- 1000.000001000.000001000.000001000.000001000.00000
     Eigenvalues --- 1000.000001000.000001000.000001000.000001000.00000
     Eigenvalues --- 1000.000001000.000001000.000001000.000001000.00000
     Eigenvalues --- 1000.00000
 RFO step:  Lambda=-1.02437298D+00 EMin= 3.22980366D-03
 Linear search not attempted -- first point.
 Maximum step size (   0.300) exceeded in Quadratic search.
    -- Step size scaled by   0.419
 Iteration  1 RMS(Cart)=  0.03284376 RMS(Int)=  0.00065519
 Iteration  2 RMS(Cart)=  0.00045309 RMS(Int)=  0.00031863
 Iteration  3 RMS(Cart)=  0.00000070 RMS(Int)=  0.00031863
 Iteration  1 RMS(Cart)=  0.00001385 RMS(Int)=  0.00000529
 Iteration  2 RMS(Cart)=  0.00000748 RMS(Int)=  0.00000591
 Iteration  3 RMS(Cart)=  0.00000404 RMS(Int)=  0.00000667
 Iteration  4 RMS(Cart)=  0.00000218 RMS(Int)=  0.00000716
 Iteration  5 RMS(Cart)=  0.00000118 RMS(Int)=  0.00000745
 Iteration  6 RMS(Cart)=  0.00000064 RMS(Int)=  0.00000761
 Variable       Old X    -DE/DX   Delta X   Delta X   Delta X     New X
                                 (Linear)    (Quad)   (Total)
    R1        3.10494   0.00153   0.00000   0.00044   0.00044   3.10538
    R2        3.10403  -0.00647   0.00000  -0.00186  -0.00186   3.10217
    R3        3.11124   0.00592   0.00000   0.00171   0.00171   3.11295
    R4        3.12565  -0.10738   0.00000  -0.03153  -0.03157   3.09408
    R5        5.82568   0.10772   0.00000   0.04275   0.04280   5.86848
    R6        3.10715   0.02596   0.00000   0.00746   0.00746   3.11461
    R7        3.10758   0.01782   0.00000   0.00512   0.00512   3.11271
[...]
 Alpha virt. eigenvalues --    3.00644   3.02760   3.08173   3.28835   3.46450
 Alpha virt. eigenvalues --    3.48315   3.48824   3.49457   3.49591   3.58147
 Alpha virt. eigenvalues --    3.60596   3.61691   3.63263   3.65786   3.72101
 Alpha virt. eigenvalues --    3.79844   4.08736   4.17263   4.91965  30.89279
          Condensed to atoms (all electrons):
               1          2          3          4          5          6
     1  Si  24.273572  -1.734095  -2.863305  -1.818426  -3.736738   0.088820
     2  O   -1.734095   9.886163   0.703363   0.032229   0.383590  -0.004815
     3  O   -2.863305   0.703363  10.949670   0.575247   0.853876  -0.008966
     4  O   -1.818426   0.032229   0.575247   9.750544   0.645831  -0.583276
     5  O   -3.736738   0.383590   0.853876   0.645831  10.185860  -0.092084
     6  Si   0.088820  -0.004815  -0.008966  -0.583276  -0.092084  13.322373
     7  Si  -2.058864   0.001706  -1.942320   0.051096   0.292280   0.018810
     8  Si   0.027773  -0.550625  -0.154568   0.077008  -0.008350  -0.181057
     9  Zr  -0.223508  -0.001332  -0.147189  -0.062322   0.072584  -0.000645
    10  O   -0.016244   0.001000   0.001486   0.001089  -0.018678  -0.000311
    11  O   -0.005545  -0.000844  -0.002702   0.000211  -0.020546  -0.000685
    12  O   -0.011094   0.003021   0.009908  -0.006410  -0.011215  -0.001839
    13  O   -0.023438   0.213798  -0.004939  -0.013017  -0.004121   0.068567
    14  O   -0.132669   0.356343   0.108168  -0.021294   0.004367   0.008585
    15  O   -0.003757   0.064345   0.007349   0.003381  -0.003520  -0.013860
    16  O    0.033360   0.009807   0.003991   0.219747  -0.004594  -0.383325
    17  O   -0.089894  -0.064601   0.058564   0.257831   0.034963  -0.386838
    18  O   -0.088933  -0.015995  -0.026689   0.179348   0.007724  -0.316200
    19  O    0.128589  -0.003820   0.505354   0.008983  -0.012970  -0.010553
    20  O    0.225453  -0.016182   0.440374  -0.007531  -0.022088  -0.001484
    21  O    0.047966   0.041980   0.380453  -0.005618  -0.016045   0.004776
    22  H    0.001617  -0.000004   0.000492   0.000151   0.000411  -0.000117
    23  H   -0.001515   0.000006  -0.000010  -0.000001  -0.000830  -0.000044
    24  H   -0.002439   0.000146   0.000256   0.000000  -0.000359   0.000029
    25  H    0.001170  -0.006505   0.000253   0.003032   0.000102   0.005257
    26  H   -0.007678  -0.020365   0.000256  -0.000049   0.000105  -0.000151
    27  H    0.031577  -0.034682  -0.021024  -0.004910  -0.000995   0.003564
    28  H   -0.012414   0.000074  -0.002199   0.000552   0.003230  -0.000192
    29  H   -0.007896  -0.004667  -0.029412   0.000203  -0.000139  -0.000537
    30  H   -0.000906   0.000051  -0.010710  -0.000149   0.000133  -0.000737
    31  H    0.002284  -0.001715   0.000156  -0.021920  -0.000041   0.075206
    32  H    0.000396  -0.000168   0.000429   0.005044   0.000080   0.027662
    33  H   -0.019757   0.002238  -0.009564  -0.012096  -0.000870   0.057351
               7          8          9         10         11         12
     1  Si  -2.058864   0.027773  -0.223508  -0.016244  -0.005545  -0.011094
     2  O    0.001706  -0.550625  -0.001332   0.001000  -0.000844   0.003021
     3  O   -1.942320  -0.154568  -0.147189   0.001486  -0.002702   0.009908
     4  O    0.051096   0.077008  -0.062322   0.001089   0.000211  -0.006410
     5  O    0.292280  -0.008350   0.072584  -0.018678  -0.020546  -0.011215
     6  Si   0.018810  -0.181057  -0.000645  -0.000311  -0.000685  -0.001839
     7  Si  17.214319   0.094038   0.021871  -0.000706  -0.005264   0.016636
     8  Si   0.094038  12.733541   0.019206   0.000223   0.001401   0.001216
     9  Zr   0.021871   0.019206  11.049748  -0.000764   0.005155   0.080239
    10  O   -0.000706   0.000223  -0.000764   8.624283  -0.048208  -0.028468
    11  O   -0.005264   0.001401   0.005155  -0.048208   8.619412  -0.033310
    12  O    0.016636   0.001216   0.080239  -0.028468  -0.033310   8.510703
    13  O    0.008909  -0.116630  -0.005118  -0.000001  -0.000024   0.000002
    14  O   -0.049860  -0.471633  -0.016751   0.000005   0.000096  -0.000134
    15  O   -0.007676  -0.061652  -0.005320  -0.000000   0.000218  -0.000010
    16  O    0.000220  -0.014954  -0.010012   0.000010   0.000002   0.000034
    17  O   -0.060589   0.111961  -0.012596   0.000007  -0.000007  -0.000078
    18  O   -0.001353   0.114526  -0.010038   0.000003  -0.000003  -0.000007
    19  O   -0.794379  -0.012060  -0.022509  -0.000021   0.000029  -0.003312
    20  O   -0.857229   0.000470   0.020236  -0.000293   0.000289  -0.011619
    21  O   -0.462198  -0.042465  -0.026004   0.000014   0.000246  -0.001009
    22  H   -0.002635  -0.000040  -0.033214  -0.003250   0.000103   0.279013
    23  H   -0.000064   0.000033  -0.085126   0.331780  -0.001605  -0.000321
    24  H   -0.000329  -0.000230  -0.083638  -0.000535   0.330254  -0.000920
    25  H   -0.000770   0.041687   0.000085   0.000000   0.000000  -0.000000
    26  H    0.000407   0.072731   0.000058  -0.000000  -0.000003   0.000000
    27  H    0.013203   0.088090   0.001888  -0.000000  -0.000000   0.000001
    28  H    0.028668  -0.000228  -0.004136   0.000177  -0.000228   0.037416
    29  H    0.073263   0.020036   0.001409  -0.000000  -0.000003   0.000038
    30  H    0.060686  -0.000274   0.000671   0.000000  -0.000000   0.000027
    31  H    0.000249  -0.004614   0.000263  -0.000000   0.000000   0.000000
    32  H   -0.000407   0.000116   0.000643  -0.000000  -0.000000  -0.000002
    33  H    0.023963  -0.003000  -0.000198  -0.000000  -0.000000   0.000018
              13         14         15         16         17         18
     1  Si  -0.023438  -0.132669  -0.003757   0.033360  -0.089894  -0.088933
     2  O    0.213798   0.356343   0.064345   0.009807  -0.064601  -0.015995
     3  O   -0.004939   0.108168   0.007349   0.003991   0.058564  -0.026689
     4  O   -0.013017  -0.021294   0.003381   0.219747   0.257831   0.179348
     5  O   -0.004121   0.004367  -0.003520  -0.004594   0.034963   0.007724
     6  Si   0.068567   0.008585  -0.013860  -0.383325  -0.386838  -0.316200
     7  Si   0.008909  -0.049860  -0.007676   0.000220  -0.060589  -0.001353
     8  Si  -0.116630  -0.471633  -0.061652  -0.014954   0.111961   0.114526
     9  Zr  -0.005118  -0.016751  -0.005320  -0.010012  -0.012596  -0.010038
    10  O   -0.000001   0.000005  -0.000000   0.000010   0.000007   0.000003
    11  O   -0.000024   0.000096   0.000218   0.000002  -0.000007  -0.000003
    12  O    0.000002  -0.000134  -0.000010   0.000034  -0.000078  -0.000007
    13  O    8.627649   0.007833  -0.078822   0.002936  -0.025443  -0.042573
    14  O    0.007833   9.005409   0.074422   0.005396  -0.060565  -0.030197
    15  O   -0.078822   0.074422   8.620074  -0.000206   0.003624   0.001905
    16  O    0.002936   0.005396  -0.000206   8.883163  -0.135027  -0.083442
    17  O   -0.025443  -0.060565   0.003624  -0.135027   9.031562   0.190639
    18  O   -0.042573  -0.030197   0.001905  -0.083442   0.190639   8.930724
    19  O    0.000220   0.009188   0.000199  -0.000094  -0.011469  -0.000513
    20  O    0.000034  -0.003471   0.000123  -0.000203   0.001985   0.000109
    21  O   -0.001234   0.044086   0.003224   0.000002  -0.006042  -0.000083
    22  H    0.000000  -0.000001  -0.000000  -0.000000  -0.000000  -0.000000
    23  H    0.000000  -0.000000   0.000000   0.000000   0.000000   0.000000
    24  H    0.000000   0.000001  -0.000006   0.000000  -0.000000  -0.000000
    25  H    0.229148  -0.008445   0.007652   0.000262  -0.000572   0.009921
    26  H   -0.006827   0.004219   0.229117   0.000000  -0.000016   0.000007
    27  H   -0.003055   0.184318   0.001948  -0.000123   0.016840   0.001384
    28  H    0.000000   0.000039  -0.000002  -0.000003   0.000002   0.000000
    29  H    0.000446   0.004982  -0.000343  -0.000009  -0.000621   0.000031
    30  H    0.000000  -0.000039   0.000000  -0.000019   0.000325  -0.000005
    31  H    0.002268  -0.000067  -0.000017  -0.000961   0.001362   0.214089
    32  H   -0.000002  -0.000011   0.000000   0.232048  -0.002369   0.004152
    33  H    0.000475   0.000290  -0.000099   0.001614   0.214161   0.003072
              19         20         21         22         23         24
     1  Si   0.128589   0.225453   0.047966   0.001617  -0.001515  -0.002439
     2  O   -0.003820  -0.016182   0.041980  -0.000004   0.000006   0.000146
     3  O    0.505354   0.440374   0.380453   0.000492  -0.000010   0.000256
     4  O    0.008983  -0.007531  -0.005618   0.000151  -0.000001   0.000000
     5  O   -0.012970  -0.022088  -0.016045   0.000411  -0.000830  -0.000359
     6  Si  -0.010553  -0.001484   0.004776  -0.000117  -0.000044   0.000029
     7  Si  -0.794379  -0.857229  -0.462198  -0.002635  -0.000064  -0.000329
     8  Si  -0.012060   0.000470  -0.042465  -0.000040   0.000033  -0.000230
     9  Zr  -0.022509   0.020236  -0.026004  -0.033214  -0.085126  -0.083638
    10  O   -0.000021  -0.000293   0.000014  -0.003250   0.331780  -0.000535
    11  O    0.000029   0.000289   0.000246   0.000103  -0.001605   0.330254
    12  O   -0.003312  -0.011619  -0.001009   0.279013  -0.000321  -0.000920
    13  O    0.000220   0.000034  -0.001234   0.000000   0.000000   0.000000
    14  O    0.009188  -0.003471   0.044086  -0.000001  -0.000000   0.000001
    15  O    0.000199   0.000123   0.003224  -0.000000   0.000000  -0.000006
    16  O   -0.000094  -0.000203   0.000002  -0.000000   0.000000   0.000000
    17  O   -0.011469   0.001985  -0.006042  -0.000000   0.000000  -0.000000
    18  O   -0.000513   0.000109  -0.000083  -0.000000   0.000000  -0.000000
    19  O    8.930566   0.062033   0.012201   0.000083  -0.000000  -0.000000
    20  O    0.062033   8.749237   0.061217   0.002126  -0.000001   0.000018
    21  O    0.012201   0.061217   8.624913  -0.000050   0.000000  -0.000000
    22  H    0.000083   0.002126  -0.000050   0.360061  -0.000013  -0.000004
    23  H   -0.000000  -0.000001   0.000000  -0.000013   0.370711  -0.000004
    24  H   -0.000000   0.000018  -0.000000  -0.000004  -0.000004   0.371162
    25  H   -0.000019   0.000001   0.000015  -0.000000  -0.000000  -0.000000
    26  H   -0.000000  -0.000000   0.000001   0.000000  -0.000000   0.000000
    27  H   -0.001868   0.000037  -0.006178   0.000000   0.000000  -0.000000
    28  H   -0.004360   0.228911  -0.002614  -0.001987   0.000000  -0.000000
    29  H   -0.008765   0.003084   0.211555   0.000000  -0.000000  -0.000000
    30  H    0.223121  -0.006933  -0.006141   0.000000   0.000000   0.000000
    31  H    0.000004  -0.000000  -0.000001   0.000000  -0.000000  -0.000000
    32  H    0.000028   0.000001   0.000000   0.000000  -0.000000   0.000000
    33  H    0.013887  -0.000310   0.001242  -0.000000  -0.000000   0.000000
              25         26         27         28         29         30
     1  Si   0.001170  -0.007678   0.031577  -0.012414  -0.007896  -0.000906
     2  O   -0.006505  -0.020365  -0.034682   0.000074  -0.004667   0.000051
     3  O    0.000253   0.000256  -0.021024  -0.002199  -0.029412  -0.010710
     4  O    0.003032  -0.000049  -0.004910   0.000552   0.000203  -0.000149
     5  O    0.000102   0.000105  -0.000995   0.003230  -0.000139   0.000133
     6  Si   0.005257  -0.000151   0.003564  -0.000192  -0.000537  -0.000737
     7  Si  -0.000770   0.000407   0.013203   0.028668   0.073263   0.060686
     8  Si   0.041687   0.072731   0.088090  -0.000228   0.020036  -0.000274
     9  Zr   0.000085   0.000058   0.001888  -0.004136   0.001409   0.000671
    10  O    0.000000  -0.000000  -0.000000   0.000177  -0.000000   0.000000
    11  O    0.000000  -0.000003  -0.000000  -0.000228  -0.000003  -0.000000
    12  O   -0.000000   0.000000   0.000001   0.037416   0.000038   0.000027
    13  O    0.229148  -0.006827  -0.003055   0.000000   0.000446   0.000000
    14  O   -0.008445   0.004219   0.184318   0.000039   0.004982  -0.000039
    15  O    0.007652   0.229117   0.001948  -0.000002  -0.000343   0.000000
    16  O    0.000262   0.000000  -0.000123  -0.000003  -0.000009  -0.000019
    17  O   -0.000572  -0.000016   0.016840   0.000002  -0.000621   0.000325
    18  O    0.009921   0.000007   0.001384   0.000000   0.000031  -0.000005
    19  O   -0.000019  -0.000000  -0.001868  -0.004360  -0.008765   0.223121
    20  O    0.000001  -0.000000   0.000037   0.228911   0.003084  -0.006933
    21  O    0.000015   0.000001  -0.006178  -0.002614   0.211555  -0.006141
    22  H   -0.000000   0.000000   0.000000  -0.001987   0.000000   0.000000
    23  H   -0.000000  -0.000000   0.000000   0.000000  -0.000000   0.000000
    24  H   -0.000000   0.000000  -0.000000  -0.000000  -0.000000   0.000000
    25  H    0.305685  -0.000028  -0.000009  -0.000000  -0.000002   0.000000
    26  H   -0.000028   0.357298  -0.000053   0.000000   0.000006   0.000000
    27  H   -0.000009  -0.000053   0.304581  -0.000000  -0.000147  -0.000004
    28  H   -0.000000   0.000000  -0.000000   0.280206  -0.000025   0.000021
    29  H   -0.000002   0.000006  -0.000147  -0.000025   0.305532   0.000138
    30  H    0.000000   0.000000  -0.000004   0.000021   0.000138   0.344641
    31  H   -0.000660   0.000000   0.000012   0.000000   0.000000   0.000000
    32  H   -0.000001  -0.000000  -0.000000   0.000000  -0.000000   0.000000
    33  H   -0.000002   0.000000  -0.001418   0.000000   0.000123  -0.000778
              31         32         33
     1  Si   0.002284   0.000396  -0.019757
     2  O   -0.001715  -0.000168   0.002238
     3  O    0.000156   0.000429  -0.009564
     4  O   -0.021920   0.005044  -0.012096
     5  O   -0.000041   0.000080  -0.000870
     6  Si   0.075206   0.027662   0.057351
     7  Si   0.000249  -0.000407   0.023963
     8  Si  -0.004614   0.000116  -0.003000
     9  Zr   0.000263   0.000643  -0.000198
    10  O   -0.000000  -0.000000  -0.000000
    11  O    0.000000  -0.000000  -0.000000
    12  O    0.000000  -0.000002   0.000018
    13  O    0.002268  -0.000002   0.000475
    14  O   -0.000067  -0.000011   0.000290
    15  O   -0.000017   0.000000  -0.000099
    16  O   -0.000961   0.232048   0.001614
    17  O    0.001362  -0.002369   0.214161
    18  O    0.214089   0.004152   0.003072
    19  O    0.000004   0.000028   0.013887
    20  O   -0.000000   0.000001  -0.000310
    21  O   -0.000001   0.000000   0.001242
    22  H    0.000000   0.000000  -0.000000
    23  H   -0.000000  -0.000000  -0.000000
    24  H   -0.000000   0.000000   0.000000
    25  H   -0.000660  -0.000001  -0.000002
    26  H    0.000000  -0.000000   0.000000
    27  H    0.000012  -0.000000  -0.001418
    28  H    0.000000   0.000000   0.000000
    29  H    0.000000  -0.000000   0.000123
    30  H    0.000000   0.000000  -0.000778
    31  H    0.338941   0.000015  -0.000044
    32  H    0.000015   0.350002   0.000143
    33  H   -0.000044   0.000143   0.273346
 Mulliken charges:
               1
     1  Si   1.996537
     2  O   -1.239442
     3  O   -1.376046
     4  O   -1.254506
     5  O   -0.530951
     6  Si   2.306716
     7  Si   2.324320
     8  Si   2.218327
     9  Zr   1.476362
    10  O   -0.842599
    11  O   -0.838437
    12  O   -0.828524
    13  O   -0.837039
    14  O   -1.022611
    15  O   -0.842293
    16  O   -0.759622
    17  O   -1.067097
    18  O   -1.041604
    19  O   -1.007775
    20  O   -0.868395
    21  O   -0.858208
    22  H    0.397257
    23  H    0.387004
    24  H    0.386598
    25  H    0.412742
    26  H    0.370966
    27  H    0.427026
    28  H    0.449090
    29  H    0.431718
    30  H    0.396879
    31  H    0.395190
    32  H    0.382200
    33  H    0.456215
 Sum of Mulliken charges =  -0.00000
 Mulliken charges with hydrogens summed into heavy atoms:
               1
     1  Si   1.996537
     2  O   -1.239442
     3  O   -1.376046
     4  O   -1.254506
     5  O   -0.530951
     6  Si   2.306716
     7  Si   2.324320
     8  Si   2.218327
     9  Zr   1.476362
    10  O   -0.455595
    11  O   -0.451839
    12  O   -0.431266
    13  O   -0.424297
    14  O   -0.595585
    15  O   -0.471327
    16  O   -0.377421
    17  O   -0.610882
    18  O   -0.646413
    19  O   -0.610896
    20  O   -0.419306
    21  O   -0.426490
 Electronic spatial extent (au):  <R**2>=           8616.2500
 Charge=              0.0000 electrons
 Dipole moment (field-independent basis, Debye):
    X=              4.7999    Y=             -4.2680    Z=             -2.5098  Tot=              6.8959
 Quadrupole moment (field-independent basis, Debye-Ang):
   XX=           -151.3190   YY=           -163.1443   ZZ=           -151.7508
   XY=             -3.0533   XZ=              5.7079   YZ=             -4.4003
 Traceless Quadrupole moment (field-independent basis, Debye-Ang):
   XX=              4.0857   YY=             -7.7397   ZZ=              3.6539
   XY=             -3.0533   XZ=              5.7079   YZ=             -4.4003
 Octapole moment (field-independent basis, Debye-Ang**2):
  XXX=            250.0173  YYY=            -97.9304  ZZZ=             26.9616  XYY=              7.4106
  XXY=            -49.1703  XXZ=            -19.1391  XZZ=             75.8153  YZZ=            -11.2408
  YYZ=            -35.9530  XYZ=             20.0377
 Hexadecapole moment (field-independent basis, Debye-Ang**3):
 XXXX=          -5854.3102 YYYY=          -2535.8912 ZZZZ=          -2090.7564 XXXY=           -169.4664
 XXXZ=             33.7246 YYYX=           -144.8761 YYYZ=            -53.6723 ZZZX=             -5.9414
 ZZZY=            -69.9056 XXYY=          -1183.9400 XXZZ=          -1450.5963 YYZZ=           -788.3686
 XXYZ=            -12.3105 YYXZ=            106.7286 ZZXY=             -4.0575
 N-N= 2.975109462346D+03 E-N=-1.166310754638D+04  KE= 2.373159091980D+03
 1\1\GINC-GRA725\FOpt\RB3LYP\Gen\H12O16Si4Zr1\SARASHS\30-Jul-2020\0\\#n
  B3LYP/Gen Pseudo=cards EmpiricalDispersion=GD3 Opt=modredundant\\Titl
 e\\0,1\Si,-4.1140859787,1.7315853853,0.1110951057\O,-2.5789384659,1.86
 6747146,0.655552337\O,-4.6556904221,3.1923277229,-0.3634192191\O,-5.08
 46992101,1.1913015294,1.3377537125\O,-4.2408832156,0.766502112,-1.1884
 209123\Si,-5.2959747771,1.7847945391,2.8609585204\Si,-5.1190585345,4.7
 411853043,-0.5165877758\Si,-1.7282904528,2.9160055985,1.6226256146\Zr,
 -4.7171101004,0.9417138951,-3.096770546\O,-5.423339828,-0.7270191236,-
 3.762520231\O,-3.1624974225,1.5012646783,-4.0833402077\O,-6.1178416957
 ,2.3472254345,-3.2432626211\O,-1.4474576656,2.1792786605,3.0621422741\
 O,-2.5845173112,4.3304883963,1.7736335995\O,-0.3137184672,3.3417449443
 ,0.9127334694\O,-6.7236168434,1.2021126812,3.4378546272\O,-5.130726479
 4,3.4213796192,2.8659918778\O,-4.0845504131,1.2960232541,3.8861053163\
 O,-6.1500820723,4.9407839845,0.8029621875\O,-5.9036105705,4.9440299666
 ,-1.9360179195\O,-3.8633090415,5.7862905999,-0.4107433096\H,-6.9855086
 65,2.3741876657,-3.6617177688\H,-5.4986083565,-1.5859740749,-4.1812699
 558\H,-2.3873563211,1.9023886866,-4.4783435888\H,-2.2194127652,1.75895
 86357,3.480082803\H,0.3945681241,2.6897020747,0.9272811791\H,-3.343206
 7763,4.2496112368,2.3793259042\H,-6.0008015403,4.1208422194,-2.4534160
 27\H,-3.2294498982,5.5467895556,0.2907538794\H,-6.4853844353,5.8317906
 189,0.9587564646\H,-4.2554626859,0.4901193503,4.3867824407\H,-7.335502
 6863,0.8400574387,2.7872894876\H,-5.6429450263,3.9462002642,2.21036928
 19\\Version=ES64L-G16RevB.01\State=1-A\HF=-2416.9405477\RMSD=2.170e-09
 \RMSF=5.742e-04\Dipole=-1.2665518,-2.0973758,-1.1651505\Quadrupole=1.2
 999312,-4.0327264,2.7327953,-3.3261125,-3.2417706,4.9438289\PG=C01 [X(
 H12O16Si4Zr1)]\\@


 The hours that make us happy make us wise.
                         -- John Masefield
 Job cpu time:       2 days 19 hours  0 minutes 11.6 seconds.
 Elapsed time:       0 days  4 hours 54 minutes 42.1 seconds.
 File lengths (MBytes):  RWF=    167 Int=      0 D2E=      0 Chk=     21 Scr=      1
 Normal termination of Gaussian 16 at Thu Jul 30 01:01:19 2020.
