 Entering Gaussian System, Link 0=g16
 Initial command:
 /opt/software/gaussian/g16.b01/l1.exe "/localscratch/sarashs.36567443.0/Gau-11492.inp" -scrdir="/localscratch/sarashs.36567443.0/"
 Entering Link 1 = /opt/software/gaussian/g16.b01/l1.exe PID=     11493.
  
 Copyright (c) 1988-2017, Gaussian, Inc.  All Rights Reserved.
  
 This is part of the Gaussian(R) 16 program.  It is based on
 the Gaussian(R) 09 system (copyright 2009, Gaussian, Inc.),
 the Gaussian(R) 03 system (copyright 2003, Gaussian, Inc.),
 the Gaussian(R) 98 system (copyright 1998, Gaussian, Inc.),
 the Gaussian(R) 94 system (copyright 1995, Gaussian, Inc.),
 the Gaussian 92(TM) system (copyright 1992, Gaussian, Inc.),
 the Gaussian 90(TM) system (copyright 1990, Gaussian, Inc.),
 the Gaussian 88(TM) system (copyright 1988, Gaussian, Inc.),
 the Gaussian 86(TM) system (copyright 1986, Carnegie Mellon
 University), and the Gaussian 82(TM) system (copyright 1983,
 Carnegie Mellon University). Gaussian is a federally registered
 trademark of Gaussian, Inc.
  
 This software contains proprietary and confidential information,
 including trade secrets, belonging to Gaussian, Inc.
  
 This software is provided under written license and may be
 used, copied, transmitted, or stored only in accord with that
 written license.
  
 The following legend is applicable only to US Government
 contracts under FAR:
  
                    RESTRICTED RIGHTS LEGEND
  
 Use, reproduction and disclosure by the US Government is
 subject to restrictions as set forth in subparagraphs (a)
 and (c) of the Commercial Computer Software - Restricted
 Rights clause in FAR 52.227-19.
  
 Gaussian, Inc.
 340 Quinnipiac St., Bldg. 40, Wallingford CT 06492
  
  
 ---------------------------------------------------------------
 Warning -- This program may not be used in any manner that
 competes with the business of Gaussian, Inc. or will provide
 assistance to any competitor of Gaussian, Inc.  The licensee
 of this program is prohibited from giving any competitor of
 Gaussian, Inc. access to this program.  By using this program,
 the user acknowledges that Gaussian, Inc. is engaged in the
 business of creating and licensing software in the field of
 computational chemistry and represents and warrants to the
 licensee that it is not a competitor of Gaussian, Inc. and that
 it will not use this program in any manner prohibited above.
 ---------------------------------------------------------------
  

 Cite this work as:
 Gaussian 16, Revision B.01,
 M. J. Frisch, G. W. Trucks, H. B. Schlegel, G. E. Scuseria, 
 M. A. Robb, J. R. Cheeseman, G. Scalmani, V. Barone, 
 G. A. Petersson, H. Nakatsuji, X. Li, M. Caricato, A. V. Marenich, 
 J. Bloino, B. G. Janesko, R. Gomperts, B. Mennucci, H. P. Hratchian, 
 J. V. Ortiz, A. F. Izmaylov, J. L. Sonnenberg, D. Williams-Young, 
 F. Ding, F. Lipparini, F. Egidi, J. Goings, B. Peng, A. Petrone, 
 T. Henderson, D. Ranasinghe, V. G. Zakrzewski, J. Gao, N. Rega, 
 G. Zheng, W. Liang, M. Hada, M. Ehara, K. Toyota, R. Fukuda, 
 J. Hasegawa, M. Ishida, T. Nakajima, Y. Honda, O. Kitao, H. Nakai, 
 T. Vreven, K. Throssell, J. A. Montgomery, Jr., J. E. Peralta, 
 F. Ogliaro, M. J. Bearpark, J. J. Heyd, E. N. Brothers, K. N. Kudin, 
 V. N. Staroverov, T. A. Keith, R. Kobayashi, J. Normand, 
 K. Raghavachari, A. P. Rendell, J. C. Burant, S. S. Iyengar, 
 J. Tomasi, M. Cossi, J. M. Millam, M. Klene, C. Adamo, R. Cammi, 
 J. W. Ochterski, R. L. Martin, K. Morokuma, O. Farkas, 
 J. B. Foresman, and D. J. Fox, Gaussian, Inc., Wallingford CT, 2016.
 
 ******************************************
 Gaussian 16:  ES64L-G16RevB.01 20-Dec-2017
                29-Jul-2020 
 ******************************************
 %NProcShared=16
 Will use up to   16 processors via shared memory.
 ------------------------------------------------------------------
 #n B3LYP/Gen Pseudo=cards EmpiricalDispersion=GD3 Opt=modredundant
 ------------------------------------------------------------------
 1/18=120,19=15,26=3,38=1/1,3;
 2/9=110,12=2,17=6,18=5,40=1/2;
 3/5=7,11=2,16=1,17=8,25=1,30=1,71=1,74=-5,124=31/1,2,3;
 4//1;
 5/5=2,38=5/2;
 6/7=2,8=2,9=2,10=2,28=1/1;
 7//1,2,3,16;
 1/18=20,19=15,26=3/3(2);
 2/9=110/2;
 99//99;
 2/9=110/2;
 3/5=7,6=1,11=2,16=1,17=8,25=1,30=1,71=1,74=-5,82=7,124=31/1,2,3;
 4/5=5,16=3,69=1/1;
 5/5=2,38=5/2;
 7//1,2,3,16;
 1/18=20,19=15,26=3/3(-5);
 2/9=110/2;
 6/7=2,8=2,9=2,10=2,19=2,28=1/1;
 99/9=1/99;
 -----
 Title
 -----
 Symbolic Z-matrix:
 Charge =  0 Multiplicity = 1
 Si                   -0.13817   0.15907  -0.88672 
 O                    -1.00571  -1.21557  -1.00367 
 O                     0.58179   0.25267   0.61501 
 O                    -1.1339    1.45311  -1.10627 
 O                     1.18134   0.19206  -1.82677 
 Si                   -2.69339   1.74371  -0.65114 
 Si                    0.45246   0.31404   2.26262 
 Si                   -2.1548   -2.1204   -0.22503 
 Zr                    2.80294  -0.02444  -0.63605 
 O                     4.3251    0.0113   -1.81688 
 O                     2.77673  -1.72841   0.27206 
 O                     3.12759   1.46471   0.66949 
 O                    -3.55825  -2.00436  -1.06221 
 O                    -2.28687  -1.57711   1.34004 
 O                    -1.66915  -3.67748  -0.08045 
 O                    -3.00596   3.33412  -0.93077 
 O                    -2.92057   1.21838   0.89035 
 O                    -3.78511   0.84272  -1.51643 
 O                    -0.76335   1.45159   2.52316 
 O                     1.87673   0.80442   2.88257 
 O                     0.04596  -1.13257   2.9006 
 H                     3.88245   2.06022   0.73669 
 H                     5.07444  -0.27479  -2.3418 
 H                     2.40582  -2.31116   0.94027 
 H                    -3.79221  -1.10963  -1.36628 
 H                    -1.5614   -4.18568  -0.89124 
 H                    -2.80623  -0.75615   1.40497 
 H                     2.4905    1.16992   2.20997 
 H                    -0.78842  -1.49858   2.54684 
 H                    -0.84185   1.77955   3.42764 
 H                    -4.15196   1.2615   -2.30365 
 H                    -2.24428   3.9095   -1.06409 
 H                    -2.21087   1.44549   1.53341 
 
 The following ModRedundant input section has been read:
 A       1       5       9 F                                                   
 

 GradGradGradGradGradGradGradGradGradGradGradGradGradGradGradGradGradGrad
 Berny optimization.
 Initialization pass.
                           ----------------------------
                           !    Initial Parameters    !
                           ! (Angstroms and Degrees)  !
 --------------------------                            --------------------------
 ! Name  Definition              Value          Derivative Info.                !
 --------------------------------------------------------------------------------
 ! R1    R(1,2)                  1.6297         estimate D2E/DX2                !
 ! R2    R(1,3)                  1.668          estimate D2E/DX2                !
 ! R3    R(1,4)                  1.6475         estimate D2E/DX2                !
 ! R4    R(1,5)                  1.6205         estimate D2E/DX2                !
 ! R5    R(1,9)                  2.9575         estimate D2E/DX2                !
 ! R6    R(2,8)                  1.6569         estimate D2E/DX2                !
 ! R7    R(3,7)                  1.6538         estimate D2E/DX2                !
 ! R8    R(4,6)                  1.6503         estimate D2E/DX2                !
 ! R9    R(5,9)                  2.0234         estimate D2E/DX2                !
 ! R10   R(6,16)                 1.6448         estimate D2E/DX2                !
 ! R11   R(6,17)                 1.6443         estimate D2E/DX2                !
 ! R12   R(6,18)                 1.659          estimate D2E/DX2                !
 ! R13   R(7,19)                 1.6853         estimate D2E/DX2                !
 ! R14   R(7,20)                 1.6289         estimate D2E/DX2                !
 ! R15   R(7,21)                 1.6325         estimate D2E/DX2                !
 ! R16   R(8,13)                 1.6383         estimate D2E/DX2                !
 ! R17   R(8,14)                 1.6619         estimate D2E/DX2                !
 ! R18   R(8,15)                 1.6375         estimate D2E/DX2                !
 ! R19   R(9,10)                 1.9268         estimate D2E/DX2                !
 ! R20   R(9,11)                 1.931          estimate D2E/DX2                !
 ! R21   R(9,12)                 2.0068         estimate D2E/DX2                !
 ! R22   R(10,23)                0.9586         estimate D2E/DX2                !
 ! R23   R(11,24)                0.9611         estimate D2E/DX2                !
 ! R24   R(12,22)                0.9638         estimate D2E/DX2                !
 ! R25   R(13,25)                0.9735         estimate D2E/DX2                !
 ! R26   R(14,27)                0.9736         estimate D2E/DX2                !
 ! R27   R(15,26)                0.9629         estimate D2E/DX2                !
 ! R28   R(16,32)                0.9638         estimate D2E/DX2                !
 ! R29   R(17,33)                0.9843         estimate D2E/DX2                !
 ! R30   R(18,31)                0.9642         estimate D2E/DX2                !
 ! R31   R(19,30)                0.9653         estimate D2E/DX2                !
 ! R32   R(20,28)                0.9812         estimate D2E/DX2                !
 ! R33   R(21,29)                0.9774         estimate D2E/DX2                !
 ! A1    A(2,1,3)              109.9808         estimate D2E/DX2                !
 ! A2    A(2,1,4)              109.3435         estimate D2E/DX2                !
 ! A3    A(2,1,5)              114.1426         estimate D2E/DX2                !
 ! A4    A(2,1,9)              118.8899         estimate D2E/DX2                !
 ! A5    A(3,1,4)              109.6804         estimate D2E/DX2                !
 ! A6    A(3,1,5)               99.7688         estimate D2E/DX2                !
 ! A7    A(3,1,9)               59.8634         estimate D2E/DX2                !
 ! A8    A(4,1,5)              113.5061         estimate D2E/DX2                !
 ! A9    A(4,1,9)              131.3824         estimate D2E/DX2                !
 ! A10   A(1,2,8)              142.7567         estimate D2E/DX2                !
 ! A11   A(1,3,7)              149.9119         estimate D2E/DX2                !
 ! A12   A(1,4,6)              132.2743         estimate D2E/DX2                !
 ! A13   A(1,5,9)              108.0001         Frozen                          !
 ! A14   A(4,6,16)             107.6353         estimate D2E/DX2                !
 ! A15   A(4,6,17)             109.4409         estimate D2E/DX2                !
 ! A16   A(4,6,18)             112.4799         estimate D2E/DX2                !
 ! A17   A(16,6,17)            116.2345         estimate D2E/DX2                !
 ! A18   A(16,6,18)            108.144          estimate D2E/DX2                !
 ! A19   A(17,6,18)            102.9751         estimate D2E/DX2                !
 ! A20   A(3,7,19)             103.6202         estimate D2E/DX2                !
 ! A21   A(3,7,20)             108.7814         estimate D2E/DX2                !
 ! A22   A(3,7,21)             112.0818         estimate D2E/DX2                !
 ! A23   A(19,7,20)            111.639          estimate D2E/DX2                !
 ! A24   A(19,7,21)            110.9828         estimate D2E/DX2                !
 ! A25   A(20,7,21)            109.6189         estimate D2E/DX2                !
 ! A26   A(2,8,13)             108.3776         estimate D2E/DX2                !
 ! A27   A(2,8,14)             108.6105         estimate D2E/DX2                !
 ! A28   A(2,8,15)             110.799          estimate D2E/DX2                !
 ! A29   A(13,8,14)            112.954          estimate D2E/DX2                !
 ! A30   A(13,8,15)            111.5028         estimate D2E/DX2                !
 ! A31   A(14,8,15)            104.553          estimate D2E/DX2                !
 ! A32   A(1,9,10)             137.0984         estimate D2E/DX2                !
 ! A33   A(1,9,11)              94.6527         estimate D2E/DX2                !
 ! A34   A(1,9,12)              99.7862         estimate D2E/DX2                !
 ! A35   A(5,9,10)             105.6931         estimate D2E/DX2                !
 ! A36   A(5,9,11)             111.1172         estimate D2E/DX2                !
 ! A37   A(5,9,12)             115.6628         estimate D2E/DX2                !
 ! A38   A(10,9,11)            108.3785         estimate D2E/DX2                !
 ! A39   A(10,9,12)            104.8992         estimate D2E/DX2                !
 ! A40   A(11,9,12)            110.5514         estimate D2E/DX2                !
 ! A41   A(9,10,23)            161.3686         estimate D2E/DX2                !
 ! A42   A(9,11,24)            150.1414         estimate D2E/DX2                !
 ! A43   A(9,12,22)            129.0893         estimate D2E/DX2                !
 ! A44   A(8,13,25)            115.5044         estimate D2E/DX2                !
 ! A45   A(8,14,27)            112.3856         estimate D2E/DX2                !
 ! A46   A(8,15,26)            117.432          estimate D2E/DX2                !
 ! A47   A(6,16,32)            116.7803         estimate D2E/DX2                !
 ! A48   A(6,17,33)            116.0494         estimate D2E/DX2                !
 ! A49   A(6,18,31)            116.1247         estimate D2E/DX2                !
 ! A50   A(7,19,30)            115.6491         estimate D2E/DX2                !
 ! A51   A(7,20,28)            113.4661         estimate D2E/DX2                !
 ! A52   A(7,21,29)            113.7637         estimate D2E/DX2                !
 ! D1    D(3,1,2,8)             50.0624         estimate D2E/DX2                !
 ! D2    D(4,1,2,8)            -70.4297         estimate D2E/DX2                !
 ! D3    D(5,1,2,8)            161.2125         estimate D2E/DX2                !
 ! D4    D(9,1,2,8)            115.8875         estimate D2E/DX2                !
 ! D5    D(2,1,3,7)            -60.1512         estimate D2E/DX2                !
 ! D6    D(4,1,3,7)             60.1373         estimate D2E/DX2                !
 ! D7    D(5,1,3,7)            179.5701         estimate D2E/DX2                !
 ! D8    D(9,1,3,7)           -172.6921         estimate D2E/DX2                !
 ! D9    D(2,1,4,6)             37.0076         estimate D2E/DX2                !
 ! D10   D(3,1,4,6)            -83.6678         estimate D2E/DX2                !
 ! D11   D(5,1,4,6)            165.7183         estimate D2E/DX2                !
 ! D12   D(9,1,4,6)           -150.3693         estimate D2E/DX2                !
 ! D13   D(2,1,9,10)            93.6842         estimate D2E/DX2                !
 ! D14   D(2,1,9,11)           -29.8385         estimate D2E/DX2                !
 ! D15   D(2,1,9,12)          -141.6433         estimate D2E/DX2                !
 ! D16   D(3,1,9,10)          -168.7922         estimate D2E/DX2                !
 ! D17   D(3,1,9,11)            67.6852         estimate D2E/DX2                !
 ! D18   D(3,1,9,12)           -44.1197         estimate D2E/DX2                !
 ! D19   D(4,1,9,10)           -78.3623         estimate D2E/DX2                !
 ! D20   D(4,1,9,11)           158.115          estimate D2E/DX2                !
 ! D21   D(4,1,9,12)            46.3102         estimate D2E/DX2                !
 ! D22   D(1,2,8,13)           108.4711         estimate D2E/DX2                !
 ! D23   D(1,2,8,14)           -14.5876         estimate D2E/DX2                !
 ! D24   D(1,2,8,15)          -128.8886         estimate D2E/DX2                !
 ! D25   D(1,3,7,19)           -46.0619         estimate D2E/DX2                !
 ! D26   D(1,3,7,20)          -164.9541         estimate D2E/DX2                !
 ! D27   D(1,3,7,21)            73.6681         estimate D2E/DX2                !
 ! D28   D(1,4,6,16)           169.4411         estimate D2E/DX2                !
 ! D29   D(1,4,6,17)            42.2775         estimate D2E/DX2                !
 ! D30   D(1,4,6,18)           -71.5346         estimate D2E/DX2                !
 ! D31   D(4,6,16,32)          -16.3726         estimate D2E/DX2                !
 ! D32   D(17,6,16,32)         106.7215         estimate D2E/DX2                !
 ! D33   D(18,6,16,32)        -138.134          estimate D2E/DX2                !
 ! D34   D(4,6,17,33)           44.2632         estimate D2E/DX2                !
 ! D35   D(16,6,17,33)         -77.8848         estimate D2E/DX2                !
 ! D36   D(18,6,17,33)         164.0932         estimate D2E/DX2                !
 ! D37   D(4,6,18,31)          -92.9354         estimate D2E/DX2                !
 ! D38   D(16,6,18,31)          25.7911         estimate D2E/DX2                !
 ! D39   D(17,6,18,31)         149.3552         estimate D2E/DX2                !
 ! D40   D(3,7,19,30)         -166.1155         estimate D2E/DX2                !
 ! D41   D(20,7,19,30)         -49.2104         estimate D2E/DX2                !
 ! D42   D(21,7,19,30)          73.4066         estimate D2E/DX2                !
 ! D43   D(3,7,20,28)           12.9879         estimate D2E/DX2                !
 ! D44   D(19,7,20,28)        -100.7463         estimate D2E/DX2                !
 ! D45   D(21,7,20,28)         135.8599         estimate D2E/DX2                !
 ! D46   D(3,7,21,29)          -57.2164         estimate D2E/DX2                !
 ! D47   D(19,7,21,29)          58.1093         estimate D2E/DX2                !
 ! D48   D(20,7,21,29)        -178.1114         estimate D2E/DX2                !
 ! D49   D(2,8,13,25)          -43.843          estimate D2E/DX2                !
 ! D50   D(14,8,13,25)          76.5485         estimate D2E/DX2                !
 ! D51   D(15,8,13,25)        -166.0547         estimate D2E/DX2                !
 ! D52   D(2,8,14,27)           78.098          estimate D2E/DX2                !
 ! D53   D(13,8,14,27)         -42.1603         estimate D2E/DX2                !
 ! D54   D(15,8,14,27)        -163.5737         estimate D2E/DX2                !
 ! D55   D(2,8,15,26)          -65.1514         estimate D2E/DX2                !
 ! D56   D(13,8,15,26)          55.6545         estimate D2E/DX2                !
 ! D57   D(14,8,15,26)         178.0211         estimate D2E/DX2                !
 ! D58   D(1,9,10,23)         -104.7455         estimate D2E/DX2                !
 ! D59   D(5,9,10,23)         -105.0478         estimate D2E/DX2                !
 ! D60   D(11,9,10,23)          14.1408         estimate D2E/DX2                !
 ! D61   D(12,9,10,23)         132.2519         estimate D2E/DX2                !
 ! D62   D(1,9,11,24)          -43.8939         estimate D2E/DX2                !
 ! D63   D(5,9,11,24)          -71.4535         estimate D2E/DX2                !
 ! D64   D(10,9,11,24)         172.8339         estimate D2E/DX2                !
 ! D65   D(12,9,11,24)          58.3831         estimate D2E/DX2                !
 ! D66   D(1,9,12,22)         -146.6962         estimate D2E/DX2                !
 ! D67   D(5,9,12,22)         -118.0991         estimate D2E/DX2                !
 ! D68   D(10,9,12,22)          -2.0997         estimate D2E/DX2                !
 ! D69   D(11,9,12,22)         114.5277         estimate D2E/DX2                !
 --------------------------------------------------------------------------------
 Trust Radius=3.00D-01 FncErr=1.00D-07 GrdErr=1.00D-06 EigMax=2.50D+02 EigMin=1.00D-04
 Number of steps in this run=    164 maximum allowed number of steps=    198.
 GradGradGradGradGradGradGradGradGradGradGradGradGradGradGradGradGradGrad

                          Input orientation:                          
 ---------------------------------------------------------------------
 Center     Atomic      Atomic             Coordinates (Angstroms)
 Number     Number       Type             X           Y           Z
 ---------------------------------------------------------------------
      1         14           0       -0.138170    0.159070   -0.886720
      2          8           0       -1.005710   -1.215570   -1.003670
      3          8           0        0.581790    0.252670    0.615010
      4          8           0       -1.133900    1.453110   -1.106270
      5          8           0        1.181340    0.192060   -1.826770
      6         14           0       -2.693390    1.743710   -0.651140
      7         14           0        0.452460    0.314040    2.262620
      8         14           0       -2.154800   -2.120400   -0.225030
      9         40           0        2.802940   -0.024440   -0.636050
     10          8           0        4.325100    0.011300   -1.816880
     11          8           0        2.776730   -1.728410    0.272060
     12          8           0        3.127590    1.464710    0.669490
     13          8           0       -3.558250   -2.004360   -1.062210
     14          8           0       -2.286870   -1.577110    1.340040
     15          8           0       -1.669150   -3.677480   -0.080450
     16          8           0       -3.005960    3.334120   -0.930770
     17          8           0       -2.920570    1.218380    0.890350
     18          8           0       -3.785110    0.842720   -1.516430
     19          8           0       -0.763350    1.451590    2.523160
     20          8           0        1.876730    0.804420    2.882570
     21          8           0        0.045960   -1.132570    2.900600
     22          1           0        3.882450    2.060220    0.736690
     23          1           0        5.074440   -0.274790   -2.341800
     24          1           0        2.405820   -2.311160    0.940270
     25          1           0       -3.792210   -1.109630   -1.366280
     26          1           0       -1.561400   -4.185680   -0.891240
     27          1           0       -2.806230   -0.756150    1.404970
     28          1           0        2.490500    1.169920    2.209970
     29          1           0       -0.788420   -1.498580    2.546840
     30          1           0       -0.841850    1.779550    3.427640
     31          1           0       -4.151960    1.261500   -2.303650
     32          1           0       -2.244280    3.909500   -1.064090
     33          1           0       -2.210870    1.445490    1.533410
 ---------------------------------------------------------------------
                    Distance matrix (angstroms):
                    1          2          3          4          5
     1  Si   0.000000
     2  O    1.629705   0.000000
     3  O    1.668022   2.701113   0.000000
     4  O    1.647489   2.673726   2.710619   0.000000
     5  O    1.620459   2.728022   2.515039   2.733076   0.000000
     6  Si   3.015913   3.424891   3.814858   1.650334   4.336272
     7  Si   3.207990   3.890323   1.653817   3.894026   4.155629
     8  Si   3.114581   1.656926   3.718340   3.819528   4.363814
     9  Zr   2.957472   4.007462   2.564264   4.231190   2.023431
    10  O    4.561558   5.530285   4.470427   5.690735   3.148968
    11  O    3.660873   4.024592   2.976584   5.226365   3.261681
    12  O    3.845995   5.202647   2.820125   4.616682   3.411575
    13  O    4.050700   2.672279   5.004716   4.222974   5.279444
    14  O    3.548196   2.695377   3.478933   4.061528   5.018678
    15  O    4.208692   2.711732   4.582191   5.259444   5.113538
    16  O    4.278680   4.970512   4.975613   2.659625   5.311199
    17  O    3.467256   3.630167   3.643478   2.689569   5.026106
    18  O    3.763520   3.496362   4.894999   2.751313   5.018495
    19  O    3.699830   4.428432   2.624471   3.648297   4.928501
    20  O    4.322481   5.243251   2.668919   5.039398   4.799629
    21  O    4.005750   4.044283   2.725789   4.912516   5.039024
    22  H    4.734471   6.136266   3.765156   5.378555   4.166215
    23  H    5.429254   6.296339   5.404151   6.561681   3.954672
    24  H    3.988961   4.076488   3.163243   5.557668   3.927082
    25  H    3.897638   2.811991   4.991317   3.701601   5.161652
    26  H    4.571920   3.023737   5.153737   5.659059   5.249995
    27  H    3.634283   3.042119   3.622214   3.739498   5.219575
    28  H    4.185835   5.314276   2.651117   4.920764   4.354926
    29  H    3.867811   3.568393   2.945559   4.709251   5.085930
    30  H    4.662062   5.351084   3.502713   4.555019   5.849978
    31  H    4.396994   4.210073   5.651965   3.252556   5.460330
    32  H    4.304984   5.272954   4.917159   2.696029   5.112330
    33  H    3.436276   3.869163   3.172574   2.850935   4.936495
                    6          7          8          9         10
     6  Si   0.000000
     7  Si   4.519992   0.000000
     8  Si   3.924665   4.348874   0.000000
     9  Zr   5.773753   3.747214   5.398256   0.000000
    10  O    7.322527   5.633055   7.004801   1.926813   0.000000
    11  O    6.544473   3.679152   4.971996   1.931027   3.128532
    12  O    5.975426   3.319401   6.446458   2.006838   3.119049
    13  O    3.868461   5.702216   1.638294   6.675810   8.171880
    14  O    3.893315   3.454205   1.661942   5.676432   7.497155
    15  O    5.546535   5.091506   1.637455   5.801119   7.249367
    16  O    1.644779   5.592789   5.565459   6.716406   8.097578
    17  O    1.644316   3.752104   3.602489   6.052526   7.828529
    18  O    1.659025   5.702431   3.620180   6.702943   8.158250
    19  O    3.726469   1.685258   4.716757   4.987755   6.841250
    20  O    5.852809   1.628912   5.870689   3.731697   5.358021
    21  O    5.328403   1.632465   3.948255   4.619176   6.471020
    22  H    6.728144   4.140343   7.406138   2.719479   3.303745
    23  H    8.201942   6.550580   7.755572   2.851661   0.958592
    24  H    6.706452   3.529292   4.711005   2.805633   4.084034
    25  H    3.140124   5.763070   2.237235   6.723606   8.206720
    26  H    6.041251   5.852345   2.249742   6.035603   7.288507
    27  H    3.238768   3.535524   2.223160   6.013647   7.862898
    28  H    5.948773   2.211088   6.191465   3.102248   4.574241
    29  H    4.936439   2.214984   3.152288   5.020134   6.889839
    30  H    4.479501   2.276012   5.502313   5.749126   7.571596
    31  H    2.256267   6.553563   4.443710   7.266716   8.582569
    32  H    2.250083   5.591667   6.088655   6.413543   7.675898
    33  H    2.256993   2.984167   3.976283   5.657344   7.483331
                   11         12         13         14         15
    11  O    0.000000
    12  O    3.236830   0.000000
    13  O    6.479845   7.728757   0.000000
    14  O    5.177211   6.246494   2.751319   0.000000
    15  O    4.867133   7.072004   2.707745   2.609775   0.000000
    16  O    7.779172   6.608779   5.368582   5.458374   7.188368
    17  O    6.443996   6.057202   3.821672   2.901476   5.145673
    18  O    7.270980   7.276712   2.891997   4.032334   5.193412
    19  O    5.264221   4.309951   5.710511   3.590809   5.822939
    20  O    3.746998   2.626472   7.279392   5.038517   6.437405
    21  O    3.836841   4.606534   5.427173   2.841665   4.278414
    22  H    3.973942   0.963827   8.667230   7.187121   8.025533
    23  H    3.771571   3.985468   8.896747   8.333119   7.884669
    24  H    0.961081   3.853760   6.298745   4.766549   4.417474
    25  H    6.798384   7.658669   0.973518   3.131893   3.571358
    26  H    5.119650   7.506625   2.962228   3.508497   0.962942
    27  H    5.779119   6.378352   2.865404   0.973615   3.468947
    28  H    3.498248   1.692886   7.574338   5.579087   6.785720
    29  H    4.235297   5.257439   4.577446   1.925587   3.525045
    30  H    5.946225   4.843859   6.469587   4.208720   6.539900
    31  H    7.973744   7.865920   3.543939   4.981239   5.958229
    32  H    7.666933   6.151364   6.058074   5.990371   7.672065
    33  H    6.044899   5.407946   4.522625   3.029732   5.398410
                   16         17         18         19         20
    16  O    0.000000
    17  O    2.792870   0.000000
    18  O    2.675284   2.584790   0.000000
    19  O    4.528007   2.715521   5.081343   0.000000
    20  O    6.691906   5.210987   7.170014   2.741902   0.000000
    21  O    6.629097   4.285834   6.171630   2.734104   2.665328
    22  H    7.200933   6.856631   8.083955   5.014515   3.194487
    23  H    8.961479   8.751945   8.967814   7.792818   6.219653
    24  H    8.040979   6.389881   7.369528   5.167927   3.709354
    25  H    4.533737   3.357345   1.958128   5.555320   7.338474
    26  H    7.657396   5.850237   5.533584   6.638812   7.138871
    27  H    4.714433   2.043692   3.471191   3.209022   5.152552
    28  H    6.690223   5.569867   7.305915   3.281001   0.981170
    29  H    6.353443   3.830391   5.565249   2.950372   3.538297
    30  H    5.108405   3.327736   5.829602   0.965300   2.939159
    31  H    2.737493   3.423422   0.964194   5.900585   7.965608
    32  H    0.963843   3.394014   3.461778   4.593783   6.496181
    33  H    3.204883   0.984266   3.484693   1.753555   4.351974
                   21         22         23         24         25
    21  O    0.000000
    22  H    5.440135   0.000000
    23  H    7.314653   4.043540   0.000000
    24  H    3.286473   4.618533   4.694712   0.000000
    25  H    5.739193   8.565678   8.959134   6.721564   0.000000
    26  H    5.126708   8.443751   7.837956   4.754691   3.829394
    27  H    3.242466   7.288140   8.739276   5.458889   2.962589
    28  H    3.428441   2.213755   5.429783   3.706376   7.580129
    29  H    0.977394   6.144813   7.731080   3.666677   4.948388
    30  H    3.089728   5.444171   8.515236   5.785177   6.327215
    31  H    7.101994   8.627477   9.353507   8.141953   2.574945
    32  H    6.810759   6.648268   8.526693   8.021066   5.261090
    33  H    3.689022   6.175857   8.429256   5.981476   4.175820
                   26         27         28         29         30
    26  H    0.000000
    27  H    4.310900   0.000000
    28  H    7.397151   5.693252   0.000000
    29  H    4.431523   2.434466   4.240954   0.000000
    30  H    7.399625   3.792065   3.599851   3.394820   0.000000
    31  H    6.194972   4.431226   8.031403   6.516034   6.638742
    32  H    8.125770   5.308515   6.375179   6.663758   5.165185
    33  H    6.165291   2.284331   4.757789   3.423150   2.360915
                   31         32         33
    31  H    0.000000
    32  H    3.491082   0.000000
    33  H    4.304034   3.580428   0.000000
 Stoichiometry    H12O16Si4Zr
 Framework group  C1[X(H12O16Si4Zr)]
 Deg. of freedom    93
 Full point group                 C1      NOp   1
 Largest Abelian subgroup         C1      NOp   1
 Largest concise Abelian subgroup C1      NOp   1
                         Standard orientation:                         
 ---------------------------------------------------------------------
 Center     Atomic      Atomic             Coordinates (Angstroms)
 Number     Number       Type             X           Y           Z
 ---------------------------------------------------------------------
      1         14           0        0.143554   -0.153171   -0.919627
      2          8           0        1.011598    1.223946   -0.996991
      3          8           0       -0.622908   -0.261555    0.557900
      4          8           0        1.148242   -1.443476   -1.119462
      5          8           0       -1.145793   -0.179921   -1.900830
      6         14           0        2.693284   -1.735515   -0.618303
      7         14           0       -0.545132   -0.337580    2.208137
      8         14           0        2.133933    2.123666   -0.174632
      9         40           0       -2.804324    0.023053   -0.759625
     10          8           0       -4.288673   -0.004618   -1.987856
     11          8           0       -2.809960    1.718796    0.164112
     12          8           0       -3.166752   -1.478376    0.521686
     13          8           0        3.563147    2.017583   -0.968421
     14          8           0        2.217990    1.566492    1.388871
     15          8           0        1.640899    3.678547   -0.031380
     16          8           0        3.017620   -3.322800   -0.902257
     17          8           0        2.871020   -1.223739    0.934201
     18          8           0        3.809781   -0.824888   -1.440833
     19          8           0        0.664178   -1.475361    2.496438
     20          8           0       -1.987146   -0.835965    2.778718
     21          8           0       -0.161692    1.103902    2.871497
     22          1           0       -3.922162   -2.075755    0.559848
     23          1           0       -5.021769    0.284922   -2.533416
     24          1           0       -2.461323    2.296120    0.848820
     25          1           0        3.808295    1.126036   -1.273024
     26          1           0        1.557590    4.193863   -0.840557
     27          1           0        2.736692    0.745866    1.462679
     28          1           0       -2.578818   -1.196423    2.083959
     29          1           0        0.682631    1.474513    2.547360
     30          1           0        0.714957   -1.811341    3.399956
     31          1           0        4.201943   -1.235917   -2.219894
     32          1           0        2.261635   -3.898250   -1.064541
     33          1           0        2.141977   -1.457856    1.552638
 ---------------------------------------------------------------------
 Rotational constants (GHZ):           0.2656778           0.1405536           0.1362035
 General basis read from cards:  (5D, 7F)
 ======================================================================================================
                                       Pseudopotential Parameters
 ======================================================================================================
  Center     Atomic      Valence      Angular      Power
  Number     Number     Electrons     Momentum     of R      Exponent        Coefficient   SO-Coeffient
 ======================================================================================================
    1         14
                                   No pseudopotential on this center.
    2          8
                                   No pseudopotential on this center.
    3          8
                                   No pseudopotential on this center.
    4          8
                                   No pseudopotential on this center.
    5          8
                                   No pseudopotential on this center.
    6         14
                                   No pseudopotential on this center.
    7         14
                                   No pseudopotential on this center.
    8         14
                                   No pseudopotential on this center.
    9         40           12
                                      G and up 
                                                     2        1.0000000        0.00000000    0.00000000
                                      S - G
                                                     2        8.6365280      150.24299400    0.00000000
                                                     2        3.7176390       18.78003600    0.00000000
                                      P - G
                                                     2        7.6267280       33.19279100    0.00000000
                                                     2        7.4532070       66.38903900    0.00000000
                                                     2        3.3583890        4.62072600    0.00000000
                                                     2        3.2297380        9.26027000    0.00000000
                                      D - G
                                                     2        5.9380860       13.99338300    0.00000000
                                                     2        5.8255440       20.99588200    0.00000000
                                                     2        2.2050190        2.28516600    0.00000000
                                                     2        2.2062920        3.44126000    0.00000000
                                      F - G
                                                     2        4.8002150       -5.23932000    0.00000000
                                                     2        4.7989920       -6.98742400    0.00000000
   10          8
                                   No pseudopotential on this center.
   11          8
                                   No pseudopotential on this center.
   12          8
                                   No pseudopotential on this center.
   13          8
                                   No pseudopotential on this center.
   14          8
                                   No pseudopotential on this center.
   15          8
                                   No pseudopotential on this center.
   16          8
                                   No pseudopotential on this center.
   17          8
                                   No pseudopotential on this center.
   18          8
                                   No pseudopotential on this center.
   19          8
                                   No pseudopotential on this center.
   20          8
                                   No pseudopotential on this center.
   21          8
                                   No pseudopotential on this center.
   22          1
                                   No pseudopotential on this center.
   23          1
                                   No pseudopotential on this center.
   24          1
                                   No pseudopotential on this center.
   25          1
                                   No pseudopotential on this center.
   26          1
                                   No pseudopotential on this center.
   27          1
                                   No pseudopotential on this center.
   28          1
                                   No pseudopotential on this center.
   29          1
                                   No pseudopotential on this center.
   30          1
                                   No pseudopotential on this center.
   31          1
                                   No pseudopotential on this center.
   32          1
                                   No pseudopotential on this center.
   33          1
                                   No pseudopotential on this center.
 ======================================================================================================
 There are   570 symmetry adapted cartesian basis functions of A   symmetry.
 There are   524 symmetry adapted basis functions of A   symmetry.
   524 basis functions,  1074 primitive gaussians,   570 cartesian basis functions
   104 alpha electrons      104 beta electrons
       nuclear repulsion energy      3049.6044842347 Hartrees.
 NAtoms=   33 NActive=   33 NUniq=   33 SFac= 1.00D+00 NAtFMM=   60 NAOKFM=F Big=F
 Integral buffers will be    131072 words long.
 Raffenetti 2 integral format.
 Two-electron integral symmetry is turned on.
 Nuclear repulsion after empirical dispersion term =     3049.5569470230 Hartrees.
 One-electron integrals computed using PRISM.
 PrsmSu:  requested number of processors reduced to:   4 ShMem   1 Linda.
   1 Symmetry operations used in ECPInt.
 ECPInt:  NShTT=   13203 NPrTT=   78401 LenC2=   11927 LenP2D=   45396.
 LDataN:  DoStor=T MaxTD1= 8 Len=  415
 Number of processors reduced to  13 by ecpmxn.
 NBasis=   524 RedAO= T EigKep=  2.50D-05  NBF=   524
 NBsUse=   524 1.00D-06 EigRej= -1.00D+00 NBFU=   524
 Defaulting to unpruned grid for atomic number  40.
 ExpMin= 1.01D-02 ExpMax= 1.61D+04 ExpMxC= 2.43D+03 IAcc=3 IRadAn=         5 AccDes= 0.00D+00
 Harris functional with IExCor=  402 and IRadAn=       5 diagonalized for initial guess.
 HarFok:  IExCor=  402 AccDes= 0.00D+00 IRadAn=         5 IDoV= 1 UseB2=F ITyADJ=14
 ICtDFT=  3500011 ScaDFX=  1.000000  1.000000  1.000000  1.000000
 Defaulting to unpruned grid for atomic number  40.
 FoFCou: FMM=F IPFlag=           0 FMFlag=      100000 FMFlg1=           0
         NFxFlg=           0 DoJE=T BraDBF=F KetDBF=T FulRan=T
         wScrn=  0.000000 ICntrl=       500 IOpCl=  0 I1Cent=   200000004 NGrid=           0
         NMat0=    1 NMatS0=      1 NMatT0=    0 NMatD0=    1 NMtDS0=    0 NMtDT0=    0
 Petite list used in FoFCou.
 Requested convergence on RMS density matrix=1.00D-08 within 128 cycles.
 Requested convergence on MAX density matrix=1.00D-06.
 Requested convergence on             energy=1.00D-06.
 No special actions if energy rises.
 Defaulting to unpruned grid for atomic number  40.
 Defaulting to unpruned grid for atomic number  40.
 Defaulting to unpruned grid for atomic number  40.
 Defaulting to unpruned grid for atomic number  40.
 Defaulting to unpruned grid for atomic number  40.
 Defaulting to unpruned grid for atomic number  40.
 Defaulting to unpruned grid for atomic number  40.
 Defaulting to unpruned grid for atomic number  40.
 Defaulting to unpruned grid for atomic number  40.
 Defaulting to unpruned grid for atomic number  40.
 Defaulting to unpruned grid for atomic number  40.
 Defaulting to unpruned grid for atomic number  40.
 Defaulting to unpruned grid for atomic number  40.
 Defaulting to unpruned grid for atomic number  40.
 Defaulting to unpruned grid for atomic number  40.
 Defaulting to unpruned grid for atomic number  40.
 SCF Done:  E(RB3LYP) =  -2416.94180443     A.U. after   14 cycles
            NFock= 14  Conv=0.49D-08     -V/T= 2.0184

 **********************************************************************

            Population analysis using the SCF Density.

 **********************************************************************

 Orbital symmetries:
       Occupied  (A) (A) (A) (A) (A) (A) (A) (A) (A) (A) (A) (A)
                 (A) (A) (A) (A) (A) (A) (A) (A) (A) (A) (A) (A)
                 (A) (A) (A) (A) (A) (A) (A) (A) (A) (A) (A) (A)
                 (A) (A) (A) (A) (A) (A) (A) (A) (A) (A) (A) (A)
                 (A) (A) (A) (A) (A) (A) (A) (A) (A) (A) (A) (A)
                 (A) (A) (A) (A) (A) (A) (A) (A) (A) (A) (A) (A)
                 (A) (A) (A) (A) (A) (A) (A) (A) (A) (A) (A) (A)
                 (A) (A) (A) (A) (A) (A) (A) (A) (A) (A) (A) (A)
                 (A) (A) (A) (A) (A) (A) (A) (A)
       Virtual   (A) (A) (A) (A) (A) (A) (A) (A) (A) (A) (A) (A)
                 (A) (A) (A) (A) (A) (A) (A) (A) (A) (A) (A) (A)
                 (A) (A) (A) (A) (A) (A) (A) (A) (A) (A) (A) (A)
                 (A) (A) (A) (A) (A) (A) (A) (A) (A) (A) (A) (A)
                 (A) (A) (A) (A) (A) (A) (A) (A) (A) (A) (A) (A)
                 (A) (A) (A) (A) (A) (A) (A) (A) (A) (A) (A) (A)
                 (A) (A) (A) (A) (A) (A) (A) (A) (A) (A) (A) (A)
                 (A) (A) (A) (A) (A) (A) (A) (A) (A) (A) (A) (A)
                 (A) (A) (A) (A) (A) (A) (A) (A) (A) (A) (A) (A)
                 (A) (A) (A) (A) (A) (A) (A) (A) (A) (A) (A) (A)
                 (A) (A) (A) (A) (A) (A) (A) (A) (A) (A) (A) (A)
                 (A) (A) (A) (A) (A) (A) (A) (A) (A) (A) (A) (A)
                 (A) (A) (A) (A) (A) (A) (A) (A) (A) (A) (A) (A)
                 (A) (A) (A) (A) (A) (A) (A) (A) (A) (A) (A) (A)
                 (A) (A) (A) (A) (A) (A) (A) (A) (A) (A) (A) (A)
                 (A) (A) (A) (A) (A) (A) (A) (A) (A) (A) (A) (A)
                 (A) (A) (A) (A) (A) (A) (A) (A) (A) (A) (A) (A)
                 (A) (A) (A) (A) (A) (A) (A) (A) (A) (A) (A) (A)
                 (A) (A) (A) (A) (A) (A) (A) (A) (A) (A) (A) (A)
                 (A) (A) (A) (A) (A) (A) (A) (A) (A) (A) (A) (A)
                 (A) (A) (A) (A) (A) (A) (A) (A) (A) (A) (A) (A)
                 (A) (A) (A) (A) (A) (A) (A) (A) (A) (A) (A) (A)
                 (A) (A) (A) (A) (A) (A) (A) (A) (A) (A) (A) (A)
                 (A) (A) (A) (A) (A) (A) (A) (A) (A) (A) (A) (A)
                 (A) (A) (A) (A) (A) (A) (A) (A) (A) (A) (A) (A)
                 (A) (A) (A) (A) (A) (A) (A) (A) (A) (A) (A) (A)
                 (A) (A) (A) (A) (A) (A) (A) (A) (A) (A) (A) (A)
                 (A) (A) (A) (A) (A) (A) (A) (A) (A) (A) (A) (A)
                 (A) (A) (A) (A) (A) (A) (A) (A) (A) (A) (A) (A)
                 (A) (A) (A) (A) (A) (A) (A) (A) (A) (A) (A) (A)
                 (A) (A) (A) (A) (A) (A) (A) (A) (A) (A) (A) (A)
                 (A) (A) (A) (A) (A) (A) (A) (A) (A) (A) (A) (A)
                 (A) (A) (A) (A) (A) (A) (A) (A) (A) (A) (A) (A)
                 (A) (A) (A) (A) (A) (A) (A) (A) (A) (A) (A) (A)
                 (A) (A) (A) (A) (A) (A) (A) (A) (A) (A) (A) (A)
 The electronic state is 1-A.
 Alpha  occ. eigenvalues --  -66.23622 -66.23374 -66.22290 -66.21936 -19.18984
 Alpha  occ. eigenvalues --  -19.18831 -19.18168 -19.17942 -19.17366 -19.17274
 Alpha  occ. eigenvalues --  -19.16790 -19.16505 -19.16271 -19.16005 -19.15725
 Alpha  occ. eigenvalues --  -19.15341 -19.15176 -19.14827 -19.14637 -19.14471
 Alpha  occ. eigenvalues --   -5.37685  -5.37288  -5.36341  -5.35987  -3.73681
 Alpha  occ. eigenvalues --   -3.73648  -3.73577  -3.73344  -3.73261  -3.73156
 Alpha  occ. eigenvalues --   -3.72411  -3.72299  -3.72163  -3.71988  -3.71928
 Alpha  occ. eigenvalues --   -3.71899  -2.12430  -1.28823  -1.28520  -1.28176
 Alpha  occ. eigenvalues --   -1.06807  -1.05561  -1.04586  -1.03547  -1.03015
 Alpha  occ. eigenvalues --   -1.02428  -1.01609  -1.01077  -1.00529  -1.00192
 Alpha  occ. eigenvalues --   -0.99863  -0.99616  -0.97924  -0.96986  -0.96089
 Alpha  occ. eigenvalues --   -0.95614  -0.62929  -0.61293  -0.60225  -0.57126
 Alpha  occ. eigenvalues --   -0.55981  -0.55311  -0.53714  -0.53606  -0.52669
 Alpha  occ. eigenvalues --   -0.52388  -0.51366  -0.50727  -0.50498  -0.49933
 Alpha  occ. eigenvalues --   -0.49272  -0.46091  -0.44228  -0.43930  -0.42968
 Alpha  occ. eigenvalues --   -0.42642  -0.42311  -0.41910  -0.40903  -0.40380
 Alpha  occ. eigenvalues --   -0.39245  -0.39071  -0.38482  -0.37897  -0.37614
 Alpha  occ. eigenvalues --   -0.37397  -0.37087  -0.36661  -0.36165  -0.35929
 Alpha  occ. eigenvalues --   -0.35875  -0.35590  -0.35275  -0.35111  -0.34560
 Alpha  occ. eigenvalues --   -0.34278  -0.33968  -0.33518  -0.33171  -0.32829
 Alpha  occ. eigenvalues --   -0.32472  -0.32425  -0.32045  -0.31912
 Alpha virt. eigenvalues --   -0.04116  -0.02769  -0.02189  -0.02023  -0.01490
 Alpha virt. eigenvalues --   -0.01294  -0.00369   0.00276   0.00661   0.01251
 Alpha virt. eigenvalues --    0.01365   0.01525   0.02345   0.02639   0.02965
 Alpha virt. eigenvalues --    0.03190   0.03436   0.03631   0.03728   0.03940
 Alpha virt. eigenvalues --    0.04270   0.04674   0.04934   0.05795   0.06359
 Alpha virt. eigenvalues --    0.06632   0.07126   0.07696   0.07991   0.08414
 Alpha virt. eigenvalues --    0.08738   0.08908   0.09285   0.09591   0.09841
 Alpha virt. eigenvalues --    0.10365   0.10503   0.10773   0.11009   0.11303
 Alpha virt. eigenvalues --    0.11647   0.12046   0.12356   0.12612   0.13070
 Alpha virt. eigenvalues --    0.13688   0.13973   0.14155   0.14384   0.14828
 Alpha virt. eigenvalues --    0.15154   0.15516   0.15729   0.16198   0.16477
 Alpha virt. eigenvalues --    0.16800   0.17234   0.17620   0.17797   0.18309
 Alpha virt. eigenvalues --    0.18454   0.18776   0.19364   0.19915   0.20334
 Alpha virt. eigenvalues --    0.20606   0.20913   0.21469   0.21479   0.22022
 Alpha virt. eigenvalues --    0.22184   0.22628   0.22993   0.23377   0.23535
 Alpha virt. eigenvalues --    0.23984   0.24232   0.24420   0.24902   0.25022
 Alpha virt. eigenvalues --    0.25226   0.25554   0.26207   0.26387   0.26663
 Alpha virt. eigenvalues --    0.26887   0.27117   0.27272   0.27879   0.28271
 Alpha virt. eigenvalues --    0.28307   0.28652   0.28988   0.29402   0.29530
 Alpha virt. eigenvalues --    0.29826   0.30087   0.30801   0.30989   0.31204
 Alpha virt. eigenvalues --    0.31510   0.31661   0.32254   0.32508   0.32682
 Alpha virt. eigenvalues --    0.33090   0.33445   0.33795   0.34148   0.34832
 Alpha virt. eigenvalues --    0.34962   0.35597   0.35740   0.36711   0.37150
 Alpha virt. eigenvalues --    0.37493   0.37945   0.38017   0.38808   0.38886
 Alpha virt. eigenvalues --    0.39545   0.40162   0.40879   0.41729   0.41758
 Alpha virt. eigenvalues --    0.42537   0.42934   0.43209   0.43639   0.44102
 Alpha virt. eigenvalues --    0.44692   0.45269   0.45455   0.46186   0.46881
 Alpha virt. eigenvalues --    0.47493   0.48041   0.49496   0.49582   0.50359
 Alpha virt. eigenvalues --    0.51374   0.51496   0.52366   0.53132   0.54532
 Alpha virt. eigenvalues --    0.55195   0.55457   0.56191   0.56917   0.57348
 Alpha virt. eigenvalues --    0.57973   0.58876   0.60560   0.60914   0.61233
 Alpha virt. eigenvalues --    0.62015   0.63446   0.63879   0.64630   0.64883
 Alpha virt. eigenvalues --    0.66535   0.67038   0.67236   0.68473   0.69522
 Alpha virt. eigenvalues --    0.70431   0.71750   0.72320   0.72895   0.73387
 Alpha virt. eigenvalues --    0.74611   0.74704   0.75811   0.77922   0.78141
 Alpha virt. eigenvalues --    0.80497   0.81947   0.82753   0.83615   0.84339
 Alpha virt. eigenvalues --    0.86227   0.87347   0.88180   0.90510   0.93089
 Alpha virt. eigenvalues --    0.94010   0.95261   0.95553   0.96911   0.97585
 Alpha virt. eigenvalues --    0.98800   0.99608   1.00196   1.00487   1.02169
 Alpha virt. eigenvalues --    1.02840   1.04550   1.05068   1.05926   1.06205
 Alpha virt. eigenvalues --    1.08229   1.08393   1.09454   1.10308   1.11949
 Alpha virt. eigenvalues --    1.12563   1.14294   1.15583   1.15872   1.18463
 Alpha virt. eigenvalues --    1.19368   1.19610   1.20854   1.21339   1.21846
 Alpha virt. eigenvalues --    1.22519   1.23119   1.23383   1.23769   1.24364
 Alpha virt. eigenvalues --    1.24466   1.25644   1.26032   1.26225   1.26934
 Alpha virt. eigenvalues --    1.27065   1.27670   1.28730   1.29646   1.29958
 Alpha virt. eigenvalues --    1.30154   1.30577   1.31298   1.31522   1.32205
 Alpha virt. eigenvalues --    1.32393   1.32755   1.33518   1.34322   1.34898
 Alpha virt. eigenvalues --    1.35273   1.36075   1.36678   1.37031   1.37806
 Alpha virt. eigenvalues --    1.38343   1.38926   1.39913   1.40603   1.41835
 Alpha virt. eigenvalues --    1.43245   1.43442   1.44089   1.45382   1.46388
 Alpha virt. eigenvalues --    1.47914   1.48689   1.50753   1.52520   1.55156
 Alpha virt. eigenvalues --    1.55359   1.56705   1.58193   1.58924   1.59610
 Alpha virt. eigenvalues --    1.60809   1.61487   1.61834   1.62637   1.62880
 Alpha virt. eigenvalues --    1.64230   1.65526   1.66193   1.67258   1.67785
 Alpha virt. eigenvalues --    1.68182   1.69533   1.69767   1.70325   1.71187
 Alpha virt. eigenvalues --    1.71740   1.72170   1.72968   1.73357   1.74085
 Alpha virt. eigenvalues --    1.74221   1.74575   1.75426   1.75881   1.76419
 Alpha virt. eigenvalues --    1.77171   1.78290   1.78582   1.78923   1.79500
 Alpha virt. eigenvalues --    1.80334   1.81053   1.81205   1.82211   1.83463
 Alpha virt. eigenvalues --    1.84690   1.85499   1.85753   1.86650   1.87203
 Alpha virt. eigenvalues --    1.88124   1.89152   1.90291   1.91812   1.92170
 Alpha virt. eigenvalues --    1.92689   1.93854   1.94339   1.94960   1.96696
 Alpha virt. eigenvalues --    1.97082   1.98015   1.98895   1.99310   2.00015
 Alpha virt. eigenvalues --    2.00677   2.01914   2.03507   2.04293   2.04674
 Alpha virt. eigenvalues --    2.04861   2.06040   2.07659   2.09468   2.09839
 Alpha virt. eigenvalues --    2.10476   2.12749   2.14390   2.14875   2.16294
 Alpha virt. eigenvalues --    2.16970   2.19814   2.22108   2.23031   2.24113
 Alpha virt. eigenvalues --    2.28947   2.32662   2.34545   2.38274   2.38928
 Alpha virt. eigenvalues --    2.39706   2.40532   2.41688   2.42347   2.43836
 Alpha virt. eigenvalues --    2.44298   2.45307   2.47189   2.47705   2.49209
 Alpha virt. eigenvalues --    2.49450   2.51963   2.53845   2.55056   2.57257
 Alpha virt. eigenvalues --    2.59244   2.59394   2.60326   2.60407   2.60564
 Alpha virt. eigenvalues --    2.61185   2.61940   2.62141   2.62649   2.63380
 Alpha virt. eigenvalues --    2.63620   2.65234   2.65706   2.66138   2.66391
 Alpha virt. eigenvalues --    2.67754   2.68079   2.71817   2.72323   2.72942
 Alpha virt. eigenvalues --    2.73504   2.74048   2.75128   2.75793   2.76556
 Alpha virt. eigenvalues --    2.77332   2.78036   2.78441   2.80895   2.82406
 Alpha virt. eigenvalues --    2.83648   2.84389   2.84970   2.85999   2.86562
 Alpha virt. eigenvalues --    2.89045   2.90424   2.92206   2.94373   2.97946
 Alpha virt. eigenvalues --    3.00914   3.06427   3.18321   3.29061   3.46274
 Alpha virt. eigenvalues --    3.48077   3.49158   3.50426   3.55456   3.56508
 Alpha virt. eigenvalues --    3.60055   3.61150   3.63758   3.64643   3.72767
 Alpha virt. eigenvalues --    3.79931   4.02541   4.14014   7.23211  30.92299
          Condensed to atoms (all electrons):
               1          2          3          4          5          6
     1  Si  25.088042  -1.105488  -2.942881  -1.616254  -4.109715  -0.280110
     2  O   -1.105488  10.159831   0.483970  -0.184205   0.189972  -0.142743
     3  O   -2.942881   0.483970  11.386003   0.413354   1.147422   0.070527
     4  O   -1.616254  -0.184205   0.413354   9.881660   0.538936  -0.561178
     5  O   -4.109715   0.189972   1.147422   0.538936  10.545964   0.012222
     6  Si  -0.280110  -0.142743   0.070527  -0.561178   0.012222  13.713044
     7  Si  -1.874821  -0.175621  -1.876080   0.010266   0.322546   0.049156
     8  Si  -0.217536  -0.574373  -0.118704   0.034716   0.042381  -0.208895
     9  Zr  -1.624398   0.054606  -0.574878  -0.003708   0.311027   0.039070
    10  O   -0.021354   0.001347   0.016432   0.000656  -0.033795  -0.000795
    11  O    0.096174  -0.002598  -0.084936  -0.002588  -0.043348  -0.000600
    12  O    0.052404   0.005260  -0.059788  -0.011178  -0.021599  -0.002443
    13  O   -0.021455   0.236094   0.002399  -0.004944  -0.002300   0.066114
    14  O   -0.024410   0.392046   0.114284  -0.020898  -0.013305   0.009865
    15  O    0.013860   0.087083   0.006042   0.002588  -0.004167  -0.010613
    16  O    0.074642   0.016149  -0.007528   0.275947  -0.014761  -0.532388
    17  O   -0.051933  -0.035631   0.027620   0.250996   0.016699  -0.359118
    18  O   -0.079365  -0.006001  -0.012491   0.179342   0.005795  -0.305208
    19  O    0.163495  -0.008110   0.524900   0.017899  -0.008711  -0.006939
    20  O    0.238688  -0.005264   0.474944  -0.005376  -0.033873   0.000498
    21  O   -0.012588   0.044655   0.232639  -0.006240  -0.007187  -0.000920
    22  H   -0.001094  -0.000007   0.005606   0.000236   0.000281  -0.000175
    23  H   -0.001800   0.000002  -0.000125   0.000002   0.000188   0.000018
    24  H   -0.013734   0.000464   0.004604   0.000037   0.000566   0.000059
    25  H   -0.000899  -0.005564  -0.000126   0.002852  -0.000016   0.004777
    26  H   -0.009021  -0.015405   0.000419  -0.000095   0.000151  -0.000106
    27  H    0.010208  -0.033262  -0.014160  -0.004871  -0.000071   0.005941
    28  H   -0.006833  -0.000146  -0.006053   0.000333   0.001255  -0.000476
    29  H   -0.005449  -0.006959  -0.026747   0.000941  -0.000109  -0.000262
    30  H   -0.002076  -0.000122  -0.010814  -0.000161   0.000144  -0.000033
    31  H   -0.001402  -0.002597   0.000040  -0.023150   0.000101   0.079290
    32  H    0.000369  -0.000175   0.000430   0.001549   0.000188   0.030520
    33  H   -0.019417   0.001373  -0.004609  -0.011515  -0.000257   0.052020
               7          8          9         10         11         12
     1  Si  -1.874821  -0.217536  -1.624398  -0.021354   0.096174   0.052404
     2  O   -0.175621  -0.574373   0.054606   0.001347  -0.002598   0.005260
     3  O   -1.876080  -0.118704  -0.574878   0.016432  -0.084936  -0.059788
     4  O    0.010266   0.034716  -0.003708   0.000656  -0.002588  -0.011178
     5  O    0.322546   0.042381   0.311027  -0.033795  -0.043348  -0.021599
     6  Si   0.049156  -0.208895   0.039070  -0.000795  -0.000600  -0.002443
     7  Si  16.823159   0.162638   0.324169   0.008338  -0.064714   0.017900
     8  Si   0.162638  12.917172   0.108415  -0.001120   0.001851   0.002839
     9  Zr   0.324169   0.108415  12.236845  -0.114640   0.170177   0.074779
    10  O    0.008338  -0.001120  -0.114640   8.851937  -0.052442  -0.051907
    11  O   -0.064714   0.001851   0.170177  -0.052442   8.380325  -0.015251
    12  O    0.017900   0.002839   0.074779  -0.051907  -0.015251   8.641489
    13  O    0.010500  -0.165971  -0.006131  -0.000001  -0.000104  -0.000008
    14  O   -0.138778  -0.499137  -0.043589  -0.000007   0.000137   0.000051
    15  O   -0.016677  -0.086559  -0.012577  -0.000005   0.000522   0.000033
    16  O   -0.002319  -0.014862  -0.018972  -0.000001   0.000011   0.000075
    17  O   -0.074045   0.116307  -0.019373  -0.000022  -0.000097   0.000146
    18  O   -0.005219   0.112012  -0.001386   0.000000  -0.000028  -0.000024
    19  O   -0.770935  -0.031393  -0.083928  -0.000107   0.000195  -0.003322
    20  O   -0.917547   0.006408  -0.092707  -0.001058   0.007058  -0.045453
    21  O   -0.238104  -0.038523   0.007643  -0.000016   0.009937   0.000351
    22  H   -0.000668   0.000026  -0.026087  -0.002061   0.000144   0.264848
    23  H   -0.000544   0.000032  -0.078410   0.341009   0.000064  -0.000016
    24  H    0.004964  -0.000775  -0.057615   0.000605   0.314849  -0.002340
    25  H   -0.000733   0.043176  -0.000678  -0.000000   0.000001   0.000000
    26  H    0.000782   0.062431  -0.000125   0.000000   0.000056   0.000000
    27  H    0.015655   0.090023   0.004432   0.000000  -0.000008  -0.000003
    28  H    0.033214  -0.000361   0.005154   0.000740  -0.001461   0.032563
    29  H    0.074913   0.023025  -0.002356  -0.000000  -0.000626   0.000021
    30  H    0.055924   0.000248   0.002003  -0.000000   0.000008   0.000124
    31  H    0.000468  -0.003546   0.000079  -0.000000   0.000000   0.000000
    32  H   -0.000560   0.000096   0.001331   0.000000  -0.000000  -0.000001
    33  H    0.022688  -0.002883   0.000906   0.000000   0.000005   0.000011
              13         14         15         16         17         18
     1  Si  -0.021455  -0.024410   0.013860   0.074642  -0.051933  -0.079365
     2  O    0.236094   0.392046   0.087083   0.016149  -0.035631  -0.006001
     3  O    0.002399   0.114284   0.006042  -0.007528   0.027620  -0.012491
     4  O   -0.004944  -0.020898   0.002588   0.275947   0.250996   0.179342
     5  O   -0.002300  -0.013305  -0.004167  -0.014761   0.016699   0.005795
     6  Si   0.066114   0.009865  -0.010613  -0.532388  -0.359118  -0.305208
     7  Si   0.010500  -0.138778  -0.016677  -0.002319  -0.074045  -0.005219
     8  Si  -0.165971  -0.499137  -0.086559  -0.014862   0.116307   0.112012
     9  Zr  -0.006131  -0.043589  -0.012577  -0.018972  -0.019373  -0.001386
    10  O   -0.000001  -0.000007  -0.000005  -0.000001  -0.000022   0.000000
    11  O   -0.000104   0.000137   0.000522   0.000011  -0.000097  -0.000028
    12  O   -0.000008   0.000051   0.000033   0.000075   0.000146  -0.000024
    13  O    8.632158   0.006623  -0.079631   0.003319  -0.024383  -0.044612
    14  O    0.006623   8.983710   0.086325   0.006215  -0.059600  -0.026756
    15  O   -0.079631   0.086325   8.612791  -0.000220   0.003445   0.002044
    16  O    0.003319   0.006215  -0.000220   8.948602  -0.120746  -0.075285
    17  O   -0.024383  -0.059600   0.003445  -0.120746   8.996925   0.171057
    18  O   -0.044612  -0.026756   0.002044  -0.075285   0.171057   8.898251
    19  O    0.000364   0.018973   0.000610  -0.001886  -0.011260  -0.000577
    20  O   -0.000027  -0.003212   0.000301  -0.000009   0.001740   0.000042
    21  O   -0.000998   0.044432   0.004721  -0.000054  -0.011618  -0.000099
    22  H   -0.000000  -0.000001   0.000000  -0.000000   0.000001  -0.000000
    23  H   -0.000000  -0.000000   0.000000  -0.000000  -0.000000   0.000000
    24  H    0.000007  -0.000090  -0.000048   0.000000   0.000004   0.000000
    25  H    0.227525  -0.008527   0.006767   0.000183   0.000390   0.010905
    26  H   -0.007425   0.003496   0.233229   0.000000  -0.000013   0.000009
    27  H   -0.002256   0.188308   0.001694  -0.000190   0.013295   0.001057
    28  H    0.000000   0.000004  -0.000002  -0.000003  -0.000011   0.000000
    29  H    0.000579   0.001640   0.000179  -0.000010  -0.000240   0.000029
    30  H   -0.000002  -0.000425   0.000000  -0.000062   0.000077  -0.000009
    31  H    0.002132  -0.000079  -0.000011  -0.001545   0.001832   0.215577
    32  H   -0.000002  -0.000012   0.000000   0.231359  -0.002990   0.004499
    33  H    0.000659   0.000315  -0.000152   0.000222   0.211409   0.003031
              19         20         21         22         23         24
     1  Si   0.163495   0.238688  -0.012588  -0.001094  -0.001800  -0.013734
     2  O   -0.008110  -0.005264   0.044655  -0.000007   0.000002   0.000464
     3  O    0.524900   0.474944   0.232639   0.005606  -0.000125   0.004604
     4  O    0.017899  -0.005376  -0.006240   0.000236   0.000002   0.000037
     5  O   -0.008711  -0.033873  -0.007187   0.000281   0.000188   0.000566
     6  Si  -0.006939   0.000498  -0.000920  -0.000175   0.000018   0.000059
     7  Si  -0.770935  -0.917547  -0.238104  -0.000668  -0.000544   0.004964
     8  Si  -0.031393   0.006408  -0.038523   0.000026   0.000032  -0.000775
     9  Zr  -0.083928  -0.092707   0.007643  -0.026087  -0.078410  -0.057615
    10  O   -0.000107  -0.001058  -0.000016  -0.002061   0.341009   0.000605
    11  O    0.000195   0.007058   0.009937   0.000144   0.000064   0.314849
    12  O   -0.003322  -0.045453   0.000351   0.264848  -0.000016  -0.002340
    13  O    0.000364  -0.000027  -0.000998  -0.000000  -0.000000   0.000007
    14  O    0.018973  -0.003212   0.044432  -0.000001  -0.000000  -0.000090
    15  O    0.000610   0.000301   0.004721   0.000000   0.000000  -0.000048
    16  O   -0.001886  -0.000009  -0.000054  -0.000000  -0.000000   0.000000
    17  O   -0.011260   0.001740  -0.011618   0.000001  -0.000000   0.000004
    18  O   -0.000577   0.000042  -0.000099  -0.000000   0.000000   0.000000
    19  O    9.067655   0.048347  -0.076954   0.000134  -0.000000   0.000079
    20  O    0.048347   8.813692   0.110573   0.004456  -0.000009  -0.000867
    21  O   -0.076954   0.110573   8.621371   0.000004  -0.000000   0.001093
    22  H    0.000134   0.004456   0.000004   0.354762   0.000015  -0.000005
    23  H   -0.000000  -0.000009  -0.000000   0.000015   0.366672   0.000007
    24  H    0.000079  -0.000867   0.001093  -0.000005   0.000007   0.359664
    25  H   -0.000033   0.000001  -0.000003  -0.000000   0.000000  -0.000000
    26  H   -0.000000  -0.000001   0.000012  -0.000000  -0.000000   0.000000
    27  H   -0.001866   0.000067  -0.002937   0.000000   0.000000   0.000000
    28  H   -0.005748   0.225950  -0.001978  -0.002836   0.000001   0.000044
    29  H   -0.006175   0.003995   0.207143   0.000000  -0.000000   0.000033
    30  H    0.218114  -0.007936  -0.003169   0.000000  -0.000000   0.000000
    31  H    0.000018  -0.000000  -0.000000   0.000000  -0.000000  -0.000000
    32  H    0.000022  -0.000002   0.000000   0.000000   0.000000   0.000000
    33  H    0.014303   0.000159   0.002776  -0.000000   0.000000  -0.000000
              25         26         27         28         29         30
     1  Si  -0.000899  -0.009021   0.010208  -0.006833  -0.005449  -0.002076
     2  O   -0.005564  -0.015405  -0.033262  -0.000146  -0.006959  -0.000122
     3  O   -0.000126   0.000419  -0.014160  -0.006053  -0.026747  -0.010814
     4  O    0.002852  -0.000095  -0.004871   0.000333   0.000941  -0.000161
     5  O   -0.000016   0.000151  -0.000071   0.001255  -0.000109   0.000144
     6  Si   0.004777  -0.000106   0.005941  -0.000476  -0.000262  -0.000033
     7  Si  -0.000733   0.000782   0.015655   0.033214   0.074913   0.055924
     8  Si   0.043176   0.062431   0.090023  -0.000361   0.023025   0.000248
     9  Zr  -0.000678  -0.000125   0.004432   0.005154  -0.002356   0.002003
    10  O   -0.000000   0.000000   0.000000   0.000740  -0.000000  -0.000000
    11  O    0.000001   0.000056  -0.000008  -0.001461  -0.000626   0.000008
    12  O    0.000000   0.000000  -0.000003   0.032563   0.000021   0.000124
    13  O    0.227525  -0.007425  -0.002256   0.000000   0.000579  -0.000002
    14  O   -0.008527   0.003496   0.188308   0.000004   0.001640  -0.000425
    15  O    0.006767   0.233229   0.001694  -0.000002   0.000179   0.000000
    16  O    0.000183   0.000000  -0.000190  -0.000003  -0.000010  -0.000062
    17  O    0.000390  -0.000013   0.013295  -0.000011  -0.000240   0.000077
    18  O    0.010905   0.000009   0.001057   0.000000   0.000029  -0.000009
    19  O   -0.000033  -0.000000  -0.001866  -0.005748  -0.006175   0.218114
    20  O    0.000001  -0.000001   0.000067   0.225950   0.003995  -0.007936
    21  O   -0.000003   0.000012  -0.002937  -0.001978   0.207143  -0.003169
    22  H   -0.000000  -0.000000   0.000000  -0.002836   0.000000   0.000000
    23  H    0.000000  -0.000000   0.000000   0.000001  -0.000000  -0.000000
    24  H   -0.000000   0.000000   0.000000   0.000044   0.000033   0.000000
    25  H    0.304171  -0.000010  -0.000120  -0.000000  -0.000001   0.000000
    26  H   -0.000010   0.360081  -0.000052   0.000000   0.000011  -0.000000
    27  H   -0.000120  -0.000052   0.308674  -0.000000  -0.000328   0.000053
    28  H   -0.000000   0.000000  -0.000000   0.267130  -0.000019   0.000061
    29  H   -0.000001   0.000011  -0.000328  -0.000019   0.300696   0.000149
    30  H    0.000000  -0.000000   0.000053   0.000061   0.000149   0.331351
    31  H   -0.000333   0.000000   0.000010   0.000000   0.000000   0.000000
    32  H   -0.000001  -0.000000  -0.000000   0.000000  -0.000000   0.000000
    33  H   -0.000004   0.000000  -0.001485  -0.000004   0.000073  -0.000383
              31         32         33
     1  Si  -0.001402   0.000369  -0.019417
     2  O   -0.002597  -0.000175   0.001373
     3  O    0.000040   0.000430  -0.004609
     4  O   -0.023150   0.001549  -0.011515
     5  O    0.000101   0.000188  -0.000257
     6  Si   0.079290   0.030520   0.052020
     7  Si   0.000468  -0.000560   0.022688
     8  Si  -0.003546   0.000096  -0.002883
     9  Zr   0.000079   0.001331   0.000906
    10  O   -0.000000   0.000000   0.000000
    11  O    0.000000  -0.000000   0.000005
    12  O    0.000000  -0.000001   0.000011
    13  O    0.002132  -0.000002   0.000659
    14  O   -0.000079  -0.000012   0.000315
    15  O   -0.000011   0.000000  -0.000152
    16  O   -0.001545   0.231359   0.000222
    17  O    0.001832  -0.002990   0.211409
    18  O    0.215577   0.004499   0.003031
    19  O    0.000018   0.000022   0.014303
    20  O   -0.000000  -0.000002   0.000159
    21  O   -0.000000   0.000000   0.002776
    22  H    0.000000   0.000000  -0.000000
    23  H   -0.000000   0.000000   0.000000
    24  H   -0.000000   0.000000  -0.000000
    25  H   -0.000333  -0.000001  -0.000004
    26  H    0.000000  -0.000000   0.000000
    27  H    0.000010  -0.000000  -0.001485
    28  H    0.000000   0.000000  -0.000004
    29  H    0.000000  -0.000000   0.000073
    30  H    0.000000   0.000000  -0.000383
    31  H    0.335071   0.000014  -0.000047
    32  H    0.000014   0.347911   0.000126
    33  H   -0.000047   0.000126   0.277707
 Mulliken charges:
               1
     1  Si   2.306152
     2  O   -1.368581
     3  O   -1.171713
     4  O   -1.155950
     5  O   -0.842625
     6  Si   2.279879
     7  Si   2.220084
     8  Si   2.240844
     9  Zr   1.420921
    10  O   -0.941734
    11  O   -0.712712
    12  O   -0.879562
    13  O   -0.828223
    14  O   -1.017599
    15  O   -0.851570
    16  O   -0.765882
    17  O   -1.040862
    18  O   -1.046589
    19  O   -1.057163
    20  O   -0.823580
    21  O   -0.885962
    22  H    0.402421
    23  H    0.372893
    24  H    0.388395
    25  H    0.416300
    26  H    0.371574
    27  H    0.422192
    28  H    0.459482
    29  H    0.435855
    30  H    0.416937
    31  H    0.398078
    32  H    0.385326
    33  H    0.452974
 Sum of Mulliken charges =  -0.00000
 Mulliken charges with hydrogens summed into heavy atoms:
               1
     1  Si   2.306152
     2  O   -1.368581
     3  O   -1.171713
     4  O   -1.155950
     5  O   -0.842625
     6  Si   2.279879
     7  Si   2.220084
     8  Si   2.240844
     9  Zr   1.420921
    10  O   -0.568841
    11  O   -0.324317
    12  O   -0.477142
    13  O   -0.411923
    14  O   -0.595407
    15  O   -0.479996
    16  O   -0.380556
    17  O   -0.587888
    18  O   -0.648511
    19  O   -0.640226
    20  O   -0.364097
    21  O   -0.450107
 Electronic spatial extent (au):  <R**2>=           7947.8336
 Charge=             -0.0000 electrons
 Dipole moment (field-independent basis, Debye):
    X=             -2.0182    Y=             -3.7088    Z=             -2.6397  Tot=              4.9796
 Quadrupole moment (field-independent basis, Debye-Ang):
   XX=           -156.3791   YY=           -155.8677   ZZ=           -161.6955
   XY=             -3.4266   XZ=              1.8133   YZ=             -7.6808
 Traceless Quadrupole moment (field-independent basis, Debye-Ang):
   XX=              1.6017   YY=              2.1131   ZZ=             -3.7148
   XY=             -3.4266   XZ=              1.8133   YZ=             -7.6808
 Octapole moment (field-independent basis, Debye-Ang**2):
  XXX=           -202.5421  YYY=            -17.2838  ZZZ=            -35.6558  XYY=            -57.4103
  XXY=            -34.9192  XXZ=            -72.9722  XZZ=             11.3979  YZZ=            -25.9189
  YYZ=            -30.9261  XYZ=              9.1609
 Hexadecapole moment (field-independent basis, Debye-Ang**3):
 XXXX=          -5212.7270 YYYY=          -2168.2868 ZZZZ=          -2093.7620 XXXY=              2.5361
 XXXZ=            122.8610 YYYX=             26.8945 YYYZ=            -90.6637 ZZZX=            158.9113
 ZZZY=           -106.5995 XXYY=          -1439.2612 XXZZ=          -1119.9899 YYZZ=           -701.5475
 XXYZ=              8.9936 YYXZ=            -32.1844 ZZXY=            -89.0752
 N-N= 3.049556947023D+03 E-N=-1.181097428867D+04  KE= 2.373211555660D+03
 PrsmSu:  requested number of processors reduced to:   2 ShMem   1 Linda.
 PrsmSu:  requested number of processors reduced to:  10 ShMem   1 Linda.
   1 Symmetry operations used in ECPInt.
 ECPInt:  NShTT=   13203 NPrTT=   78401 LenC2=   11927 LenP2D=   45396.
 LDataN:  DoStor=T MaxTD1= 9 Len=  602
 Number of processors reduced to  14 by ecpmxn.
 Calling FoFJK, ICntrl=      2127 FMM=F ISym2X=0 I1Cent= 0 IOpClX= 0 NMat=1 NMatS=1 NMatT=0.
 CoulSu:  requested number of processors reduced to:  10 ShMem   1 Linda.
 Defaulting to unpruned grid for atomic number  40.
 Defaulting to unpruned grid for atomic number  40.
 Defaulting to unpruned grid for atomic number  40.
 Defaulting to unpruned grid for atomic number  40.
 Defaulting to unpruned grid for atomic number  40.
 Defaulting to unpruned grid for atomic number  40.
 Defaulting to unpruned grid for atomic number  40.
 Defaulting to unpruned grid for atomic number  40.
 Defaulting to unpruned grid for atomic number  40.
 Defaulting to unpruned grid for atomic number  40.
 Defaulting to unpruned grid for atomic number  40.
 Defaulting to unpruned grid for atomic number  40.
 Defaulting to unpruned grid for atomic number  40.
 Defaulting to unpruned grid for atomic number  40.
 Defaulting to unpruned grid for atomic number  40.
 Defaulting to unpruned grid for atomic number  40.
 ***** Axes restored to original set *****
 -------------------------------------------------------------------
 Center     Atomic                   Forces (Hartrees/Bohr)
 Number     Number              X              Y              Z
 -------------------------------------------------------------------
      1       14          -0.005358763    0.000330554   -0.003301747
      2        8           0.000250968    0.000277271    0.000304688
      3        8          -0.001226711   -0.000272203   -0.002538034
      4        8           0.000414425   -0.000263936    0.000299951
      5        8          -0.000899949   -0.000078570    0.001790478
      6       14          -0.000406882    0.000129947    0.000107797
      7       14           0.003247129    0.002223685    0.006587073
      8       14          -0.000355839   -0.000248565    0.000056132
      9       40           0.002703818   -0.003661858   -0.000535612
     10        8           0.000689083   -0.000081345   -0.000544487
     11        8           0.001497686   -0.000294182   -0.001057505
     12        8           0.006696460    0.005295600   -0.001813038
     13        8           0.000118362    0.000008160    0.000014073
     14        8           0.000133235    0.000046156   -0.000096266
     15        8           0.000073476    0.000117308    0.000031971
     16        8           0.000051497   -0.000072805    0.000001201
     17        8           0.000042810   -0.000074342   -0.000186332
     18        8           0.000102597    0.000008332    0.000029142
     19        8          -0.000652024   -0.000288058   -0.000872100
     20        8          -0.007966920   -0.003982258    0.007388573
     21        8          -0.000536425   -0.000721040   -0.000981829
     22        1           0.000921544    0.000239301   -0.001636595
     23        1           0.000085500    0.000232316   -0.000100485
     24        1          -0.000223346    0.000152684    0.000248490
     25        1          -0.000028169    0.000021403   -0.000006117
     26        1           0.000011858   -0.000030119   -0.000021905
     27        1          -0.000026846    0.000022254    0.000038155
     28        1           0.000407471    0.001028835   -0.003476494
     29        1          -0.000068916   -0.000065659    0.000151102
     30        1           0.000248744   -0.000095283   -0.000056017
     31        1          -0.000007347    0.000001484   -0.000007865
     32        1          -0.000011740    0.000033825   -0.000003549
     33        1           0.000073215    0.000061108    0.000187152
 -------------------------------------------------------------------
 Cartesian Forces:  Max     0.007966920 RMS     0.001926289

 GradGradGradGradGradGradGradGradGradGradGradGradGradGradGradGradGradGrad
 Berny optimization.
 FormGI is forming the generalized inverse of G from B-inverse, IUseBI=4.
 Internal  Forces:  Max     0.033954961 RMS     0.004558687
 Search for a local minimum.
 Step number   1 out of a maximum of  164
 All quantities printed in internal units (Hartrees-Bohrs-Radians)
 Mixed Optimization -- RFO/linear search
 Second derivative matrix not updated -- first step.
 ITU=  0
     Eigenvalues ---    0.00230   0.00230   0.00230   0.00576   0.03211
     Eigenvalues ---    0.03439   0.03520   0.03558   0.03586   0.03627
     Eigenvalues ---    0.03673   0.03711   0.03747   0.03753   0.03833
     Eigenvalues ---    0.03844   0.03910   0.03946   0.03957   0.04222
     Eigenvalues ---    0.04790   0.07984   0.08727   0.11218   0.11319
     Eigenvalues ---    0.11516   0.11815   0.11842   0.12054   0.12258
     Eigenvalues ---    0.12943   0.12968   0.13045   0.13252   0.15011
     Eigenvalues ---    0.15464   0.16000   0.16000   0.16000   0.16000
     Eigenvalues ---    0.16000   0.16000   0.16000   0.16000   0.16000
     Eigenvalues ---    0.16000   0.16000   0.16000   0.17756   0.18440
     Eigenvalues ---    0.19166   0.20145   0.20369   0.20384   0.21054
     Eigenvalues ---    0.21061   0.21266   0.21513   0.21864   0.22128
     Eigenvalues ---    0.22810   0.25000   0.25000   0.25000   0.36657
     Eigenvalues ---    0.37725   0.40032   0.40890   0.41311   0.41617
     Eigenvalues ---    0.42076   0.42599   0.43032   0.43450   0.43522
     Eigenvalues ---    0.44473   0.44608   0.45420   0.45878   0.46010
     Eigenvalues ---    0.50565   0.51158   0.51894   0.52645   0.52665
     Eigenvalues ---    0.54349   0.54581   0.54655   0.54658   0.54845
     Eigenvalues ---    0.55242   0.557771000.000001000.000001000.00000
     Eigenvalues --- 1000.000001000.000001000.000001000.000001000.00000
     Eigenvalues --- 1000.000001000.000001000.000001000.000001000.00000
     Eigenvalues --- 1000.000001000.000001000.000001000.000001000.00000
     Eigenvalues --- 1000.000001000.000001000.000001000.000001000.00000
     Eigenvalues --- 1000.000001000.000001000.000001000.000001000.00000
     Eigenvalues --- 1000.000001000.000001000.000001000.000001000.00000
     Eigenvalues --- 1000.000001000.000001000.000001000.000001000.00000
     Eigenvalues --- 1000.000001000.000001000.000001000.000001000.00000
     Eigenvalues --- 1000.000001000.000001000.000001000.000001000.00000
     Eigenvalues --- 1000.000001000.000001000.000001000.000001000.00000
     Eigenvalues --- 1000.000001000.000001000.000001000.000001000.00000
     Eigenvalues --- 1000.000001000.000001000.000001000.00000
 RFO step:  Lambda=-1.71722894D-02 EMin= 2.30000000D-03
 Linear search not attempted -- first point.
 Iteration  1 RMS(Cart)=  0.23103080 RMS(Int)=  0.00968833
 Iteration  2 RMS(Cart)=  0.02495783 RMS(Int)=  0.00046637
 Iteration  3 RMS(Cart)=  0.00030352 RMS(Int)=  0.00045641
 Iteration  4 RMS(Cart)=  0.00000013 RMS(Int)=  0.00045641
 Iteration  1 RMS(Cart)=  0.00006811 RMS(Int)=  0.00003947
 Iteration  2 RMS(Cart)=  0.00004978 RMS(Int)=  0.00004318
 Iteration  3 RMS(Cart)=  0.00003638 RMS(Int)=  0.00004976
 Iteration  4 RMS(Cart)=  0.00002659 RMS(Int)=  0.00005595
 Iteration  5 RMS(Cart)=  0.00001943 RMS(Int)=  0.00006098
 Iteration  6 RMS(Cart)=  0.00001420 RMS(Int)=  0.00006487
 Iteration  7 RMS(Cart)=  0.00001037 RMS(Int)=  0.00006780
 Iteration  8 RMS(Cart)=  0.00000758 RMS(Int)=  0.00006999
 Iteration  9 RMS(Cart)=  0.00000554 RMS(Int)=  0.00007160
 Iteration 10 RMS(Cart)=  0.00000405 RMS(Int)=  0.00007280
 Iteration 11 RMS(Cart)=  0.00000296 RMS(Int)=  0.00007367
 Iteration 12 RMS(Cart)=  0.00000216 RMS(Int)=  0.00007431
 Iteration 13 RMS(Cart)=  0.00000158 RMS(Int)=  0.00007479
 Iteration 14 RMS(Cart)=  0.00000115 RMS(Int)=  0.00007513
 Iteration 15 RMS(Cart)=  0.00000084 RMS(Int)=  0.00007538
 Variable       Old X    -DE/DX   Delta X   Delta X   Delta X     New X
                                 (Linear)    (Quad)   (Total)
    R1        3.07970  -0.00030   0.00000  -0.00063  -0.00063   3.07907
    R2        3.15210   0.00263   0.00000   0.00631   0.00631   3.15842
    R3        3.11330  -0.00035   0.00000  -0.00078  -0.00078   3.11252
    R4        3.06222  -0.00173   0.00000   0.01660   0.01704   3.07927
    R5        5.58881   0.01334   0.00000   0.03918   0.03919   5.62800
    R6        3.13114   0.00010   0.00000   0.00023   0.00023   3.13137
    R7        3.12526   0.00905   0.00000   0.02067   0.02067   3.14593
    R8        3.11868   0.00019   0.00000   0.00042   0.00042   3.11910
    R9        3.82373  -0.00239   0.00000   0.03114   0.03077   3.85450
   R10        3.10818  -0.00004   0.00000  -0.00010  -0.00010   3.10808
   R11        3.10731  -0.00002   0.00000  -0.00003  -0.00003   3.10727
   R12        3.13510  -0.00008   0.00000  -0.00018  -0.00018   3.13492
   R13        3.18468  -0.00011   0.00000  -0.00028  -0.00028   3.18440
   R14        3.07820  -0.00601   0.00000  -0.01259  -0.01259   3.06561
   R15        3.08491   0.00052   0.00000   0.00111   0.00111   3.08602
   R16        3.09593  -0.00008   0.00000  -0.00017  -0.00017   3.09576
[...]
 Alpha virt. eigenvalues --    3.01110   3.06388   3.17811   3.28442   3.46218
 Alpha virt. eigenvalues --    3.48135   3.49139   3.50503   3.53117   3.56178
 Alpha virt. eigenvalues --    3.59866   3.61049   3.61327   3.63993   3.70654
 Alpha virt. eigenvalues --    3.75392   3.98468   4.16141   7.05105  30.90695
          Condensed to atoms (all electrons):
               1          2          3          4          5          6
     1  Si  24.381681  -0.989951  -2.717301  -1.613746  -3.954302  -0.291825
     2  O   -0.989951  10.155368   0.429073  -0.154584   0.147833  -0.162580
     3  O   -2.717301   0.429073  11.184186   0.398607   1.096914   0.077890
     4  O   -1.613746  -0.154584   0.398607   9.885991   0.529454  -0.601262
     5  O   -3.954302   0.147833   1.096914   0.529454  10.510976   0.019624
     6  Si  -0.291825  -0.162580   0.077890  -0.601262   0.019624  13.785699
     7  Si  -1.743147  -0.186526  -1.746848   0.017381   0.310272   0.058805
     8  Si  -0.216946  -0.594625  -0.123129   0.027485   0.045517  -0.203664
     9  Zr  -1.494616   0.043576  -0.554681  -0.006686   0.292065   0.037472
    10  O   -0.022185   0.001553   0.015022   0.000613  -0.032238  -0.000882
    11  O    0.090170  -0.001398  -0.086838  -0.002925  -0.039011  -0.000703
    12  O    0.047549   0.004492  -0.050171  -0.009724  -0.022168  -0.001826
    13  O   -0.018809   0.248405   0.002578  -0.004055  -0.002680   0.064953
    14  O   -0.027565   0.391126   0.112015  -0.017003  -0.014258   0.009170
    15  O    0.018750   0.096598   0.005069   0.001827  -0.003955  -0.009829
    16  O    0.074176   0.017331  -0.007897   0.290974  -0.015505  -0.561132
    17  O   -0.050413  -0.024736   0.024100   0.251473   0.014544  -0.356935
    18  O   -0.078968  -0.004792  -0.011213   0.179964   0.005532  -0.303490
    19  O    0.166446  -0.011440   0.506988   0.014996  -0.008515  -0.005047
    20  O    0.226033  -0.002755   0.463889  -0.006027  -0.032690  -0.000124
    21  O   -0.019833   0.041925   0.192640  -0.006609  -0.005005  -0.001315
    22  H   -0.000707  -0.000005   0.004732   0.000158   0.000119  -0.000156
    23  H   -0.001550  -0.000000  -0.000141   0.000003   0.000213   0.000019
    24  H   -0.013621   0.000363   0.004781   0.000051   0.000477   0.000033
    25  H   -0.001068  -0.006186  -0.000148   0.002801   0.000009   0.004887
    26  H   -0.009142  -0.014841   0.000405  -0.000100   0.000152  -0.000118
    27  H    0.008830  -0.032604  -0.012623  -0.004852  -0.000021   0.006356
    28  H   -0.006302  -0.000177  -0.002003   0.000342   0.001057  -0.000462
    29  H   -0.003434  -0.007134  -0.025861   0.000960  -0.000128  -0.000239
    30  H   -0.002267  -0.000142  -0.011274  -0.000156   0.000156   0.000361
    31  H   -0.001652  -0.002689   0.000031  -0.023298   0.000123   0.079126
    32  H    0.000615  -0.000187   0.000396   0.001284   0.000202   0.030832
    33  H   -0.018994   0.001087  -0.004037  -0.011360  -0.000206   0.050206
               7          8          9         10         11         12
     1  Si  -1.743147  -0.216946  -1.494616  -0.022185   0.090170   0.047549
     2  O   -0.186526  -0.594625   0.043576   0.001553  -0.001398   0.004492
     3  O   -1.746848  -0.123129  -0.554681   0.015022  -0.086838  -0.050171
     4  O    0.017381   0.027485  -0.006686   0.000613  -0.002925  -0.009724
     5  O    0.310272   0.045517   0.292065  -0.032238  -0.039011  -0.022168
     6  Si   0.058805  -0.203664   0.037472  -0.000882  -0.000703  -0.001826
     7  Si  16.462583   0.166009   0.306178   0.006997  -0.056387  -0.002525
     8  Si   0.166009  12.987874   0.106579  -0.001040   0.001335   0.002478
     9  Zr   0.306178   0.106579  12.146821  -0.127834   0.180968   0.103612
    10  O    0.006997  -0.001040  -0.127834   8.872062  -0.052750  -0.051306
    11  O   -0.056387   0.001335   0.180968  -0.052750   8.354223  -0.013383
    12  O   -0.002525   0.002478   0.103612  -0.051306  -0.013383   8.557996
    13  O    0.010245  -0.186463  -0.006470  -0.000000  -0.000106  -0.000007
    14  O   -0.137625  -0.506216  -0.042196  -0.000012   0.000328   0.000081
    15  O   -0.017630  -0.106933  -0.012655  -0.000008   0.000481   0.000020
    16  O   -0.003073  -0.014621  -0.017862  -0.000001   0.000010   0.000061
    17  O   -0.071268   0.111697  -0.020200  -0.000019  -0.000106   0.000044
    18  O   -0.005435   0.110303  -0.001572   0.000000  -0.000028  -0.000020
    19  O   -0.753836  -0.032852  -0.083516  -0.000071  -0.000139  -0.003532
    20  O   -0.881795   0.007294  -0.094392  -0.000729   0.005897  -0.023737
    21  O   -0.157698  -0.038387   0.013795  -0.000011   0.007315   0.001090
    22  H   -0.000158   0.000034  -0.026484  -0.001992   0.000165   0.267335
    23  H   -0.000435   0.000033  -0.080584   0.344134   0.000190   0.000135
    24  H    0.005068  -0.000803  -0.052115   0.000797   0.309241  -0.002230
    25  H   -0.000727   0.043341  -0.000644  -0.000000   0.000000   0.000000
    26  H    0.000831   0.061042  -0.000009   0.000000   0.000059   0.000000
    27  H    0.013993   0.089894   0.004135   0.000000  -0.000007  -0.000002
    28  H    0.025800  -0.000363   0.005056   0.000579  -0.001292   0.034667
    29  H    0.071127   0.023247  -0.002397   0.000000  -0.000501   0.000002
    30  H    0.055279   0.000306   0.002222  -0.000000   0.000007   0.000106
    31  H    0.000476  -0.003322   0.000090   0.000000   0.000000  -0.000000
    32  H   -0.000515   0.000102   0.001162   0.000000  -0.000000  -0.000001
    33  H    0.021779  -0.003103   0.000693   0.000000   0.000006   0.000012
              13         14         15         16         17         18
     1  Si  -0.018809  -0.027565   0.018750   0.074176  -0.050413  -0.078968
     2  O    0.248405   0.391126   0.096598   0.017331  -0.024736  -0.004792
     3  O    0.002578   0.112015   0.005069  -0.007897   0.024100  -0.011213
     4  O   -0.004055  -0.017003   0.001827   0.290974   0.251473   0.179964
     5  O   -0.002680  -0.014258  -0.003955  -0.015505   0.014544   0.005532
     6  Si   0.064953   0.009170  -0.009829  -0.561132  -0.356935  -0.303490
     7  Si   0.010245  -0.137625  -0.017630  -0.003073  -0.071268  -0.005435
     8  Si  -0.186463  -0.506216  -0.106933  -0.014621   0.111697   0.110303
     9  Zr  -0.006470  -0.042196  -0.012655  -0.017862  -0.020200  -0.001572
    10  O   -0.000000  -0.000012  -0.000008  -0.000001  -0.000019   0.000000
    11  O   -0.000106   0.000328   0.000481   0.000010  -0.000106  -0.000028
    12  O   -0.000007   0.000081   0.000020   0.000061   0.000044  -0.000020
    13  O    8.633381   0.009402  -0.077941   0.003408  -0.024475  -0.044868
    14  O    0.009402   8.976919   0.088764   0.006017  -0.055157  -0.025669
    15  O   -0.077941   0.088764   8.619452  -0.000222   0.003201   0.002152
    16  O    0.003408   0.006017  -0.000222   8.962693  -0.116706  -0.075122
    17  O   -0.024475  -0.055157   0.003201  -0.116706   8.978157   0.168812
    18  O   -0.044868  -0.025669   0.002152  -0.075122   0.168812   8.894979
    19  O    0.000327   0.018615   0.000703  -0.002387  -0.013486  -0.000447
    20  O   -0.000031  -0.003085   0.000315   0.000033   0.001770   0.000034
    21  O   -0.000941   0.041934   0.005034  -0.000094  -0.011443  -0.000056
    22  H   -0.000000  -0.000000   0.000000  -0.000000   0.000000  -0.000000
    23  H   -0.000000   0.000000   0.000000   0.000000   0.000000   0.000000
    24  H    0.000007  -0.000099  -0.000053   0.000000   0.000004   0.000000
    25  H    0.227577  -0.008615   0.006576   0.000149   0.000493   0.011129
    26  H   -0.007581   0.003286   0.233673   0.000000  -0.000012   0.000009
    27  H   -0.002479   0.189964   0.001736  -0.000186   0.012245   0.000946
    28  H    0.000000  -0.000006  -0.000002  -0.000003  -0.000011   0.000000
    29  H    0.000607   0.002038   0.000251  -0.000010  -0.000312   0.000027
    30  H   -0.000002  -0.000475   0.000000  -0.000078   0.000238  -0.000007
    31  H    0.002021  -0.000071  -0.000010  -0.001376   0.001833   0.216081
    32  H   -0.000002  -0.000012   0.000000   0.230919  -0.002942   0.004402
    33  H    0.000716   0.000535  -0.000159   0.000044   0.213735   0.003064
              19         20         21         22         23         24
     1  Si   0.166446   0.226033  -0.019833  -0.000707  -0.001550  -0.013621
     2  O   -0.011440  -0.002755   0.041925  -0.000005  -0.000000   0.000363
     3  O    0.506988   0.463889   0.192640   0.004732  -0.000141   0.004781
     4  O    0.014996  -0.006027  -0.006609   0.000158   0.000003   0.000051
     5  O   -0.008515  -0.032690  -0.005005   0.000119   0.000213   0.000477
     6  Si  -0.005047  -0.000124  -0.001315  -0.000156   0.000019   0.000033
     7  Si  -0.753836  -0.881795  -0.157698  -0.000158  -0.000435   0.005068
     8  Si  -0.032852   0.007294  -0.038387   0.000034   0.000033  -0.000803
     9  Zr  -0.083516  -0.094392   0.013795  -0.026484  -0.080584  -0.052115
    10  O   -0.000071  -0.000729  -0.000011  -0.001992   0.344134   0.000797
    11  O   -0.000139   0.005897   0.007315   0.000165   0.000190   0.309241
    12  O   -0.003532  -0.023737   0.001090   0.267335   0.000135  -0.002230
    13  O    0.000327  -0.000031  -0.000941  -0.000000  -0.000000   0.000007
    14  O    0.018615  -0.003085   0.041934  -0.000000   0.000000  -0.000099
    15  O    0.000703   0.000315   0.005034   0.000000   0.000000  -0.000053
    16  O   -0.002387   0.000033  -0.000094  -0.000000   0.000000   0.000000
    17  O   -0.013486   0.001770  -0.011443   0.000000   0.000000   0.000004
    18  O   -0.000447   0.000034  -0.000056  -0.000000   0.000000   0.000000
    19  O    9.083179   0.043950  -0.082440   0.000058  -0.000000   0.000116
    20  O    0.043950   8.794858   0.100072   0.003539  -0.000006  -0.001174
    21  O   -0.082440   0.100072   8.596964   0.000011  -0.000000   0.001589
    22  H    0.000058   0.003539   0.000011   0.356589   0.000012  -0.000006
    23  H   -0.000000  -0.000006  -0.000000   0.000012   0.367138   0.000007
    24  H    0.000116  -0.001174   0.001589  -0.000006   0.000007   0.360088
    25  H   -0.000035   0.000001  -0.000007  -0.000000   0.000000  -0.000000
    26  H   -0.000000  -0.000001   0.000011  -0.000000  -0.000000   0.000000
    27  H   -0.001324   0.000058  -0.002348   0.000000   0.000000   0.000000
    28  H   -0.005668   0.231014  -0.001852  -0.002252   0.000000   0.000045
    29  H   -0.005477   0.004471   0.208122   0.000000  -0.000000   0.000019
    30  H    0.217261  -0.006967  -0.002906   0.000000  -0.000000   0.000000
    31  H    0.000019  -0.000000  -0.000000   0.000000  -0.000000  -0.000000
    32  H    0.000038  -0.000002   0.000000   0.000000  -0.000000   0.000000
    33  H    0.013695   0.000198   0.002701  -0.000000  -0.000000  -0.000000
              25         26         27         28         29         30
     1  Si  -0.001068  -0.009142   0.008830  -0.006302  -0.003434  -0.002267
     2  O   -0.006186  -0.014841  -0.032604  -0.000177  -0.007134  -0.000142
     3  O   -0.000148   0.000405  -0.012623  -0.002003  -0.025861  -0.011274
     4  O    0.002801  -0.000100  -0.004852   0.000342   0.000960  -0.000156
     5  O    0.000009   0.000152  -0.000021   0.001057  -0.000128   0.000156
     6  Si   0.004887  -0.000118   0.006356  -0.000462  -0.000239   0.000361
     7  Si  -0.000727   0.000831   0.013993   0.025800   0.071127   0.055279
     8  Si   0.043341   0.061042   0.089894  -0.000363   0.023247   0.000306
     9  Zr  -0.000644  -0.000009   0.004135   0.005056  -0.002397   0.002222
    10  O   -0.000000   0.000000   0.000000   0.000579   0.000000  -0.000000
    11  O    0.000000   0.000059  -0.000007  -0.001292  -0.000501   0.000007
    12  O    0.000000   0.000000  -0.000002   0.034667   0.000002   0.000106
    13  O    0.227577  -0.007581  -0.002479   0.000000   0.000607  -0.000002
    14  O   -0.008615   0.003286   0.189964  -0.000006   0.002038  -0.000475
    15  O    0.006576   0.233673   0.001736  -0.000002   0.000251   0.000000
    16  O    0.000149   0.000000  -0.000186  -0.000003  -0.000010  -0.000078
    17  O    0.000493  -0.000012   0.012245  -0.000011  -0.000312   0.000238
    18  O    0.011129   0.000009   0.000946   0.000000   0.000027  -0.000007
    19  O   -0.000035  -0.000000  -0.001324  -0.005668  -0.005477   0.217261
    20  O    0.000001  -0.000001   0.000058   0.231014   0.004471  -0.006967
    21  O   -0.000007   0.000011  -0.002348  -0.001852   0.208122  -0.002906
    22  H   -0.000000  -0.000000   0.000000  -0.002252   0.000000   0.000000
    23  H    0.000000  -0.000000   0.000000   0.000000  -0.000000  -0.000000
    24  H   -0.000000   0.000000   0.000000   0.000045   0.000019   0.000000
    25  H    0.303500  -0.000007  -0.000114  -0.000000  -0.000000   0.000000
    26  H   -0.000007   0.360764  -0.000052   0.000000   0.000013  -0.000000
    27  H   -0.000114  -0.000052   0.309824   0.000000  -0.000454   0.000055
    28  H   -0.000000   0.000000   0.000000   0.274832  -0.000017   0.000071
    29  H   -0.000000   0.000013  -0.000454  -0.000017   0.297516   0.000133
    30  H    0.000000  -0.000000   0.000055   0.000071   0.000133   0.328036
    31  H   -0.000262   0.000000   0.000009   0.000000   0.000000   0.000000
    32  H   -0.000001  -0.000000  -0.000000   0.000000  -0.000000   0.000000
    33  H   -0.000004   0.000000  -0.001520  -0.000003   0.000071  -0.000173
              31         32         33
     1  Si  -0.001652   0.000615  -0.018994
     2  O   -0.002689  -0.000187   0.001087
     3  O    0.000031   0.000396  -0.004037
     4  O   -0.023298   0.001284  -0.011360
     5  O    0.000123   0.000202  -0.000206
     6  Si   0.079126   0.030832   0.050206
     7  Si   0.000476  -0.000515   0.021779
     8  Si  -0.003322   0.000102  -0.003103
     9  Zr   0.000090   0.001162   0.000693
    10  O    0.000000   0.000000   0.000000
    11  O    0.000000  -0.000000   0.000006
    12  O   -0.000000  -0.000001   0.000012
    13  O    0.002021  -0.000002   0.000716
    14  O   -0.000071  -0.000012   0.000535
    15  O   -0.000010   0.000000  -0.000159
    16  O   -0.001376   0.230919   0.000044
    17  O    0.001833  -0.002942   0.213735
    18  O    0.216081   0.004402   0.003064
    19  O    0.000019   0.000038   0.013695
    20  O   -0.000000  -0.000002   0.000198
    21  O   -0.000000   0.000000   0.002701
    22  H    0.000000   0.000000  -0.000000
    23  H   -0.000000  -0.000000  -0.000000
    24  H   -0.000000   0.000000  -0.000000
    25  H   -0.000262  -0.000001  -0.000004
    26  H    0.000000  -0.000000   0.000000
    27  H    0.000009  -0.000000  -0.001520
    28  H    0.000000   0.000000  -0.000003
    29  H    0.000000  -0.000000   0.000071
    30  H    0.000000   0.000000  -0.000173
    31  H    0.334498   0.000018  -0.000048
    32  H    0.000018   0.347280   0.000124
    33  H   -0.000048   0.000124   0.278929
 Mulliken charges:
               1
     1  Si   2.284090
     2  O   -1.381378
     3  O   -1.165153
     4  O   -1.141979
     5  O   -0.844557
     6  Si   2.276156
     7  Si   2.232806
     8  Si   2.247897
     9  Zr   1.380490
    10  O   -0.950678
    11  O   -0.694821
    12  O   -0.839049
    13  O   -0.826718
    14  O   -1.012131
    15  O   -0.855206
    16  O   -0.769542
    17  O   -1.034125
    18  O   -1.045747
    19  O   -1.056178
    20  O   -0.829914
    21  O   -0.882258
    22  H    0.399006
    23  H    0.370833
    24  H    0.387416
    25  H    0.417355
    26  H    0.371616
    27  H    0.420540
    28  H    0.446949
    29  H    0.437363
    30  H    0.420216
    31  H    0.398402
    32  H    0.386288
    33  H    0.452013
 Sum of Mulliken charges =  -0.00000
 Mulliken charges with hydrogens summed into heavy atoms:
               1
     1  Si   2.284090
     2  O   -1.381378
     3  O   -1.165153
     4  O   -1.141979
     5  O   -0.844557
     6  Si   2.276156
     7  Si   2.232806
     8  Si   2.247897
     9  Zr   1.380490
    10  O   -0.579845
    11  O   -0.307405
    12  O   -0.440042
    13  O   -0.409363
    14  O   -0.591591
    15  O   -0.483591
    16  O   -0.383255
    17  O   -0.582112
    18  O   -0.647345
    19  O   -0.635962
    20  O   -0.382965
    21  O   -0.444895
 Electronic spatial extent (au):  <R**2>=           7995.0788
 Charge=             -0.0000 electrons
 Dipole moment (field-independent basis, Debye):
    X=             -1.8335    Y=             -3.8301    Z=             -2.4897  Tot=              4.9224
 Quadrupole moment (field-independent basis, Debye-Ang):
   XX=           -157.1504   YY=           -156.7237   ZZ=           -160.5788
   XY=             -3.6583   XZ=              2.0948   YZ=             -7.6970
 Traceless Quadrupole moment (field-independent basis, Debye-Ang):
   XX=              1.0006   YY=              1.4273   ZZ=             -2.4278
   XY=             -3.6583   XZ=              2.0948   YZ=             -7.6970
 Octapole moment (field-independent basis, Debye-Ang**2):
  XXX=           -202.7303  YYY=            -20.5022  ZZZ=            -36.9529  XYY=            -56.4678
  XXY=            -37.3161  XXZ=            -72.9961  XZZ=              9.9765  YZZ=            -26.1465
  YYZ=            -30.2685  XYZ=              7.8902
 Hexadecapole moment (field-independent basis, Debye-Ang**3):
 XXXX=          -5272.3271 YYYY=          -2177.3467 ZZZZ=          -2099.9786 XXXY=             28.1068
 XXXZ=            132.2427 YYYX=              9.7180 YYYZ=            -90.5379 ZZZX=            159.6907
 ZZZY=           -103.7032 XXYY=          -1458.8122 XXZZ=          -1114.4596 YYZZ=           -702.8476
 XXYZ=             12.5836 YYXZ=            -22.1704 ZZXY=            -94.0387
 N-N= 3.042366975003D+03 E-N=-1.179643605147D+04  KE= 2.373123251266D+03
 1\1\GINC-GRA613\FOpt\RB3LYP\Gen\H12O16Si4Zr1\SARASHS\29-Jul-2020\0\\#n
  B3LYP/Gen Pseudo=cards EmpiricalDispersion=GD3 Opt=modredundant\\Titl
 e\\0,1\Si,-0.1352454149,0.1913983621,-0.8697407714\O,-0.999731858,-1.1
 856632054,-0.9683477456\O,0.6000248582,0.2924337583,0.6303172359\O,-1.
 1390540748,1.4803745915,-1.0770596336\O,1.1791956354,0.2209012146,-1.8
 179283964\Si,-2.7110447217,1.7464776951,-0.6491167979\Si,0.4273234759,
 0.3208331248,2.2816773358\Si,-2.1489643986,-2.112915354,-0.2192779736\
 Zr,2.8188465661,-0.0340957509,-0.630768344\O,4.3064933971,-0.050570936
 5,-1.8532452036\O,2.7949009274,-1.7420014845,0.2768533668\O,3.26298661
 21,1.4555446226,0.6451570863\O,-3.5411636286,-2.0032271494,-1.07483004
 46\O,-2.309705349,-1.5895770104,1.3503461636\O,-1.6438094686,-3.664101
 9471,-0.0815081454\O,-3.0375521505,3.3353152469,-0.9209400034\O,-2.959
 815546,1.2061359374,0.8836540388\O,-3.7750072973,0.8385343398,-1.54090
 72938\O,-0.8156544934,1.4273470824,2.5351176759\O,1.824290189,0.829364
 8995,2.9431462854\O,0.0366758849,-1.1509335677,2.8680285978\H,4.055918
 2836,2.0034424619,0.6620735686\H,5.0298287759,-0.3156165848,-2.4231743
 748\H,2.394408392,-2.2831174389,0.9639166606\H,-3.7754591563,-1.109577
 9131,-1.3821475235\H,-1.4887801896,-4.1553375468,-0.8951166016\H,-2.84
 24893713,-0.777830031,1.4169633299\H,2.4606086306,1.1879197088,2.28600
 20774\H,-0.806271682,-1.506675644,2.5223890878\H,-0.8767522292,1.79054
 35099,3.4273479692\H,-4.1326935011,1.2573562491,-2.3322942817\H,-2.280
 9944326,3.9188588749,-1.047836305\H,-2.2599126649,1.430209885,1.537488
 9601\\Version=ES64L-G16RevB.01\State=1-A\HF=-2416.9434353\RMSD=2.578e-
 09\RMSF=7.028e-04\Dipole=0.7602732,1.5174457,-0.9326675\Quadrupole=0.7
 783181,0.9065454,-1.6848635,-2.8456085,-1.4895889,5.7087519\PG=C01 [X(
 H12O16Si4Zr1)]\\@


 ONE BIG VICE IN A MAN IS APT TO KEEP OUT MANY SMALLER ONES.

                           -- BRET HARTE
 Job cpu time:       1 days 18 hours 31 minutes 49.0 seconds.
 Elapsed time:       0 days  3 hours 14 minutes  0.1 seconds.
 File lengths (MBytes):  RWF=    167 Int=      0 D2E=      0 Chk=     21 Scr=      1
 Normal termination of Gaussian 16 at Wed Jul 29 23:20:08 2020.
